Title
82307
    1SAPS     N    1   4.134   0.826  11.062  0.2091 -1.1089  0.2612
    1SAPS   HN1    2   4.147   0.779  11.153 -0.8082  0.6676  1.3900
    1SAPS   HN2    3   4.083   0.914  11.085 -1.4088 -2.2763  1.4004
    1SAPS   HN3    4   4.075   0.769  10.997 -0.1029 -0.4426 -0.0596
    1SAPS   C12    5   4.273   0.855  11.011  0.0114 -0.3242  0.4913
    1SAPS  H12A    6   4.268   0.884  10.908  0.2794 -2.6550 -0.2359
    1SAPS   C13    7   4.346   0.964  11.085  0.0150 -0.8330  0.5883
    1SAPS  O13A    8   4.288   1.023  11.184 -0.2460 -0.2413 -0.7495
    1SAPS  O13B    9   4.455   1.007  11.036  0.2252  0.3930 -0.4063
    1SAPS   C11   10   4.352   0.726  11.030 -0.2306 -0.6561  0.3976
    1SAPS  H11A   11   4.351   0.703  11.139 -1.8575  0.7197  0.7183
    1SAPS  H11B   12   4.457   0.749  11.000 -1.0473  1.4113 -1.1213
    1SAPS     P   13   4.345   0.476  10.968 -0.1960  0.2008  0.1905
    1SAPS   O13   14   4.474   0.457  10.909 -0.3899  0.3082  0.4467
    1SAPS   O14   15   4.339   0.435  11.112  0.1902 -0.5779  0.0745
    1SAPS   O12   16   4.297   0.623  10.943  0.0596  0.1602 -0.3892
    1SAPS   O11   17   4.235   0.391  10.888 -0.0448  0.2304  0.2424
    1SAPS    C1   18   4.180   0.464  10.771 -0.2655 -0.1690  0.2974
    1SAPS    HA   19   4.114   0.546  10.806 -1.8237 -1.6293  0.9117
    1SAPS    HB   20   4.260   0.495  10.700 -0.1142 -1.6512 -0.2244
    1SAPS    C2   21   4.085   0.359  10.698  0.0277 -0.7623  0.7224
    1SAPS    HS   22   4.023   0.307  10.775 -0.5647 -0.3258  0.5419
    1SAPS   O21   23   4.171   0.258  10.638  0.8402 -0.4826  0.5288
    1SAPS   C21   24   4.112   0.152  10.593  0.4290  0.2067 -0.5829
    1SAPS   O22   25   3.991   0.126  10.609 -0.4576  0.2172  0.3950
    1SAPS   C22   26   4.217   0.061  10.546  0.0004 -0.8588  0.5850
    1SAPS   H2R   27   4.304   0.081  10.611 -0.2465 -0.5121  0.8165
    1SAPS   H2S   28   4.180  -0.040  10.571  0.1344 -2.3644 -4.2004
    1SAPS    C3   29   3.984   0.435  10.595 -0.0744  0.0283  0.0282
    1SAPS    HX   30   3.921   0.513  10.643 -0.6823 -1.8727  2.5387
    1SAPS    HY   31   3.916   0.357  10.555  0.7474 -1.4619  1.4427
    1SAPS   O31   32   4.051   0.502  10.485  0.2302  0.2006 -0.0768
    1SAPS   C31   33   3.980   0.556  10.395  0.8114 -0.5384 -0.4653
    1SAPS   O32   34   3.855   0.570  10.404  0.3927  0.2762  0.3317
    1SAPS   C32   35   4.066   0.626  10.292  1.1167  0.6882  0.2713
    1SAPS   H2X   36   4.125   0.550  10.235  1.0859  0.3414  0.6935
    1SAPS   H2Y   37   4.145   0.682  10.346 -0.2470  0.7167  2.3221
    1SAPS   C23   38   4.262   0.087  10.398 -0.2159 -0.4827  0.4401
    1SAPS   H3R   39   4.362   0.039  10.386  0.2621  0.9322 -1.9990
    1SAPS   H3S   40   4.269   0.195  10.374 -0.0934 -0.6383 -0.2311
    1SAPS   C24   41   4.163   0.015  10.301 -0.0376  0.0732  0.2108
    1SAPS   H4R   42   4.065   0.060  10.327  0.3483  0.8237  0.4002
    1SAPS   H4S   43   4.153  -0.094  10.323  0.9852 -0.1132 -0.1962
    1SAPS   C25   44   4.197   0.026  10.158 -0.3475  0.2716 -0.1433
    1SAPS   H5R   45   4.290  -0.022  10.126  0.0480  1.0641 -0.2029
    1SAPS   C26   46   4.137   0.106  10.065 -0.7260  0.2722 -0.1806
    1SAPS   H6R   47   4.192   0.097   9.970 -1.2114  1.0785 -0.5442
    1SAPS   C27   48   4.019   0.198  10.075 -0.5241 -0.0272 -0.3137
    1SAPS   H7R   49   4.001   0.231  10.180  0.3198  1.1640 -0.5324
    1SAPS   H7S   50   3.932   0.136  10.042 -0.2738 -0.2312 -0.6004
    1SAPS   C28   51   4.040   0.318   9.991 -1.1943  0.6436 -0.1803
    1SAPS   H8R   52   4.126   0.385  10.006 -1.7468  0.7046  3.5576
    1SAPS   C29   53   3.961   0.355   9.894  0.2475  1.0620 -0.7625
    1SAPS   H9R   54   3.994   0.441   9.835  1.5362  2.0183  1.2338
    1SAPS  C210   55   3.834   0.295   9.845  0.3079 -0.1417  0.3547
    1SAPS  H10R   56   3.748   0.357   9.877 -0.5448 -1.8169  1.4917
    1SAPS  H10S   57   3.820   0.192   9.884 -2.6372 -1.1711 -2.9419
    1SAPS  C211   58   3.846   0.283   9.691 -0.0931 -0.5145 -0.0301
    1SAPS  H11R   59   3.797   0.364   9.635  0.9139 -1.8178 -2.9962
    1SAPS  C212   60   3.894   0.187   9.617  0.4583  0.3857 -0.0752
    1SAPS  H12R   61   3.866   0.195   9.510 -0.4014  0.5209  0.1520
    1SAPS  C213   62   3.949   0.058   9.662  0.3092  0.1793 -0.2310
    1SAPS  H13R   63   3.868  -0.003   9.707  0.7085  1.6051  2.6168
    1SAPS  H13S   64   4.015   0.064   9.751  0.6021  0.4071 -0.4594
    1SAPS  C214   65   4.031  -0.016   9.558  0.3567  0.1361 -0.4159
    1SAPS  H14R   66   4.030   0.029   9.458 -0.5561  0.5331 -0.2423
    1SAPS  C215   67   4.086  -0.138   9.580 -0.3415 -0.2287 -0.4666
    1SAPS  H15R   68   4.119  -0.200   9.495  1.0549 -0.3506  0.1500
    1SAPS  C216   69   4.076  -0.213   9.704  0.3251 -0.1496  0.3899
    1SAPS  H16R   70   4.042  -0.316   9.678  0.3142 -0.6512  2.2301
    1SAPS  H16S   71   4.004  -0.176   9.781  1.2583  2.4634  0.0917
    1SAPS  C217   72   4.211  -0.241   9.774  0.2896 -0.3388 -0.1126
    1SAPS  H17R   73   4.231  -0.142   9.820  0.5275  1.2749 -3.4482
    1SAPS  H17S   74   4.292  -0.268   9.703  1.2377 -0.3326  0.9325
    1SAPS  C218   75   4.200  -0.356   9.876 -0.0674  0.1325 -0.1766
    1SAPS  H18R   76   4.233  -0.442   9.813 -2.3077  1.0421 -2.8045
    1SAPS  H18S   77   4.098  -0.369   9.917 -0.3042 -1.0290 -1.0642
    1SAPS  C219   78   4.296  -0.337   9.998 -0.0657  0.0688 -0.4443
    1SAPS  H19R   79   4.249  -0.260  10.062 -2.5699 -0.5860 -1.4007
    1SAPS  H19S   80   4.396  -0.303   9.962 -0.8850  2.0992 -0.9359
    1SAPS  C220   81   4.305  -0.469  10.076  0.2364  0.1301  0.2176
    1SAPS  H20R   82   4.361  -0.546  10.020 -0.2924  0.6450 -1.0434
    1SAPS  H20S   83   4.204  -0.513  10.094 -0.2930  1.3563  0.3878
    1SAPS  H20T   84   4.348  -0.447  10.176 -2.1828  0.4464  1.2701
    1SAPS   C33   85   3.983   0.729  10.200  0.1048  0.5806 -0.0186
    1SAPS   H3X   86   3.962   0.816  10.267  1.1650  1.1116 -0.3448
    1SAPS   H3Y   87   3.889   0.681  10.165 -1.6260  3.0438  0.8724
    1SAPS   C34   88   4.073   0.788  10.084  0.1869 -0.0563 -0.3318
    1SAPS   H4X   89   4.066   0.717   9.999  0.6607  0.4405 -0.7928
    1SAPS   H4Y   90   4.177   0.773  10.121  0.3405  1.1233 -0.2549
    1SAPS   C35   91   4.047   0.937  10.043  0.4104  0.4569 -0.0155
    1SAPS   H5X   92   4.045   0.992  10.139 -1.3109 -3.1757  2.2705
    1SAPS   H5Y   93   3.953   0.951   9.987  1.0427  0.2596 -1.1590
    1SAPS   C36   94   4.160   1.003   9.956 -0.7853  0.1800 -0.1672
    1SAPS   H6X   95   4.250   1.007  10.020 -0.3059 -1.0000 -0.7464
    1SAPS   H6Y   96   4.123   1.107   9.947 -1.2919 -0.1501 -2.8309
    1SAPS   C37   97   4.195   0.932   9.832  0.0790  0.6597  0.4826
    1SAPS   H7X   98   4.097   0.906   9.788 -0.3702  0.5330  1.5240
    1SAPS   H7Y   99   4.247   0.835   9.846 -0.2968  0.3539 -0.1843
    1SAPS   C38  100   4.271   1.014   9.733 -0.3054  0.5689  0.8042
    1SAPS   H8X  101   4.372   1.048   9.766 -0.7720  0.8228  2.0197
    1SAPS   H8Y  102   4.211   1.106   9.716 -0.2821  1.2918  4.0807
    1SAPS   C39  103   4.279   0.943   9.599  0.3707  0.3594  0.3419
    1SAPS   H9X  104   4.292   1.015   9.516  1.6209  1.0034  1.0680
    1SAPS   H9Y  105   4.174   0.909   9.582  1.3283 -1.3452 -2.8615
    1SAPS  C310  106   4.367   0.814   9.586 -0.1908 -0.0104 -0.0887
    1SAPS  H10X  107   4.361   0.752   9.678  2.6008  2.3429  1.9057
    1SAPS  H10Y  108   4.475   0.836   9.572  0.0371 -0.5798  0.7018
    1SAPS  C311  109   4.323   0.729   9.461 -0.6699 -0.6547  0.0777
    1SAPS  H11X  110   4.218   0.692   9.470  0.1278 -3.3072 -0.6360
    1SAPS  H11Y  111   4.401   0.650   9.453  0.6907  0.5778  0.8140
    1SAPS  C312  112   4.338   0.807   9.332  0.8198  0.0420  0.0207
    1SAPS  H12X  113   4.428   0.871   9.331  0.6316  0.4397  2.3614
    1SAPS  H12Y  114   4.258   0.882   9.314  0.4352 -0.3162  0.2026
    1SAPS  C313  115   4.363   0.700   9.216 -0.2570 -0.2980  0.1214
    1SAPS  H13X  116   4.451   0.637   9.242  1.3187  1.7133 -0.0962
    1SAPS  H13Y  117   4.395   0.763   9.131 -0.7260  1.2061  1.0152
    1SAPS  C314  118   4.242   0.602   9.176 -0.0540  0.0887  0.2579
    1SAPS  H14X  119   4.187   0.569   9.267  1.7383 -0.0737  1.3207
    1SAPS  H14Y  120   4.292   0.515   9.128 -1.5666 -0.4868 -0.3406
    1SAPS  C315  121   4.136   0.650   9.077  0.3364  0.8104  0.4276
    1SAPS  H15X  122   4.186   0.711   8.999  0.1513 -0.8350 -1.0434
    1SAPS  H15Y  123   4.064   0.712   9.136  2.0733  1.1734  2.2772
    1SAPS  C316  124   4.069   0.530   9.019 -0.0156  0.2368 -0.9978
    1SAPS  H16X  125   3.960   0.545   9.001  0.1132  1.1411 -1.1036
    1SAPS  H16Y  126   4.074   0.452   9.098 -0.7176 -0.3261 -1.5018
    1SAPS  C317  127   4.140   0.499   8.889  0.3915  0.5197 -0.2013
    1SAPS  H17X  128   4.245   0.484   8.923  0.0870  1.7188  1.3680
    1SAPS  H17Y  129   4.138   0.589   8.825 -2.4137  0.5867 -0.1218
    1SAPS  C318  130   4.099   0.381   8.801  0.6116  0.1967 -0.8939
    1SAPS  H18X  131   4.175   0.350   8.727  0.7028 -1.6303 -0.0812
    1SAPS  H18Y  132   4.001   0.396   8.751 -0.2460 -2.0340  0.0185
    1SAPS  H18Z  133   4.069   0.296   8.866 -3.0821  0.9364 -1.4289
    2SAPS     N  134   2.985   0.597  10.690  0.0875  0.6521  0.1821
    2SAPS   HN1  135   3.012   0.592  10.589  1.6729  0.8269  0.5691
    2SAPS   HN2  136   2.904   0.661  10.694 -0.2691  0.4435 -2.0000
    2SAPS   HN3  137   3.060   0.647  10.741 -0.7645  0.4216  1.7054
    2SAPS   C12  138   2.954   0.478  10.769  0.0436  0.4629 -0.3298
    2SAPS  H12A  139   3.044   0.442  10.815  0.1598  0.6642 -0.3967
    2SAPS   C13  140   2.856   0.491  10.896 -0.0185 -0.0468  0.6276
    2SAPS  O13A  141   2.800   0.601  10.924 -0.2785  0.0138 -0.1013
    2SAPS  O13B  142   2.833   0.389  10.958 -0.3007 -0.3022  0.5782
    2SAPS   C11  143   2.897   0.367  10.671 -0.2438 -0.8269 -0.3466
    2SAPS  H11A  144   2.887   0.282  10.741  1.5540 -2.2958 -1.7652
    2SAPS  H11B  145   2.973   0.352  10.592 -0.7008  0.1976 -1.0164
    2SAPS     P  146   2.697   0.266  10.553  0.1481  0.2266 -0.3137
    2SAPS   O13  147   2.796   0.171  10.494 -0.1390 -0.3384  0.7295
    2SAPS   O14  148   2.608   0.207  10.659 -0.3574  0.4549  0.1599
    2SAPS   O12  149   2.770   0.389  10.612  0.4137 -0.0113  1.0424
    2SAPS   O11  150   2.606   0.326  10.443 -0.4306 -0.4536 -0.5641
    2SAPS    C1  151   2.556   0.460  10.433  0.2810 -0.3880 -0.0578
    2SAPS    HA  152   2.450   0.454  10.402  0.4796 -2.0070 -0.5201
    2SAPS    HB  153   2.558   0.505  10.534  2.3959 -1.3324  0.3716
    2SAPS    C2  154   2.638   0.539  10.333 -0.6088 -0.0628  0.7962
    2SAPS    HS  155   2.566   0.589  10.265 -0.7127  0.5174  1.3213
    2SAPS   O21  156   2.740   0.460  10.266 -0.2330 -0.1402  0.2613
    2SAPS   C21  157   2.702   0.388  10.167 -0.5520  0.4480  0.1419
    2SAPS   O22  158   2.587   0.391  10.119 -0.5896 -0.7069  0.1206
    2SAPS   C22  159   2.820   0.312  10.117 -0.2239  0.5641 -0.0733
    2SAPS   H2R  160   2.909   0.377  10.105 -0.5246  1.1018  0.5535
    2SAPS   H2S  161   2.836   0.231  10.191 -0.7302  0.2174 -0.3415
    2SAPS    C3  162   2.717   0.652  10.411  0.3555  0.0811  0.1005
    2SAPS    HX  163   2.766   0.596  10.493 -0.2821 -1.7517 -0.7052
    2SAPS    HY  164   2.641   0.720  10.454 -0.3711 -0.4153 -0.3711
    2SAPS   O31  165   2.805   0.723  10.324 -0.2019  0.4687  0.4279
    2SAPS   C31  166   2.937   0.702  10.327  0.2014 -0.1702  0.1160
    2SAPS   O32  167   3.004   0.645  10.414  0.0804 -0.4431  0.8782
    2SAPS   C32  168   2.995   0.776  10.201 -0.4659 -1.0492 -0.2268
    2SAPS   H2X  169   3.080   0.842  10.226 -1.0419  1.0602 -3.2856
    2SAPS   H2Y  170   2.910   0.835  10.162 -0.8207 -2.2903 -1.4262
    2SAPS   C23  171   2.790   0.261   9.972 -0.1333 -0.7920  0.4012
    2SAPS   H3R  172   2.688   0.218   9.962 -1.8671  2.4500  2.3416
    2SAPS   H3S  173   2.861   0.179   9.949  0.9471  0.2618 -0.1210
    2SAPS   C24  174   2.798   0.377   9.866 -0.7309 -0.3158  0.2013
    2SAPS   H4R  175   2.792   0.472   9.924  0.6707 -0.1184  0.0639
    2SAPS   H4S  176   2.707   0.383   9.802 -1.2123  0.3033  0.9346
    2SAPS   C25  177   2.919   0.376   9.769 -0.8556  0.2140  0.0959
    2SAPS   H5R  178   3.003   0.442   9.795 -0.5234 -0.5543  1.0040
    2SAPS   C26  179   2.918   0.312   9.650  0.0104  0.4728  0.1880
    2SAPS   H6R  180   2.999   0.328   9.577  1.2990  0.1734  1.5218
    2SAPS   C27  181   2.802   0.231   9.596 -0.0150 -0.2247 -0.0175
    2SAPS   H7R  182   2.758   0.182   9.685 -1.6804 -0.7094 -1.0506
    2SAPS   H7S  183   2.843   0.149   9.533 -0.8597  0.0960 -1.0330
    2SAPS   C28  184   2.705   0.315   9.518 -0.1525 -0.1725 -0.6792
    2SAPS   H8R  185   2.663   0.405   9.566  0.7395  0.2049 -0.5828
    2SAPS   C29  186   2.672   0.306   9.388 -0.3632 -0.0281 -0.2859
    2SAPS   H9R  187   2.595   0.370   9.342  0.0759 -0.5026 -1.7404
    2SAPS  C210  188   2.723   0.190   9.304 -0.1240 -0.5591  0.9572
    2SAPS  H10R  189   2.717   0.089   9.350  3.5789 -1.1818  0.3830
    2SAPS  H10S  190   2.832   0.207   9.297  0.2659 -1.8584  2.9985
    2SAPS  C211  191   2.660   0.182   9.170  0.8043  0.1968  0.2662
    2SAPS  H11R  192   2.590   0.097   9.162 -0.6324  1.4039 -0.8269
    2SAPS  C212  193   2.681   0.255   9.063 -0.5921 -0.1622  0.3436
    2SAPS  H12R  194   2.635   0.224   8.968  0.0839  0.4500 -0.1949
    2SAPS  C213  195   2.789   0.362   9.052  0.7792  0.1682  0.7811
    2SAPS  H13R  196   2.867   0.327   8.980  0.8252 -1.8328  1.7335
    2SAPS  H13S  197   2.837   0.377   9.151  0.1548  1.3357  0.9171
    2SAPS  C214  198   2.715   0.486   9.008  0.1727 -0.3304  0.0974
    2SAPS  H14R  199   2.669   0.539   9.093 -1.1883 -3.0791  1.2198
    2SAPS  C215  200   2.706   0.551   8.891  0.3753  0.8503  0.5912
    2SAPS  H15R  201   2.635   0.634   8.883 -0.1740  0.2125 -2.0646
    2SAPS  C216  202   2.778   0.507   8.761 -0.1309  0.2918  0.2763
    2SAPS  H16R  203   2.821   0.404   8.769  0.5720  0.6520  1.5275
    2SAPS  H16S  204   2.876   0.559   8.751 -0.2938  0.2820 -1.9069
    2SAPS  C217  205   2.701   0.513   8.628 -0.3674  0.2245 -0.5576
    2SAPS  H17R  206   2.757   0.465   8.544 -0.3271  1.6535 -1.3737
    2SAPS  H17S  207   2.690   0.617   8.591 -0.9455  0.3304 -0.1083
    2SAPS  C218  208   2.563   0.433   8.627  0.6651  0.2526 -0.5760
    2SAPS  H18R  209   2.494   0.496   8.688 -0.4394 -2.2395  0.9298
    2SAPS  H18S  210   2.569   0.338   8.685  0.5397  1.6231  1.8246
    2SAPS  C219  211   2.508   0.396   8.488 -0.1097 -0.1928  0.6945
    2SAPS  H19R  212   2.418   0.333   8.475  1.2117 -2.1686  0.6903
    2SAPS  H19S  213   2.584   0.330   8.440 -0.2210 -0.3615  0.7528
    2SAPS  C220  214   2.480   0.518   8.398  0.1871 -0.9465  0.2842
    2SAPS  H20R  215   2.400   0.578   8.446  1.3714  1.0257 -0.1186
    2SAPS  H20S  216   2.443   0.490   8.296 -0.5073  1.2634 -0.1345
    2SAPS  H20T  217   2.564   0.590   8.385 -1.1528  0.3618 -1.7408
    2SAPS   C33  218   3.023   0.676  10.085  0.0811  0.4106 -0.2603
    2SAPS   H3X  219   2.942   0.599  10.094 -1.0590  1.5970 -0.0025
    2SAPS   H3Y  220   3.120   0.625  10.100 -0.6366 -0.9567 -0.0216
    2SAPS   C34  221   3.030   0.748   9.952  0.3694  0.2469 -0.2194
    2SAPS   H4X  222   2.942   0.812   9.929  0.4695  1.4865  2.4413
    2SAPS   H4Y  223   3.031   0.662   9.882 -0.8573 -2.1778  2.5411
    2SAPS   C35  224   3.165   0.812   9.908  0.2506 -0.1777  0.2897
    2SAPS   H5X  225   3.240   0.737   9.941 -1.2659 -1.6865  0.4411
    2SAPS   H5Y  226   3.173   0.914   9.952 -0.3740 -0.1942  0.4475
    2SAPS   C36  227   3.191   0.835   9.755  0.5781  0.0057  0.4699
    2SAPS   H6X  228   3.113   0.908   9.727  0.4509  0.2753  1.4924
    2SAPS   H6Y  229   3.173   0.737   9.706  2.0542 -0.6178  1.1123
    2SAPS   C37  230   3.330   0.884   9.722  0.5610  0.2116  0.3422
    2SAPS   H7X  231   3.399   0.810   9.768 -0.1527  0.1191  1.3023
    2SAPS   H7Y  232   3.354   0.981   9.770  0.0147  0.9373 -0.8003
    2SAPS   C38  233   3.350   0.905   9.569 -0.1887 -0.7471 -0.5990
    2SAPS   H8X  234   3.267   0.962   9.522 -0.4814 -0.6962 -0.0345
    2SAPS   H8Y  235   3.366   0.807   9.520 -1.6320 -1.0990 -0.3978
    2SAPS   C39  236   3.478   0.989   9.545 -0.3185 -0.5683  0.2771
    2SAPS   H9X  237   3.558   0.919   9.575 -1.8032 -2.5420 -0.1406
    2SAPS   H9Y  238   3.468   1.077   9.613  0.2759 -1.8915  2.1737
    2SAPS  C310  239   3.491   1.024   9.396 -0.6723  0.7115  0.7908
    2SAPS  H10X  240   3.571   1.101   9.395  0.0135  0.0343  1.8036
    2SAPS  H10Y  241   3.406   1.071   9.341 -1.5041 -1.0686  0.4787
    2SAPS  C311  242   3.553   0.907   9.314 -0.0325  0.3312 -0.0974
    2SAPS  H11X  243   3.480   0.826   9.333 -1.2148  0.8622 -2.0379
    2SAPS  H11Y  244   3.654   0.882   9.354 -0.7271  0.5529  1.8610
    2SAPS  C312  245   3.559   0.938   9.163  0.4058 -0.0089  0.7688
    2SAPS  H12X  246   3.615   1.032   9.149 -2.5697  1.9921  1.4321
    2SAPS  H12Y  247   3.454   0.969   9.144  0.7924  0.0433 -1.6201
    2SAPS  C313  248   3.615   0.816   9.083  0.2944 -0.0721 -0.5360
    2SAPS  H13X  249   3.552   0.725   9.094  2.2429 -1.3925  0.2628
    2SAPS  H13Y  250   3.714   0.783   9.120 -1.5089 -3.4158  1.9645
    2SAPS  C314  251   3.623   0.851   8.939  0.0758 -0.1884 -0.1749
    2SAPS  H14X  252   3.700   0.929   8.920  1.8621 -2.1627 -1.6071
    2SAPS  H14Y  253   3.524   0.894   8.911  0.6401  0.9068 -0.5482
    2SAPS  C315  254   3.651   0.721   8.854  0.8158 -0.4016 -0.3877
    2SAPS  H15X  255   3.600   0.638   8.908  2.1581  0.4269  2.3333
    2SAPS  H15Y  256   3.756   0.698   8.882  0.2850 -1.2753  1.0191
    2SAPS  C316  257   3.665   0.727   8.702 -0.5284 -0.6904 -0.3433
    2SAPS  H16X  258   3.724   0.640   8.667 -1.2464 -1.1296 -0.4962
    2SAPS  H16Y  259   3.716   0.822   8.676  0.0219 -0.8187  0.2664
    2SAPS  C317  260   3.532   0.749   8.623 -0.2050  0.6808  0.4120
    2SAPS  H17X  261   3.466   0.826   8.669  1.4591  1.4478  1.6047
    2SAPS  H17Y  262   3.484   0.649   8.622 -2.2016  1.6012 -0.4350
    2SAPS  C318  263   3.573   0.785   8.479 -0.2593  0.1053  0.4513
    2SAPS  H18X  264   3.633   0.878   8.486  0.8199 -0.5122 -0.3372
    2SAPS  H18Y  265   3.483   0.798   8.414  0.5349 -4.1209 -1.7920
    2SAPS  H18Z  266   3.635   0.706   8.434 -0.4953  1.5163 -2.5734
    3SAPS     N  267   4.002   2.720  11.137 -0.1107 -0.0528 -0.9715
    3SAPS   HN1  268   4.106   2.724  11.144 -0.1856 -0.9709  1.2308
    3SAPS   HN2  269   3.956   2.808  11.167 -0.4068 -0.9469  1.3664
    3SAPS   HN3  270   3.965   2.664  11.216  1.0381  0.5615  0.0322
    3SAPS   C12  271   3.967   2.680  10.995  0.2081 -0.0734 -0.7000
    3SAPS  H12A  272   4.018   2.585  10.981 -1.7550 -2.0373  3.4457
    3SAPS   C13  273   3.821   2.667  10.972  0.9507 -0.3291  0.4056
    3SAPS  O13A  274   3.740   2.714  11.058  0.2296 -0.2317  0.3225
    3SAPS  O13B  275   3.787   2.643  10.857  0.5178 -0.1250 -0.0519
    3SAPS   C11  276   4.020   2.789  10.902 -0.6952 -0.3971 -0.5059
    3SAPS  H11A  277   3.970   2.883  10.933  1.5871 -0.3045  3.4971
    3SAPS  H11B  278   3.990   2.767  10.797  0.5576  0.3872 -1.0463
    3SAPS     P  279   4.270   2.736  10.839 -0.2953 -0.0390  0.2553
    3SAPS   O13  280   4.407   2.812  10.836  0.5062 -0.4339 -0.0113
    3SAPS   O14  281   4.274   2.603  10.895  0.1522 -0.0406  0.0727
    3SAPS   O12  282   4.159   2.827  10.907  0.7594 -0.0516  0.5650
    3SAPS   O11  283   4.220   2.734  10.688  0.0365 -0.3212  0.4868
    3SAPS    C1  284   4.260   2.845  10.602  0.2769  0.2686 -0.1348
    3SAPS    HA  285   4.240   2.945  10.647 -2.2212 -1.2012  2.3879
    3SAPS    HB  286   4.364   2.827  10.568 -0.6369 -0.7581 -2.5601
    3SAPS    C2  287   4.171   2.844  10.472 -0.0913  0.5478  0.1417
    3SAPS    HS  288   4.225   2.909  10.401 -1.2324 -0.3249 -1.5878
    3SAPS   O21  289   4.030   2.879  10.488  0.5985  0.4344  0.2286
    3SAPS   C21  290   4.015   3.012  10.490  0.0124  0.7538 -0.2361
    3SAPS   O22  291   4.106   3.094  10.503  0.1187  0.4518 -0.5600
    3SAPS   C22  292   3.866   3.044  10.467  0.2006 -0.3782  0.2263
    3SAPS   H2R  293   3.801   2.992  10.540 -3.4941  1.4507 -1.4947
    3SAPS   H2S  294   3.856   3.155  10.470  0.1429 -0.2539 -2.5262
    3SAPS    C3  295   4.178   2.696  10.410  0.6365 -0.4544  0.2027
    3SAPS    HX  296   4.112   2.638  10.478  0.5946  0.0684  0.6185
    3SAPS    HY  297   4.283   2.665  10.429  0.8741 -0.3463 -0.8919
    3SAPS   O31  298   4.131   2.688  10.274 -0.2227  0.0878  0.3570
    3SAPS   C31  299   4.216   2.726  10.180 -0.4920  0.8821  0.0973
    3SAPS   O32  300   4.335   2.750  10.193 -0.2459 -0.3258 -0.5592
    3SAPS   C32  301   4.139   2.718  10.044  0.4785  0.0319 -0.2157
    3SAPS   H2X  302   4.041   2.766  10.067  1.7147  3.2018 -0.9642
    3SAPS   H2Y  303   4.121   2.610  10.026 -3.1646  0.7897 -1.9490
    3SAPS   C23  304   3.826   2.998  10.330 -0.2001 -0.0946  0.2657
    3SAPS   H3R  305   3.719   3.014  10.303  0.3450  0.5490 -1.6262
    3SAPS   H3S  306   3.837   2.890  10.308 -2.4064 -0.0846 -1.2635
    3SAPS   C24  307   3.891   3.087  10.216  0.1034 -0.0045  0.1564
    3SAPS   H4R  308   4.002   3.090  10.222  0.0655  2.7198  0.8481
    3SAPS   H4S  309   3.852   3.190  10.237 -2.0351 -0.6493 -0.3902
    3SAPS   C25  310   3.851   3.042  10.076 -0.5728 -0.3092  0.3821
    3SAPS   H5R  311   3.783   2.955  10.083 -1.9848  0.4933 -2.1335
    3SAPS   C26  312   3.896   3.094   9.959 -0.1429 -0.7881  0.2135
    3SAPS   H6R  313   3.863   3.038   9.870  1.1956 -0.0690 -0.7756
    3SAPS   C27  314   4.000   3.203   9.936  0.3290  0.1643 -0.2537
    3SAPS   H7R  315   4.100   3.156   9.926 -0.7941 -2.0981 -1.6813
    3SAPS   H7S  316   4.002   3.259  10.032 -0.5505 -1.1341  0.5560
    3SAPS   C28  317   3.950   3.296   9.835 -0.3958 -0.8943  0.6596
    3SAPS   H8R  318   3.878   3.370   9.873 -0.0878 -0.3908  0.2893
    3SAPS   C29  319   3.979   3.308   9.699  0.3776  0.5664 -0.4543
    3SAPS   H9R  320   3.917   3.379   9.643 -1.3052 -0.1906  0.3507
    3SAPS  C210  321   4.057   3.208   9.617 -0.4884  0.0637 -0.0607
    3SAPS  H10R  322   4.078   3.118   9.678 -2.3771  0.0116  0.5825
    3SAPS  H10S  323   4.153   3.257   9.587  1.2707 -2.3831  1.2600
    3SAPS  C211  324   3.989   3.154   9.494 -0.1479  0.0940  0.4670
    3SAPS  H11R  325   3.941   3.055   9.497 -0.1274  0.0223 -1.0392
    3SAPS  C212  326   3.964   3.213   9.379 -0.3501  0.0213  0.3890
    3SAPS  H12R  327   3.907   3.162   9.300 -1.0927  1.1927  0.1428
    3SAPS  C213  328   4.015   3.347   9.339 -0.4815 -0.3510 -0.0639
    3SAPS  H13R  329   4.092   3.376   9.413 -0.6743  0.7125 -0.2660
    3SAPS  H13S  330   3.937   3.423   9.318 -0.6615 -0.5064  0.0444
    3SAPS  C214  331   4.088   3.319   9.204 -0.1592 -0.9161 -0.0678
    3SAPS  H14R  332   4.161   3.236   9.213  1.3306  0.0636 -2.2156
    3SAPS  C215  333   4.081   3.392   9.089  0.4933 -0.0280 -0.3566
    3SAPS  H15R  334   4.138   3.360   9.001  1.6295 -1.1011  0.7203
    3SAPS  C216  335   3.993   3.508   9.067 -0.6495 -0.1061  0.1405
    3SAPS  H16R  336   4.053   3.581   9.008  1.3436 -0.6783  1.3374
    3SAPS  H16S  337   3.966   3.562   9.161 -0.1470  0.3691  0.0171
    3SAPS  C217  338   3.862   3.469   8.995 -0.1079 -0.0461 -0.4117
    3SAPS  H17R  339   3.792   3.430   9.072 -0.5771  1.7503  0.1262
    3SAPS  H17S  340   3.888   3.381   8.932  0.1703 -3.0269  3.4645
    3SAPS  C218  341   3.792   3.585   8.928 -0.3143 -0.6480  0.1777
    3SAPS  H18R  342   3.786   3.676   8.990 -0.5394 -0.5719  0.0441
    3SAPS  H18S  343   3.687   3.559   8.902 -0.4970 -0.5437  0.7927
    3SAPS  C219  344   3.874   3.635   8.798 -0.0672  0.8372 -0.5430
    3SAPS  H19R  345   3.897   3.546   8.736  0.0395  0.6597 -0.2494
    3SAPS  H19S  346   3.976   3.661   8.832  0.6018 -1.2652 -0.7868
    3SAPS  C220  347   3.803   3.746   8.717  0.2332  0.5603 -0.2864
    3SAPS  H20R  348   3.783   3.831   8.786  0.4470 -0.6847  1.3648
    3SAPS  H20S  349   3.708   3.706   8.676 -0.1897  0.3300  0.9074
    3SAPS  H20T  350   3.859   3.785   8.629 -0.5836 -1.7840 -1.9413
    3SAPS   C33  351   4.219   2.790   9.938  0.5969  0.4876  1.0131
    3SAPS   H3X  352   4.308   2.728   9.913  2.0359  2.5464  0.7235
    3SAPS   H3Y  353   4.251   2.888   9.980 -2.4879  1.5513  1.1255
    3SAPS   C34  354   4.140   2.829   9.811 -0.2029  0.1948  0.3211
    3SAPS   H4X  355   4.200   2.904   9.755  0.0286 -1.7116 -2.1472
    3SAPS   H4Y  356   4.042   2.875   9.837  0.1433  2.0462 -1.4082
    3SAPS   C35  357   4.126   2.704   9.722 -0.5038 -1.0171 -0.2153
    3SAPS   H5X  358   4.065   2.635   9.785 -1.8717 -0.1272 -0.5166
    3SAPS   H5Y  359   4.221   2.648   9.713  0.2731 -0.2325  2.2812
    3SAPS   C36  360   4.064   2.726   9.585  0.1103 -0.3788  0.2649
    3SAPS   H6X  361   3.973   2.788   9.592 -0.8888 -1.9737  2.5446
    3SAPS   H6Y  362   4.022   2.639   9.531  1.4104 -0.5854 -0.4636
    3SAPS   C37  363   4.153   2.791   9.486 -0.3273  0.3765  0.2337
    3SAPS   H7X  364   4.248   2.737   9.463  1.5823  3.3339  0.6147
    3SAPS   H7Y  365   4.187   2.890   9.523  3.7144 -0.7112 -0.0793
    3SAPS   C38  366   4.082   2.819   9.352  0.1362  0.5200 -0.3225
    3SAPS   H8X  367   3.997   2.885   9.380 -1.1187 -1.5264  0.9464
    3SAPS   H8Y  368   4.040   2.722   9.318 -0.3457  0.6071  0.0194
    3SAPS   C39  369   4.167   2.887   9.248  0.0073  0.1875  0.1920
    3SAPS   H9X  370   4.249   2.824   9.208  0.0795 -0.0655  0.7319
    3SAPS   H9Y  371   4.211   2.983   9.280  0.1010  1.2596 -2.8196
    3SAPS  C310  372   4.076   2.932   9.132 -0.5389 -0.2503 -0.7880
    3SAPS  H10X  373   4.005   3.011   9.166 -0.0663  0.2928 -1.0341
    3SAPS  H10Y  374   4.009   2.852   9.094 -0.3725 -0.8283  0.1216
    3SAPS  C311  375   4.149   2.991   9.015 -0.4518  0.6947  0.4247
    3SAPS  H11X  376   4.212   2.909   8.975 -0.5598  0.9151 -0.2140
    3SAPS  H11Y  377   4.213   3.072   9.056 -0.7099  1.4927 -0.6983
    3SAPS  C312  378   4.060   3.049   8.911 -0.2511 -0.5584  0.8038
    3SAPS  H12X  379   4.012   3.140   8.952 -0.3883  0.4199 -1.3547
    3SAPS  H12Y  380   3.981   2.976   8.884 -0.7478  0.1001  0.4456
    3SAPS  C313  381   4.135   3.089   8.783  1.2148  0.1759 -0.5510
    3SAPS  H13X  382   4.223   3.149   8.817  1.2507  0.5668 -1.3211
    3SAPS  H13Y  383   4.054   3.145   8.732 -0.8245 -2.4949 -0.4139
    3SAPS  C314  384   4.175   2.981   8.693 -0.8340  0.1662 -0.6546
    3SAPS  H14X  385   4.086   2.920   8.666 -0.6757  0.6957 -2.4821
    3SAPS  H14Y  386   4.228   2.906   8.756 -1.5947  2.1213  2.5155
    3SAPS  C315  387   4.244   3.038   8.567 -1.6756  0.4115  0.2993
    3SAPS  H15X  388   4.299   2.962   8.508 -1.4467  0.0292  0.9927
    3SAPS  H15Y  389   4.308   3.124   8.596 -0.0774  0.2797 -2.5300
    3SAPS  C316  390   4.148   3.093   8.464 -0.6788  0.2875 -0.5246
    3SAPS  H16X  391   4.097   3.180   8.510  0.1838  0.4139  0.2416
    3SAPS  H16Y  392   4.068   3.018   8.447  0.5796 -0.7714 -2.1120
    3SAPS  C317  393   4.207   3.138   8.333 -0.5362 -0.2090 -0.3952
    3SAPS  H17X  394   4.318   3.135   8.341 -0.6509 -2.4719  1.2301
    3SAPS  H17Y  395   4.172   3.243   8.322  1.5940  0.7573  1.2280
    3SAPS  C318  396   4.162   3.054   8.216  0.1389  0.3380 -0.1062
    3SAPS  H18X  397   4.168   2.944   8.231  0.6816  0.6232  2.2326
    3SAPS  H18Y  398   4.224   3.076   8.127 -2.5426 -1.3286 -2.5229
    3SAPS  H18Z  399   4.056   3.072   8.190 -0.4551 -0.5100  1.5241
    4SAPS     N  400   6.838   3.817  10.722 -0.6563 -0.7061  0.0381
    4SAPS   HN1  401   6.794   3.776  10.806 -0.5517  2.1724  1.6235
    4SAPS   HN2  402   6.766   3.873  10.672 -2.1481 -0.3653  2.4232
    4SAPS   HN3  403   6.884   3.751  10.656  0.1706  0.1859 -0.2973
    4SAPS   C12  404   6.944   3.912  10.775 -0.4001 -0.1948 -0.0438
    4SAPS  H12A  405   6.896   3.982  10.842  0.5575 -0.2337  0.7086
    4SAPS   C13  406   7.064   3.849  10.850  0.1685 -0.1275  0.4363
    4SAPS  O13A  407   7.091   3.726  10.830 -0.2135 -0.2683  0.2676
    4SAPS  O13B  408   7.153   3.929  10.885  0.0287  0.1078 -0.1261
    4SAPS   C11  409   6.991   4.003  10.659 -0.9445  0.3179 -0.3061
    4SAPS  H11A  410   7.078   3.961  10.603  0.8673  1.7605  1.2669
    4SAPS  H11B  411   7.038   4.095  10.700 -2.5766  1.7631 -1.5150
    4SAPS     P  412   6.898   4.089  10.422  0.2159  0.2551 -0.4351
    4SAPS   O13  413   6.805   4.200  10.394  0.6604  0.1577 -0.0470
    4SAPS   O14  414   7.041   4.132  10.424 -0.0687 -0.0929  0.3479
    4SAPS   O12  415   6.883   4.048  10.574  0.3039  0.6143  0.2463
    4SAPS   O11  416   6.876   3.961  10.335 -0.0059 -0.4511  0.0049
    4SAPS    C1  417   6.743   3.904  10.331 -0.8826 -0.6300  0.6660
    4SAPS    HA  418   6.737   3.816  10.399  0.9041 -1.1150  0.2395
    4SAPS    HB  419   6.670   3.971  10.381  0.9983 -0.5196  3.5476
    4SAPS    C2  420   6.704   3.863  10.188  0.0009 -0.6465 -0.4008
    4SAPS    HS  421   6.604   3.817  10.207  0.0395 -0.6221 -0.1235
    4SAPS   O21  422   6.796   3.778  10.128 -0.3377 -0.6863  0.3657
    4SAPS   C21  423   6.751   3.677  10.056 -0.2886 -0.2699 -0.0310
    4SAPS   O22  424   6.632   3.651  10.042  0.3471  0.6932 -0.5356
    4SAPS   C22  425   6.869   3.598  10.007  0.4639  0.5007  0.5873
    4SAPS   H2R  426   6.946   3.663   9.959 -1.2649  2.1110 -0.1680
    4SAPS   H2S  427   6.926   3.565  10.096  0.9754 -0.0185  0.0787
    4SAPS    C3  428   6.685   3.983  10.089  0.2651 -0.3370 -0.1926
    4SAPS    HX  429   6.782   4.035  10.079  1.6966 -2.3229  2.2197
    4SAPS    HY  430   6.605   4.052  10.125  0.0959  0.6045 -2.2399
    4SAPS   O31  431   6.666   3.930   9.956  0.1402 -0.5158 -0.5508
    4SAPS   C31  432   6.562   3.959   9.897  0.6038  0.7804 -0.1661
    4SAPS   O32  433   6.465   4.024   9.936 -0.3469 -0.0803 -0.8494
    4SAPS   C32  434   6.573   3.906   9.754 -0.6291  0.2468  0.5262
    4SAPS   H2X  435   6.543   3.799   9.762 -1.4809  0.5702  2.3530
    4SAPS   H2Y  436   6.679   3.914   9.724 -1.0000  0.4862 -0.7861
    4SAPS   C23  437   6.832   3.472   9.923 -0.5133 -0.3577  0.8933
    4SAPS   H3R  438   6.741   3.425   9.966 -1.3129  0.8902  0.6103
    4SAPS   H3S  439   6.918   3.402   9.932 -0.2041  0.1230  1.7174
    4SAPS   C24  440   6.800   3.497   9.771  0.4886  0.5446 -0.4450
    4SAPS   H4R  441   6.709   3.560   9.757  1.2555  2.2585  1.7371
    4SAPS   H4S  442   6.774   3.393   9.741 -0.6175  0.8983 -0.7777
    4SAPS   C25  443   6.916   3.550   9.693 -1.0290 -0.8736  0.2656
    4SAPS   H5R  444   7.018   3.534   9.731 -0.7080 -0.3740 -0.3571
    4SAPS   C26  445   6.911   3.624   9.580 -0.0808  0.0804 -0.2468
    4SAPS   H6R  446   6.999   3.655   9.521  1.3723 -1.2119  1.1556
    4SAPS   C27  447   6.781   3.659   9.519 -0.5458 -0.4945 -0.2542
    4SAPS   H7R  448   6.706   3.714   9.580 -1.7705 -0.7011 -1.5329
    4SAPS   H7S  449   6.728   3.568   9.486 -0.0587 -0.1977 -1.9363
    4SAPS   C28  450   6.788   3.754   9.403 -0.2039  0.2313  0.6753
    4SAPS   H8R  451   6.855   3.840   9.417 -1.2332  1.2401 -0.3652
    4SAPS   C29  452   6.717   3.755   9.287  0.4195 -0.1007 -0.7000
    4SAPS   H9R  453   6.746   3.830   9.211  0.6741 -0.0039 -0.5077
    4SAPS  C210  454   6.607   3.656   9.243 -0.3808  0.2059 -0.0639
    4SAPS  H10R  455   6.527   3.699   9.180 -1.9541 -2.2571  0.1408
    4SAPS  H10S  456   6.553   3.630   9.336 -1.2642  1.9414 -0.0522
    4SAPS  C211  457   6.666   3.530   9.178  0.0914 -0.3728 -0.0281
    4SAPS  H11R  458   6.739   3.482   9.244 -0.6788 -1.8105 -0.1692
    4SAPS  C212  459   6.629   3.474   9.059  0.2079 -0.2990 -0.2565
    4SAPS  H12R  460   6.687   3.388   9.024 -2.5771 -2.2102 -0.5277
    4SAPS  C213  461   6.529   3.524   8.956  0.3018  0.6076  0.1816
    4SAPS  H13R  462   6.432   3.536   9.008 -1.1933  0.5385 -2.4166
    4SAPS  H13S  463   6.513   3.440   8.886  1.3160  1.5239 -1.2100
    4SAPS  C214  464   6.571   3.648   8.882  0.2267 -0.0640 -0.5888
    4SAPS  H14R  465   6.668   3.695   8.902  1.4892 -2.7397  0.0099
    4SAPS  C215  466   6.486   3.721   8.808 -0.5639  0.6869  0.5707
    4SAPS  H15R  467   6.523   3.796   8.736  0.9026 -2.1171 -1.8270
    4SAPS  C216  468   6.343   3.696   8.779 -0.4355  0.3998 -0.5689
    4SAPS  H16R  469   6.285   3.761   8.848 -1.0238  0.8545 -1.4583
    4SAPS  H16S  470   6.307   3.592   8.791 -0.5567  0.3287 -1.4624
    4SAPS  C217  471   6.300   3.731   8.637 -0.7310 -0.9000  0.0683
    4SAPS  H17R  472   6.358   3.676   8.560 -0.6587  1.2187 -1.4890
    4SAPS  H17S  473   6.322   3.840   8.627 -0.7992 -0.4711  3.5081
    4SAPS  C218  474   6.151   3.701   8.625 -0.5836  0.3603 -0.0417
    4SAPS  H18R  475   6.096   3.780   8.681  2.8828  1.9401  1.4621
    4SAPS  H18S  476   6.134   3.597   8.658 -2.5551  0.0105 -1.9214
    4SAPS  C219  477   6.110   3.708   8.478  0.1880  0.2547 -0.1487
    4SAPS  H19R  478   6.186   3.642   8.429  0.5806  0.4502  0.1892
    4SAPS  H19S  479   6.128   3.803   8.424  2.0174 -0.6647 -1.2950
    4SAPS  C220  480   5.967   3.657   8.445 -0.1249 -0.2474 -0.0996
    4SAPS  H20R  481   5.956   3.548   8.466  1.7276 -0.6568 -1.0324
    4SAPS  H20S  482   5.955   3.667   8.335  0.6075 -0.4622 -0.2053
    4SAPS  H20T  483   5.895   3.715   8.507  0.1976 -0.9596  0.9798
    4SAPS   C33  484   6.483   3.980   9.658 -0.1612 -0.4183 -0.0395
    4SAPS   H3X  485   6.472   4.089   9.675 -0.3351 -0.4596  0.1222
    4SAPS   H3Y  486   6.376   3.953   9.674 -0.7060  0.5372 -1.8265
    4SAPS   C34  487   6.524   3.948   9.514 -0.0574 -0.3631  0.2719
    4SAPS   H4X  488   6.519   3.839   9.492 -2.1728  0.0179 -1.4616
    4SAPS   H4Y  489   6.627   3.984   9.492  0.2285  0.1957  2.3547
    4SAPS   C35  490   6.426   4.015   9.412 -1.0453  0.0812  0.2665
    4SAPS   H5X  491   6.427   4.123   9.434 -0.9292 -0.0895  1.1377
    4SAPS   H5Y  492   6.325   3.979   9.439 -0.6737  0.1222  1.8013
    4SAPS   C36  493   6.455   3.999   9.262  0.3353 -0.2312 -0.2845
    4SAPS   H6X  494   6.453   3.894   9.226  1.5139 -0.2483 -0.3435
    4SAPS   H6Y  495   6.548   4.051   9.230 -0.9428  2.5758  0.2976
    4SAPS   C37  496   6.348   4.076   9.187  0.2320  0.0292 -0.0610
    4SAPS   H7X  497   6.381   4.096   9.083 -0.0932 -0.5266 -0.2751
    4SAPS   H7Y  498   6.335   4.175   9.237  1.5191 -0.2889  0.9373
    4SAPS   C38  499   6.210   4.010   9.177  0.5125  0.3248 -0.5136
    4SAPS   H8X  500   6.170   4.006   9.280  0.3038 -4.2734 -0.5659
    4SAPS   H8Y  501   6.228   3.902   9.157  0.9977  0.2840  0.1256
    4SAPS   C39  502   6.117   4.084   9.072  0.7033  0.4482  0.6738
    4SAPS   H9X  503   6.019   4.032   9.082  0.0318  1.8234  1.4656
    4SAPS   H9Y  504   6.158   4.081   8.969  2.3571 -0.0911  1.3078
    4SAPS  C310  505   6.094   4.232   9.099  0.0326 -1.2958  0.4931
    4SAPS  H10X  506   6.193   4.281   9.095 -1.2936  1.5228 -2.8857
    4SAPS  H10Y  507   6.040   4.250   9.194 -2.5353  0.4242 -1.1798
    4SAPS  C311  508   6.030   4.302   8.980 -0.2190  0.5690 -0.2564
    4SAPS  H11X  509   6.070   4.265   8.883  0.1476  0.6875 -0.1544
    4SAPS  H11Y  510   6.070   4.405   8.995  3.0593 -0.6333  0.1357
    4SAPS  C312  511   5.878   4.316   8.972  0.2883  0.7058 -0.2973
    4SAPS  H12X  512   5.838   4.214   8.953  1.4008  0.4916 -1.5934
    4SAPS  H12Y  513   5.850   4.380   8.885 -1.5406 -0.3214 -0.5177
    4SAPS  C313  514   5.812   4.372   9.102 -0.3009  0.9443  0.5365
    4SAPS  H13X  515   5.858   4.469   9.134  0.9118  0.8526 -0.8306
    4SAPS  H13Y  516   5.831   4.303   9.187  0.7129  0.9562  0.3322
    4SAPS  C314  517   5.657   4.391   9.090 -0.0219 -0.1429 -0.7567
    4SAPS  H14X  518   5.637   4.448   8.997  0.1858 -0.9238 -1.2947
    4SAPS  H14Y  519   5.611   4.440   9.178  0.8913  1.0805 -0.9421
    4SAPS  C315  520   5.582   4.250   9.066 -0.0005 -0.1508 -0.0685
    4SAPS  H15X  521   5.596   4.172   9.143  0.4708 -2.2460 -2.1673
    4SAPS  H15Y  522   5.614   4.215   8.965  0.2327 -0.4733  0.1167
    4SAPS  C316  523   5.433   4.272   9.037 -0.5729 -0.1642 -0.0742
    4SAPS  H16X  524   5.421   4.352   8.961 -2.3780 -0.6102 -0.3068
    4SAPS  H16Y  525   5.390   4.313   9.131 -1.8080 -0.9253 -0.2933
    4SAPS  C317  526   5.352   4.158   8.987 -0.3819  0.3041  0.0834
    4SAPS  H17X  527   5.245   4.186   8.968 -0.3626  0.8603  0.7543
    4SAPS  H17Y  528   5.355   4.071   9.056 -0.5605 -0.9403 -1.4232
    4SAPS  C318  529   5.408   4.103   8.852  0.4122  0.2873  0.8923
    4SAPS  H18X  530   5.329   4.038   8.809  0.7069  0.7505 -0.4058
    4SAPS  H18Y  531   5.486   4.028   8.877 -1.0044 -2.1099 -1.4300
    4SAPS  H18Z  532   5.431   4.180   8.775  0.0946 -1.4480 -1.0287
    5SAPS     N  533   4.989   3.610  10.591 -0.8707 -0.1911  0.0211
    5SAPS   HN1  534   5.015   3.685  10.524  0.0483  1.0837  1.7360
    5SAPS   HN2  535   5.053   3.529  10.590 -1.0617 -0.3423 -0.8554
    5SAPS   HN3  536   4.895   3.574  10.563 -1.8188  0.3895  2.2457
    5SAPS   C12  537   4.976   3.655  10.728 -0.3122 -0.7645 -0.5218
    5SAPS  H12A  538   4.947   3.759  10.724 -2.0948 -1.2369 -0.7413
    5SAPS   C13  539   4.873   3.583  10.811 -0.2277  0.2922 -0.0897
    5SAPS  O13A  540   4.816   3.476  10.766 -0.1278 -0.2921  0.1869
    5SAPS  O13B  541   4.845   3.619  10.928  0.2094  0.1890  0.3504
    5SAPS   C11  542   5.110   3.637  10.808  0.6690 -0.8700  0.5200
    5SAPS  H11A  543   5.139   3.530  10.812  0.8880 -0.8635 -0.5303
    5SAPS  H11B  544   5.096   3.675  10.912  4.3746 -0.9565  1.2028
    5SAPS     P  545   5.338   3.746  10.822  0.3153  0.2585  0.2863
    5SAPS   O13  546   5.302   3.831  10.938  0.1328  0.4300  0.1879
    5SAPS   O14  547   5.406   3.615  10.850 -0.5461 -0.0036  0.2727
    5SAPS   O12  548   5.208   3.716  10.745 -0.5501  0.0632  0.5478
    5SAPS   O11  549   5.428   3.829  10.722 -0.2866  0.0549  0.3184
    5SAPS    C1  550   5.383   3.903  10.612  0.5044 -0.6002  0.1854
    5SAPS    HA  551   5.291   3.956  10.644  1.3537  0.7095  0.5126
    5SAPS    HB  552   5.460   3.979  10.587  0.4806 -0.8270 -0.6001
    5SAPS    C2  553   5.356   3.810  10.486 -0.0546  0.4957  0.7820
    5SAPS    HS  554   5.287   3.726  10.510 -1.0651  0.6172 -1.4168
    5SAPS   O21  555   5.493   3.765  10.438  0.6829 -0.2648 -0.1322
    5SAPS   C21  556   5.500   3.640  10.401 -0.4505 -0.5305  0.2601
    5SAPS   O22  557   5.407   3.559  10.418 -0.0859  0.1399  0.6148
    5SAPS   C22  558   5.635   3.605  10.344 -0.2026  0.4779  0.1330
    5SAPS   H2R  559   5.710   3.630  10.422  0.5808  1.3567 -0.8672
    5SAPS   H2S  560   5.631   3.495  10.334 -2.1148  0.6060 -1.1279
    5SAPS    C3  561   5.294   3.893  10.373  1.0023  0.8022  0.5211
    5SAPS    HX  562   5.358   3.982  10.355  0.5767  0.8972 -0.5596
    5SAPS    HY  563   5.196   3.935  10.406  1.3976  2.3241 -0.1445
    5SAPS   O31  564   5.278   3.817  10.248  0.2986 -0.2929  0.1902
    5SAPS   C31  565   5.160   3.749  10.251  0.6754 -0.3803 -0.6500
    5SAPS   O32  566   5.083   3.753  10.347 -0.3422  0.6820 -0.7505
    5SAPS   C32  567   5.126   3.679  10.123  0.7505  0.6867 -0.0046
    5SAPS   H2X  568   5.016   3.680  10.113  0.8794 -0.1317 -1.8162
    5SAPS   H2Y  569   5.149   3.570  10.128 -2.6417 -0.0958  0.7415
    5SAPS   C23  570   5.691   3.683  10.222 -0.9170 -0.8620 -0.0657
    5SAPS   H3R  571   5.799   3.708  10.234 -1.4005  1.6846 -0.4624
    5SAPS   H3S  572   5.634   3.776  10.204 -0.3955 -0.6213 -0.5111
    5SAPS   C24  573   5.671   3.597  10.090  0.0701  0.0508 -0.2257
    5SAPS   H4R  574   5.560   3.599  10.079 -0.1145 -0.0644  1.4152
    5SAPS   H4S  575   5.690   3.490  10.114 -2.6172  0.0138  2.3140
    5SAPS   C25  576   5.760   3.645   9.982  0.1887  0.5161  0.6077
    5SAPS   H5R  577   5.864   3.646  10.016 -0.3247 -0.0055  2.3153
    5SAPS   C26  578   5.721   3.689   9.857 -0.2734  0.2839  0.2004
    5SAPS   H6R  579   5.799   3.720   9.787  0.4820 -0.6827  0.5897
    5SAPS   C27  580   5.580   3.704   9.812 -0.6625 -0.6952  0.4648
    5SAPS   H7R  581   5.506   3.647   9.872  0.9224  0.4648  3.7348
    5SAPS   H7S  582   5.572   3.665   9.708  0.2595 -0.6449  0.3686
    5SAPS   C28  583   5.537   3.856   9.807  0.2231  0.8438 -0.3614
    5SAPS   H8R  584   5.486   3.889   9.898 -1.8604  0.4136 -1.3198
    5SAPS   C29  585   5.543   3.933   9.699  0.9792 -0.4930  0.2199
    5SAPS   H9R  586   5.517   4.040   9.706  0.0282 -0.8062  1.7949
    5SAPS  C210  587   5.603   3.885   9.569  0.1269  0.7884 -0.3576
    5SAPS  H10R  588   5.572   3.779   9.555  1.8361  0.2290 -0.1170
    5SAPS  H10S  589   5.712   3.868   9.582  0.1610  2.4235  2.0058
    5SAPS  C211  590   5.583   3.971   9.444  0.7120  0.4267 -0.2468
    5SAPS  H11R  591   5.585   4.079   9.468 -1.0254  0.4950 -0.2653
    5SAPS  C212  592   5.539   3.934   9.321  0.2486  0.2182 -0.0961
    5SAPS  H12R  593   5.530   4.006   9.238 -2.3364  0.5148  0.3760
    5SAPS  C213  594   5.517   3.796   9.273  0.4323 -0.5461 -0.2120
    5SAPS  H13R  595   5.443   3.746   9.340  0.9088  1.4121  1.9034
    5SAPS  H13S  596   5.609   3.734   9.286  0.8578 -0.6363 -3.0407
    5SAPS  C214  597   5.471   3.784   9.123 -0.0118  0.4899 -0.3808
    5SAPS  H14R  598   5.371   3.741   9.116  0.7112 -1.5837  0.9260
    5SAPS  C215  599   5.550   3.794   9.017 -0.0369 -0.2466 -0.7415
    5SAPS  H15R  600   5.512   3.780   8.915  1.4636 -1.2140 -1.1967
    5SAPS  C216  601   5.696   3.817   9.025 -0.5852 -0.5155 -0.3447
    5SAPS  H16R  602   5.738   3.722   8.986 -0.2331  0.0450 -1.3514
    5SAPS  H16S  603   5.740   3.839   9.125 -1.2370  2.2696 -0.5879
    5SAPS  C217  604   5.754   3.925   8.927  0.9887  0.0293 -0.4605
    5SAPS  H17R  605   5.861   3.930   8.958  0.5650 -2.0652  1.6602
    5SAPS  H17S  606   5.715   4.028   8.943  0.8658  0.2056 -1.7963
    5SAPS  C218  607   5.752   3.887   8.782  0.4353  0.0824  0.9140
    5SAPS  H18R  608   5.828   3.813   8.750 -1.2659 -1.3237 -0.1121
    5SAPS  H18S  609   5.657   3.831   8.769  1.8045 -2.8252  2.4588
    5SAPS  C219  610   5.765   4.006   8.687  0.0569  0.2766  0.8455
    5SAPS  H19R  611   5.871   4.037   8.700  0.4635  0.5307 -2.1878
    5SAPS  H19S  612   5.708   4.100   8.706  1.6504  1.3753  0.4641
    5SAPS  C220  613   5.735   3.974   8.543  0.0710 -0.2806  0.1846
    5SAPS  H20R  614   5.627   3.948   8.535 -0.1800  0.7832 -0.0290
    5SAPS  H20S  615   5.811   3.899   8.511  1.4902  1.9567 -2.0312
    5SAPS  H20T  616   5.752   4.064   8.479 -1.7527 -0.1976 -0.2344
    5SAPS   C33  617   5.198   3.742  10.005  0.1602  0.7968 -0.0475
    5SAPS   H3X  618   5.307   3.736  10.029  0.2594  3.5699  0.5057
    5SAPS   H3Y  619   5.167   3.845   9.979  0.4154  0.2532 -2.8070
    5SAPS   C34  620   5.176   3.645   9.888 -0.1485  1.0617 -0.3424
    5SAPS   H4X  621   5.066   3.633   9.880 -0.1532 -0.9789  1.8643
    5SAPS   H4Y  622   5.225   3.546   9.899 -3.4482 -0.3905  4.5185
    5SAPS   C35  623   5.214   3.705   9.751  0.4756 -0.4291 -0.5982
    5SAPS   H5X  624   5.318   3.741   9.738 -0.9732  4.1763 -1.1512
    5SAPS   H5Y  625   5.157   3.800   9.744  1.5452  0.2486 -0.2354
    5SAPS   C36  626   5.167   3.608   9.640 -0.0017  0.0515  0.2785
    5SAPS   H6X  627   5.057   3.589   9.642 -0.0564  0.4533  1.4669
    5SAPS   H6Y  628   5.216   3.508   9.631 -0.6256 -0.1743 -0.8619
    5SAPS   C37  629   5.181   3.674   9.505 -0.2009  0.0511  0.9360
    5SAPS   H7X  630   5.283   3.713   9.484 -1.1489  3.1037  1.6228
    5SAPS   H7Y  631   5.110   3.759   9.505 -0.0291  0.2188 -0.3480
    5SAPS   C38  632   5.141   3.571   9.384 -0.0468 -0.4170 -0.5361
    5SAPS   H8X  633   5.049   3.522   9.424 -1.5334  1.4523 -1.5521
    5SAPS   H8Y  634   5.225   3.498   9.385  0.7527  0.4765 -1.7045
    5SAPS   C39  635   5.112   3.625   9.250  0.4583 -0.1743  0.0675
    5SAPS   H9X  636   5.212   3.637   9.204  0.4534  0.0071  0.1034
    5SAPS   H9Y  637   5.058   3.722   9.245 -0.5184 -0.7433 -1.4507
    5SAPS  C310  638   5.040   3.522   9.159  0.4501 -0.7135  0.3107
    5SAPS  H10X  639   4.933   3.518   9.187  0.2302 -0.6673 -0.4961
    5SAPS  H10Y  640   5.088   3.424   9.180  2.6183  0.3511  0.6600
    5SAPS  C311  641   5.066   3.567   9.012 -0.6747  0.3640  0.0126
    5SAPS  H11X  642   5.168   3.528   8.989 -0.7382  0.0700  0.2174
    5SAPS  H11Y  643   5.055   3.677   9.002  0.3370  0.3555 -1.4857
    5SAPS  C312  644   4.964   3.495   8.922  0.6606 -0.6990  0.2558
    5SAPS  H12X  645   4.859   3.508   8.956 -0.1691 -1.5378 -1.8296
    5SAPS  H12Y  646   4.971   3.384   8.919 -0.4467 -0.8479  2.0206
    5SAPS  C313  647   4.972   3.540   8.770  0.3912 -0.2568 -0.2672
    5SAPS  H13X  648   4.907   3.465   8.719 -1.8914  0.4423  1.4114
    5SAPS  H13Y  649   5.076   3.519   8.740 -0.0350 -2.1271 -0.5972
    5SAPS  C314  650   4.934   3.684   8.737 -0.0674  0.2529  0.7259
    5SAPS  H14X  651   4.978   3.770   8.792 -1.9344  2.1062 -0.5099
    5SAPS  H14Y  652   4.825   3.696   8.752 -0.0639 -1.1491  2.0649
    5SAPS  C315  653   4.971   3.714   8.592 -0.1164  0.3187 -0.6894
    5SAPS  H15X  654   4.916   3.808   8.571 -0.8908 -0.1770 -0.9070
    5SAPS  H15Y  655   4.919   3.652   8.515 -1.0151  0.4374 -0.1949
    5SAPS  C316  656   5.124   3.736   8.553  0.0016 -0.3231  0.0340
    5SAPS  H16X  657   5.185   3.646   8.529 -0.7341 -0.7137 -0.4387
    5SAPS  H16Y  658   5.171   3.788   8.639  0.5844 -1.6209  0.5408
    5SAPS  C317  659   5.141   3.838   8.430  1.0281 -0.3429 -0.1139
    5SAPS  H17X  660   5.086   3.930   8.460 -1.3166 -1.2194 -1.4378
    5SAPS  H17Y  661   5.082   3.803   8.342 -0.7433  2.3923 -0.1329
    5SAPS  C318  662   5.286   3.866   8.391 -0.7257 -0.9385 -0.2575
    5SAPS  H18X  663   5.288   3.940   8.309 -1.2223  0.3420  0.8417
    5SAPS  H18Y  664   5.337   3.774   8.356 -1.3948 -1.5283  0.2770
    5SAPS  H18Z  665   5.332   3.913   8.481  0.7415 -1.5288 -0.6689
    6SAPS     N  666   3.150   1.023  10.836  0.5638  0.2655  0.3043
    6SAPS   HN1  667   3.205   1.013  10.924 -1.4910 -0.1912  1.5980
    6SAPS   HN2  668   3.147   1.120  10.801 -1.0346  0.4486  0.8755
    6SAPS   HN3  669   3.052   0.994  10.853  0.8462 -2.0370 -1.3642
    6SAPS   C12  670   3.202   0.933  10.723  0.4635  0.5501 -0.6117
    6SAPS  H12A  671   3.296   0.977  10.695  0.4111 -0.3825 -2.3673
    6SAPS   C13  672   3.220   0.781  10.759 -0.1083 -0.8081  0.2783
    6SAPS  O13A  673   3.172   0.742  10.871 -0.5371  0.2975 -0.1155
    6SAPS  O13B  674   3.248   0.696  10.663  0.1398 -0.2018  0.0745
    6SAPS   C11  675   3.100   0.932  10.602  0.1304  0.0813 -0.2219
    6SAPS  H11A  676   3.149   0.879  10.517 -0.9064  1.7055 -1.9208
    6SAPS  H11B  677   3.081   1.035  10.564  0.6367  0.0001 -0.7124
    6SAPS     P  678   2.841   0.943  10.686  0.0742  0.0328 -0.2879
    6SAPS   O13  679   2.735   0.838  10.688 -0.3990  0.7243 -0.1080
    6SAPS   O14  680   2.880   0.998  10.819 -0.0389 -0.7016 -0.0884
    6SAPS   O12  681   2.967   0.875  10.621  0.6878 -0.3832 -0.0035
    6SAPS   O11  682   2.810   1.056  10.583  0.9956  0.3066 -0.4731
    6SAPS    C1  683   2.727   1.033  10.469 -0.1990  0.4286  0.1053
    6SAPS    HA  684   2.754   0.940  10.415 -0.5856 -0.5127  1.4795
    6SAPS    HB  685   2.620   1.026  10.498  0.1355 -1.9206  0.9387
    6SAPS    C2  686   2.739   1.146  10.365 -0.5782 -0.6663  0.0343
    6SAPS    HS  687   2.847   1.159  10.344 -0.6459 -0.1062  0.0104
    6SAPS   O21  688   2.670   1.269  10.418  0.8506  0.7619 -0.3911
    6SAPS   C21  689   2.710   1.386  10.368 -0.9414  0.2647 -0.2995
    6SAPS   O22  690   2.808   1.397  10.292 -0.4345 -0.7547  0.2787
    6SAPS   C22  691   2.617   1.505  10.402  0.3180 -0.4175  0.3827
    6SAPS   H2R  692   2.609   1.507  10.513 -0.5987 -0.4373  0.3200
    6SAPS   H2S  693   2.669   1.599  10.374 -1.7417  0.3733 -1.0584
    6SAPS    C3  694   2.665   1.102  10.232  0.6361  0.0872  0.5141
    6SAPS    HX  695   2.556   1.107  10.250  0.2525 -1.2739 -1.0763
    6SAPS    HY  696   2.687   0.994  10.214 -2.1580 -0.7311  1.4466
    6SAPS   O31  697   2.703   1.187  10.119 -0.0762  0.2205 -0.2570
    6SAPS   C31  698   2.824   1.155  10.069  0.8120 -0.0039 -0.3210
    6SAPS   O32  699   2.896   1.072  10.112 -0.0310 -0.1434  0.3003
    6SAPS   C32  700   2.850   1.255   9.955  0.5606  0.6721 -0.1812
    6SAPS   H2X  701   2.952   1.296   9.972  0.2358  1.0444  0.9498
    6SAPS   H2Y  702   2.784   1.344   9.956 -1.5186 -0.7750 -1.1012
    6SAPS   C23  703   2.490   1.512  10.322  0.6376  0.8691 -0.5436
    6SAPS   H3R  704   2.416   1.573  10.378 -0.4113 -0.6815 -0.1768
    6SAPS   H3S  705   2.440   1.413  10.321  0.9753  0.6985 -0.8033
    6SAPS   C24  706   2.489   1.568  10.182  0.1054 -0.1744  0.1810
    6SAPS   H4R  707   2.527   1.673  10.178 -0.6534  0.2259  2.1213
    6SAPS   H4S  708   2.379   1.581  10.176 -0.2445 -0.3962  3.6903
    6SAPS   C25  709   2.537   1.479  10.071  0.1752  0.4824 -0.9824
    6SAPS   H5R  710   2.550   1.374  10.099 -2.1190 -0.3909 -2.8525
    6SAPS   C26  711   2.544   1.510   9.938  1.0939 -0.2565 -0.6107
    6SAPS   H6R  712   2.569   1.435   9.862  0.5786 -2.0532  0.9028
    6SAPS   C27  713   2.506   1.644   9.879  0.4651  0.0844  0.8128
    6SAPS   H7R  714   2.596   1.671   9.818 -0.0904  0.7038  0.2437
    6SAPS   H7S  715   2.505   1.721   9.959  0.4225  2.6738 -1.5217
    6SAPS   C28  716   2.380   1.636   9.798 -0.4369 -0.0396  0.1906
    6SAPS   H8R  717   2.295   1.679   9.854 -0.4059  0.8052 -0.3784
    6SAPS   C29  718   2.369   1.593   9.672 -0.6505 -0.0562 -0.2606
    6SAPS   H9R  719   2.270   1.590   9.623 -0.6633  0.5816 -0.2816
    6SAPS  C210  720   2.484   1.538   9.588 -0.8086 -0.2756 -0.9067
    6SAPS  H10R  721   2.448   1.471   9.507  0.4978 -3.1307  0.6924
    6SAPS  H10S  722   2.558   1.475   9.642 -0.1604  0.9344 -0.3390
    6SAPS  C211  723   2.557   1.659   9.525  0.7631 -0.0485  0.4740
    6SAPS  H11R  724   2.554   1.755   9.579 -0.2873 -0.8219  1.8717
    6SAPS  C212  725   2.614   1.656   9.406  0.0435  0.4173  0.6369
    6SAPS  H12R  726   2.661   1.750   9.374  1.6476  0.0442  1.7560
    6SAPS  C213  727   2.630   1.539   9.306 -0.0210 -0.7371 -0.0893
    6SAPS  H13R  728   2.612   1.443   9.358  1.4761 -1.1984 -0.3724
    6SAPS  H13S  729   2.737   1.532   9.275  0.0841 -1.2924  0.3938
    6SAPS  C214  730   2.528   1.554   9.198  0.0953 -0.5298  0.3981
    6SAPS  H14R  731   2.431   1.509   9.222 -1.4574  2.3142 -0.1065
    6SAPS  C215  732   2.551   1.595   9.072  0.5480 -0.0493 -0.1525
    6SAPS  H15R  733   2.473   1.606   8.995 -1.6549 -1.1406  1.7957
    6SAPS  C216  734   2.680   1.647   9.017  0.2723  0.0049 -0.9526
    6SAPS  H16R  735   2.743   1.560   8.991  0.7184 -0.6616  1.9805
    6SAPS  H16S  736   2.735   1.688   9.104  1.1762 -1.5912 -0.7458
    6SAPS  C217  737   2.672   1.755   8.911 -0.5906 -0.2660  0.0618
    6SAPS  H17R  738   2.589   1.821   8.945 -1.8887 -1.2926 -0.9567
    6SAPS  H17S  739   2.640   1.698   8.821 -2.2468 -0.5906  0.8006
    6SAPS  C218  740   2.791   1.847   8.889 -0.0226  0.1966 -0.6637
    6SAPS  H18R  741   2.798   1.910   8.981 -1.5013 -0.4496 -0.0776
    6SAPS  H18S  742   2.778   1.901   8.793  1.3005 -0.6707 -1.3610
    6SAPS  C219  743   2.929   1.785   8.869 -0.3020  0.0253 -0.1072
    6SAPS  H19R  744   2.947   1.726   8.961 -0.3469 -2.3797 -1.5438
    6SAPS  H19S  745   3.004   1.866   8.863 -2.1357  1.7596 -0.9919
    6SAPS  C220  746   2.948   1.690   8.748 -0.0970 -0.1571  0.0924
    6SAPS  H20R  747   3.043   1.632   8.745 -0.7723 -1.4006  1.3756
    6SAPS  H20S  748   2.952   1.739   8.648  1.4857 -0.9486 -0.2649
    6SAPS  H20T  749   2.868   1.614   8.747  0.2869 -0.5649 -0.0975
    6SAPS   C33  750   2.849   1.178   9.818  0.5936  0.9050 -0.0743
    6SAPS   H3X  751   2.743   1.152   9.796  0.7168 -0.4281  0.8079
    6SAPS   H3Y  752   2.914   1.088   9.816  1.3557  1.3948  1.3061
    6SAPS   C34  753   2.897   1.274   9.710 -0.0468  0.3360  0.2016
    6SAPS   H4X  754   2.993   1.315   9.749  0.0740  0.7477 -0.5074
    6SAPS   H4Y  755   2.832   1.362   9.693  1.3813  1.1804 -1.2559
    6SAPS   C35  756   2.927   1.198   9.578  0.2562  0.3751  0.7810
    6SAPS   H5X  757   2.837   1.134   9.565  0.2797  0.1583  1.6109
    6SAPS   H5Y  758   3.014   1.130   9.575 -0.0266  0.0479 -1.7931
    6SAPS   C36  759   2.950   1.297   9.462  0.2137  0.2383 -0.2502
    6SAPS   H6X  760   3.037   1.364   9.475  0.1782 -0.1096  2.2424
    6SAPS   H6Y  761   2.853   1.351   9.466 -0.8491 -1.4574 -1.7258
    6SAPS   C37  762   2.970   1.232   9.327  0.0307  0.0075 -0.0255
    6SAPS   H7X  763   2.885   1.161   9.320 -0.2909  0.4699 -1.0831
    6SAPS   H7Y  764   3.060   1.167   9.322 -1.3303 -1.8715 -1.1808
    6SAPS   C38  765   2.967   1.333   9.211  0.5837 -0.1001 -0.2195
    6SAPS   H8X  766   3.061   1.391   9.214  0.0111  0.8170  0.4354
    6SAPS   H8Y  767   2.876   1.394   9.226 -0.3375 -1.8363  2.0427
    6SAPS   C39  768   2.961   1.265   9.072  0.6547 -0.1987  0.0774
    6SAPS   H9X  769   2.937   1.344   8.998  1.0478 -0.1581 -0.0093
    6SAPS   H9Y  770   2.883   1.185   9.069  2.2688 -1.9794  2.3154
    6SAPS  C310  771   3.093   1.199   9.043  0.7412 -0.6337  0.9685
    6SAPS  H10X  772   3.110   1.121   9.121  0.9418  1.0309  2.6471
    6SAPS  H10Y  773   3.168   1.279   9.059  1.7932 -0.6603 -2.8130
    6SAPS  C311  774   3.114   1.137   8.897  0.3639  0.2032  0.4086
    6SAPS  H11X  775   3.034   1.065   8.870  0.7103 -0.9410  2.2570
    6SAPS  H11Y  776   3.208   1.078   8.895  0.9522  1.1309 -0.0122
    6SAPS  C312  777   3.121   1.244   8.782 -0.0133 -0.0134 -0.2564
    6SAPS  H12X  778   3.215   1.304   8.785 -0.2626  0.4037 -0.7577
    6SAPS  H12Y  779   3.040   1.317   8.802  0.7078  1.0028 -0.9182
    6SAPS  C313  780   3.103   1.190   8.637 -0.2197  1.1126 -0.0375
    6SAPS  H13X  781   3.070   1.274   8.573 -2.7819  0.8514  0.8574
    6SAPS  H13Y  782   3.019   1.118   8.634  0.2225  0.6084 -1.6574
    6SAPS  C314  783   3.233   1.113   8.595 -0.0017  0.0313 -0.0357
    6SAPS  H14X  784   3.255   1.036   8.672  1.4750  1.7553  1.3629
    6SAPS  H14Y  785   3.301   1.200   8.598 -0.9282  0.8073 -0.7633
    6SAPS  C315  786   3.225   1.042   8.459 -0.1101  0.1730  0.6518
    6SAPS  H15X  787   3.331   1.007   8.450  0.7118  1.5820  3.4736
    6SAPS  H15Y  788   3.185   1.110   8.382  0.3651  0.4955  0.6838
    6SAPS  C316  789   3.128   0.923   8.452 -0.3235  0.1676 -0.2314
    6SAPS  H16X  790   3.026   0.958   8.478 -0.2901  1.3948 -1.5786
    6SAPS  H16Y  791   3.163   0.866   8.541  2.6047  3.1522  0.7677
    6SAPS  C317  792   3.119   0.850   8.321 -0.0624 -0.0531 -0.5072
    6SAPS  H17X  793   3.217   0.826   8.275 -1.8239 -0.2535 -4.5187
    6SAPS  H17Y  794   3.081   0.924   8.247 -1.6976  0.9396  1.2409
    6SAPS  C318  795   3.015   0.734   8.322 -0.1261 -0.2153 -0.0915
    6SAPS  H18X  796   3.047   0.669   8.406 -0.2914  0.0276  0.1605
    6SAPS  H18Y  797   3.020   0.668   8.233 -0.9738  0.5788 -0.7448
    6SAPS  H18Z  798   2.912   0.768   8.346 -0.4886 -0.7219 -0.8933
    7SAPS     N  799   4.663   2.734  10.537  0.0130 -0.2426 -0.4046
    7SAPS   HN1  800   4.604   2.802  10.486  0.7357 -0.2950 -1.3297
    7SAPS   HN2  801   4.736   2.701  10.471 -0.4082  1.1483 -1.6145
    7SAPS   HN3  802   4.598   2.654  10.556  0.9474 -1.6415 -2.6982
    7SAPS   C12  803   4.721   2.793  10.664  0.4241 -0.3617  0.0239
    7SAPS  H12A  804   4.646   2.804  10.741  0.2607 -0.3829 -0.1322
    7SAPS   C13  805   4.833   2.706  10.733  0.0800  0.4807 -0.1904
    7SAPS  O13A  806   4.870   2.597  10.677 -0.2451  0.1716 -0.3724
    7SAPS  O13B  807   4.873   2.740  10.846  0.0668 -0.4485 -0.5042
    7SAPS   C11  808   4.782   2.934  10.629 -0.5530 -0.4148 -0.8089
    7SAPS  H11A  809   4.848   2.967  10.713  1.9238 -0.5783 -2.5725
    7SAPS  H11B  810   4.707   3.015  10.624  1.9472  1.9819 -2.1749
    7SAPS     P  811   4.939   3.050  10.448 -0.4788  0.3069 -0.3842
    7SAPS   O13  812   4.839   3.157  10.418 -0.1868  0.1019 -0.2173
    7SAPS   O14  813   5.053   3.092  10.539  0.5025  0.0420 -0.0818
    7SAPS   O12  814   4.856   2.930  10.507 -0.0198 -0.1785  0.4434
    7SAPS   O11  815   5.001   2.988  10.317 -0.5202  0.4120  0.4163
    7SAPS    C1  816   4.900   2.932  10.226 -0.4362  0.3755 -0.4460
    7SAPS    HA  817   4.903   2.821  10.228 -1.1576  0.3603 -0.1308
    7SAPS    HB  818   4.796   2.955  10.255 -0.9652  1.0643 -2.6696
    7SAPS    C2  819   4.919   2.981  10.081  0.5591  0.3197  0.8837
    7SAPS    HS  820   4.841   2.926  10.023 -0.4730 -0.2630  2.7553
    7SAPS   O21  821   5.052   2.959  10.030  0.2431  0.2027  0.2232
    7SAPS   C21  822   5.096   2.834  10.025 -0.3131  0.4263 -0.1954
    7SAPS   O22  823   5.033   2.730  10.041  0.3313 -0.6096  0.5477
    7SAPS   C22  824   5.244   2.829   9.985  0.2778 -0.0391  0.3325
    7SAPS   H2R  825   5.256   2.912   9.912 -0.2552 -2.0562 -2.1592
    7SAPS   H2S  826   5.279   2.860  10.086 -0.5739 -0.7367  0.8487
    7SAPS    C3  827   4.884   3.132  10.075 -0.0191 -0.6533 -0.3200
    7SAPS    HX  828   4.938   3.201  10.143 -0.7053 -0.1693 -0.2626
    7SAPS    HY  829   4.783   3.148  10.118  0.7351  0.6527  1.0338
    7SAPS   O31  830   4.893   3.174   9.938  0.5843  0.1957  0.6664
    7SAPS   C31  831   4.986   3.257   9.903  0.1194 -0.5564  0.4581
    7SAPS   O32  832   5.051   3.335   9.968  0.0410  0.3679 -0.1191
    7SAPS   C32  833   5.005   3.247   9.747 -0.5325 -0.1923 -0.3228
    7SAPS   H2X  834   5.110   3.211   9.734  0.3394  1.5017  1.5018
    7SAPS   H2Y  835   4.998   3.350   9.704 -1.4934  1.0826  2.6582
    7SAPS   C23  836   5.317   2.703   9.940  0.1212 -0.0229  0.2570
    7SAPS   H3R  837   5.254   2.613   9.955 -1.0719  0.5283 -1.1780
    7SAPS   H3S  838   5.410   2.698  10.001  0.7096  1.8516 -0.4099
    7SAPS   C24  839   5.345   2.699   9.786  0.0927  0.6942  0.0151
    7SAPS   H4R  840   5.251   2.702   9.727 -0.2864  0.7749  0.6132
    7SAPS   H4S  841   5.390   2.600   9.768 -1.2684  0.3396 -1.7143
    7SAPS   C25  842   5.446   2.807   9.753  0.2569 -0.3349  0.2788
    7SAPS   H5R  843   5.503   2.847   9.838 -1.1875 -0.1679  1.2141
    7SAPS   C26  844   5.464   2.858   9.628 -0.5850  0.2070  0.1247
    7SAPS   H6R  845   5.557   2.914   9.609  0.4379 -1.4110  0.1877
    7SAPS   C27  846   5.389   2.816   9.499  0.2598  0.2457 -0.2979
    7SAPS   H7R  847   5.280   2.814   9.520  0.0606 -1.0903 -1.3450
    7SAPS   H7S  848   5.415   2.709   9.487  0.0857 -0.1477  2.2756
    7SAPS   C28  849   5.422   2.889   9.370 -0.5675 -0.4825  0.0042
    7SAPS   H8R  850   5.415   2.997   9.389  2.9402 -0.3878  1.3981
    7SAPS   C29  851   5.438   2.842   9.246 -0.5494  0.0407  0.2377
    7SAPS   H9R  852   5.449   2.914   9.164 -0.0012  0.5737  0.7755
    7SAPS  C210  853   5.429   2.703   9.195  0.5802  0.3644 -0.1310
    7SAPS  H10R  854   5.392   2.630   9.270  2.0943 -2.1810 -1.6796
    7SAPS  H10S  855   5.527   2.651   9.196  0.2400 -0.2821  0.1936
    7SAPS  C211  856   5.334   2.688   9.071  0.4039 -0.4097  0.0094
    7SAPS  H11R  857   5.238   2.727   9.108  0.1646 -1.9524  1.0876
    7SAPS  C212  858   5.349   2.639   8.949  0.2286 -0.8651  0.5281
    7SAPS  H12R  859   5.265   2.645   8.878 -0.3930 -0.4507  1.2815
    7SAPS  C213  860   5.480   2.580   8.903  0.2748 -0.5086 -0.1638
    7SAPS  H13R  861   5.531   2.540   8.994  2.7703  2.2220 -0.2349
    7SAPS  H13S  862   5.548   2.650   8.851 -0.8118  1.9573  1.5349
    7SAPS  C214  863   5.447   2.451   8.828  0.6544 -0.4389 -0.5517
    7SAPS  H14R  864   5.371   2.392   8.882 -1.3362  1.4722 -1.1223
    7SAPS  C215  865   5.502   2.418   8.712 -0.2384 -0.3556 -0.1048
    7SAPS  H15R  866   5.479   2.319   8.672 -0.0235  0.5718 -2.6678
    7SAPS  C216  867   5.612   2.487   8.629  0.6762  0.4732  0.9743
    7SAPS  H16R  868   5.705   2.426   8.635  0.1151 -0.2604  2.8490
    7SAPS  H16S  869   5.639   2.583   8.679  0.3618  0.5293  1.0356
    7SAPS  C217  870   5.566   2.536   8.488  0.3385  0.7214 -0.9942
    7SAPS  H17R  871   5.643   2.599   8.438  0.1170 -0.4434 -2.9133
    7SAPS  H17S  872   5.479   2.601   8.515 -2.2548 -2.7249 -0.3140
    7SAPS  C218  873   5.516   2.417   8.410 -0.1780 -0.3246 -0.7456
    7SAPS  H18R  874   5.429   2.377   8.467  0.2952 -0.2310  0.0642
    7SAPS  H18S  875   5.597   2.342   8.398 -0.3532 -0.3260 -2.0712
    7SAPS  C219  876   5.475   2.452   8.263  0.3542  0.0218  0.1501
    7SAPS  H19R  877   5.558   2.507   8.213  1.1737 -0.1641  1.2364
    7SAPS  H19S  878   5.391   2.524   8.269  0.8801  0.5503  1.6637
    7SAPS  C220  879   5.424   2.331   8.181  0.6331 -0.6516 -1.0780
    7SAPS  H20R  880   5.525   2.287   8.165  1.5023  1.1439 -0.8234
    7SAPS  H20S  881   5.366   2.366   8.093 -1.3387 -0.8959  0.0681
    7SAPS  H20T  882   5.357   2.267   8.243 -0.6999  0.8132 -0.9471
    7SAPS   C33  883   4.927   3.134   9.685 -0.3224 -0.2674  0.3773
    7SAPS   H3X  884   4.819   3.141   9.710 -1.0016  0.9523 -2.4845
    7SAPS   H3Y  885   4.969   3.038   9.722  0.8994  0.3782  0.7225
    7SAPS   C34  886   4.940   3.137   9.528 -0.3979 -0.3216 -0.3597
    7SAPS   H4X  887   4.930   3.239   9.485 -1.1904 -0.9756 -1.8264
    7SAPS   H4Y  888   4.852   3.082   9.489 -1.7517  0.7781  1.0559
    7SAPS   C35  889   5.076   3.080   9.483 -0.7253 -0.0959  0.2070
    7SAPS   H5X  890   5.055   2.972   9.472 -1.0874 -0.0228  0.1736
    7SAPS   H5Y  891   5.162   3.105   9.549 -0.0524  1.0859 -1.0621
    7SAPS   C36  892   5.117   3.137   9.339  0.8845 -0.1177 -0.5991
    7SAPS   H6X  893   5.211   3.084   9.313  0.5706 -1.8946  1.6122
    7SAPS   H6Y  894   5.129   3.247   9.344 -2.1756  0.2981 -0.3733
    7SAPS   C37  895   5.014   3.093   9.230  0.4929  0.5221  0.2298
    7SAPS   H7X  896   4.916   3.145   9.234  0.1934 -0.1125  1.8670
    7SAPS   H7Y  897   4.990   2.985   9.241  0.5807  0.1537 -2.4811
    7SAPS   C38  898   5.075   3.105   9.095 -0.5211  0.4363  0.2264
    7SAPS   H8X  899   5.127   3.203   9.084 -3.0148  1.7088 -1.1262
    7SAPS   H8Y  900   4.984   3.100   9.032  0.9459 -2.0222 -1.8714
    7SAPS   C39  901   5.161   2.997   9.044 -0.2095 -0.0248 -0.8961
    7SAPS   H9X  902   5.118   2.900   9.075  0.7625 -0.6088 -1.3176
    7SAPS   H9Y  903   5.257   3.006   9.099 -0.2869  1.0312 -0.9134
    7SAPS  C310  904   5.199   3.013   8.894 -0.2339 -0.0343 -0.3171
    7SAPS  H10X  905   5.292   2.953   8.881 -0.7341 -0.8656 -0.1237
    7SAPS  H10Y  906   5.212   3.119   8.862  0.7495 -0.2626 -0.7170
    7SAPS  C311  907   5.096   2.939   8.811  0.2398  0.3151  0.0007
    7SAPS  H11X  908   5.000   2.994   8.820  0.4257  0.5125  0.8812
    7SAPS  H11Y  909   5.081   2.841   8.860  0.0831  0.7706  0.8743
    7SAPS  C312  910   5.129   2.920   8.664 -0.3016 -0.8333  0.1995
    7SAPS  H12X  911   5.212   2.846   8.667  1.2694  0.8791  1.5665
    7SAPS  H12Y  912   5.167   3.013   8.617 -1.9663  0.7060  1.7518
    7SAPS  C313  913   5.002   2.871   8.583  0.2884  0.2325 -0.2955
    7SAPS  H13X  914   4.923   2.948   8.589  0.3258  0.4294 -1.9350
    7SAPS  H13Y  915   4.975   2.779   8.639 -2.0772  0.0679 -1.5794
    7SAPS  C314  916   5.029   2.847   8.424  0.1353 -0.3174 -0.7454
    7SAPS  H14X  917   5.101   2.763   8.412  0.2290 -0.5902  1.3993
    7SAPS  H14Y  918   5.069   2.942   8.381 -1.5826  0.7020 -0.2289
    7SAPS  C315  919   4.895   2.819   8.358 -0.0584 -0.0669  0.2010
    7SAPS  H15X  920   4.825   2.903   8.377 -1.0700 -1.0003  0.7302
    7SAPS  H15Y  921   4.853   2.726   8.403 -0.0422  0.0401  0.4348
    7SAPS  C316  922   4.899   2.798   8.203 -0.4652  0.2340 -0.2527
    7SAPS  H16X  923   4.928   2.892   8.152 -0.8316  0.2773 -0.3783
    7SAPS  H16Y  924   4.794   2.783   8.171 -0.7173 -0.6790  0.9057
    7SAPS  C317  925   4.974   2.673   8.157  0.5135 -0.6273 -0.0685
    7SAPS  H17X  926   5.081   2.700   8.152 -0.2551  2.7270 -2.1246
    7SAPS  H17Y  927   4.953   2.643   8.052  1.1034 -0.5986 -0.1937
    7SAPS  C318  928   4.961   2.545   8.243  0.1036  0.1923  0.4747
    7SAPS  H18X  929   5.007   2.463   8.183 -1.5000  0.8104 -1.7447
    7SAPS  H18Y  930   4.853   2.518   8.246 -0.8882  3.7336  0.4631
    7SAPS  H18Z  931   5.006   2.549   8.344  0.8571 -0.1259  0.1600
    8SAPS     N  932   3.647   4.912  11.465  0.3108  0.1115 -0.0505
    8SAPS   HN1  933   3.746   4.888  11.441  0.4088  0.1593  0.2963
    8SAPS   HN2  934   3.620   4.986  11.398 -1.7714  0.5683  1.2096
    8SAPS   HN3  935   3.648   4.962  11.557 -0.9867 -0.0650  0.0752
    8SAPS   C12  936   3.542   4.804  11.465  0.0620 -0.4611  0.2885
    8SAPS  H12A  937   3.556   4.727  11.538  2.7241  1.7612  2.3080
    8SAPS   C13  938   3.401   4.856  11.500  0.5825  0.1882  0.1329
    8SAPS  O13A  939   3.379   4.977  11.539  0.0871  0.0809 -0.0167
    8SAPS  O13B  940   3.309   4.778  11.511  0.8233  0.4135  0.2717
    8SAPS   C11  941   3.537   4.723  11.333 -0.5329 -0.1816 -0.3718
    8SAPS  H11A  942   3.475   4.634  11.358 -0.2859 -0.0417  0.7958
    8SAPS  H11B  943   3.636   4.689  11.297 -0.2953  0.2852 -0.1632
    8SAPS     P  944   3.385   4.731  11.120 -0.1447 -0.3312  0.0572
    8SAPS   O13  945   3.290   4.641  11.184  0.3588 -0.5780 -0.5190
    8SAPS   O14  946   3.323   4.833  11.026  0.1857 -0.4802  0.2250
    8SAPS   O12  947   3.478   4.798  11.223 -0.5357  0.0892 -0.1410
    8SAPS   O11  948   3.472   4.643  11.019  0.1167  0.1421 -0.0677
    8SAPS    C1  949   3.607   4.670  10.973  0.1692  0.2612  0.6188
    8SAPS    HA  950   3.670   4.723  11.047 -0.5799  0.9023  0.8043
    8SAPS    HB  951   3.658   4.574  10.949  2.1646  0.7501  2.5674
    8SAPS    C2  952   3.602   4.757  10.841  0.2938  0.2118  0.6124
    8SAPS    HS  953   3.551   4.848  10.880  0.6756  0.6689  0.0561
    8SAPS   O21  954   3.537   4.691  10.730 -0.3049 -0.2296  0.0186
    8SAPS   C21  955   3.477   4.774  10.654 -0.1229  0.1918  0.1702
    8SAPS   O22  956   3.468   4.894  10.681 -0.1274  0.1249  0.2350
    8SAPS   C22  957   3.439   4.708  10.525 -0.2438 -0.2076  0.2958
    8SAPS   H2R  958   3.537   4.670  10.489 -0.7086 -0.7867 -0.3688
    8SAPS   H2S  959   3.369   4.624  10.545 -0.0324 -1.0978 -2.3608
    8SAPS    C3  960   3.746   4.797  10.793  0.2486  0.1537  0.8216
    8SAPS    HX  961   3.801   4.700  10.796 -0.0705 -0.0162  1.2914
    8SAPS    HY  962   3.788   4.857  10.877 -1.1754 -1.3181  2.6714
    8SAPS   O31  963   3.752   4.862  10.665  0.0902  0.3756  0.7153
    8SAPS   C31  964   3.746   4.991  10.659  0.3233 -0.8630  0.0974
    8SAPS   O32  965   3.749   5.071  10.752 -0.2317 -0.2976 -0.2893
    8SAPS   C32  966   3.718   5.035  10.511 -0.4817  0.2644  0.3475
    8SAPS   H2X  967   3.663   5.132  10.507  1.1156  1.1754 -1.2672
    8SAPS   H2Y  968   3.647   4.962  10.466  0.9035  0.0061 -1.5382
    8SAPS   C23  969   3.406   4.814  10.416 -0.1316  0.7516 -0.0799
    8SAPS   H3R  970   3.493   4.882  10.400  2.1740 -1.9098  0.2610
    8SAPS   H3S  971   3.323   4.871  10.461  0.4621 -0.4702  2.7529
    8SAPS   C24  972   3.360   4.765  10.279  0.1848  0.0394 -0.2515
    8SAPS   H4R  973   3.291   4.835  10.227 -0.0377 -2.4375 -3.5907
    8SAPS   H4S  974   3.293   4.677  10.281 -0.0883  0.1568 -2.1949
    8SAPS   C25  975   3.473   4.729  10.192  0.1154 -0.3285 -0.2606
    8SAPS   H5R  976   3.575   4.737  10.232 -0.3827  2.9696  0.6686
    8SAPS   C26  977   3.453   4.682  10.069  0.3809  0.4435  0.4052
    8SAPS   H6R  978   3.537   4.643  10.009 -1.5865  0.6323 -2.6557
    8SAPS   C27  979   3.317   4.659  10.006 -0.5307 -0.0809  0.0451
    8SAPS   H7R  980   3.240   4.643  10.083  0.5109  2.0684  1.6613
    8SAPS   H7S  981   3.319   4.564   9.948  1.1009  0.8426 -1.5255
    8SAPS   C28  982   3.275   4.787   9.939  1.1230  0.6812  0.0681
    8SAPS   H8R  983   3.228   4.865  10.000 -1.4955  1.2258 -2.4255
    8SAPS   C29  984   3.274   4.813   9.806 -0.2916  0.7799 -0.1035
    8SAPS   H9R  985   3.249   4.919   9.786  0.6051  1.1923  0.8632
    8SAPS  C210  986   3.325   4.722   9.702 -0.0476 -0.2592  0.1241
    8SAPS  H10R  987   3.256   4.707   9.617  0.8553 -1.4399 -0.4348
    8SAPS  H10S  988   3.334   4.621   9.748 -0.1211 -1.4209 -2.2711
    8SAPS  C211  989   3.466   4.751   9.656  0.1811  0.3991  0.0095
    8SAPS  H11R  990   3.539   4.749   9.738  1.0157 -1.1385 -0.7237
    8SAPS  C212  991   3.524   4.750   9.533  0.4097  0.2025 -0.5447
    8SAPS  H12R  992   3.631   4.773   9.536  0.1104  2.1164  3.7845
    8SAPS  C213  993   3.452   4.741   9.404  0.8600  0.4071 -0.2632
    8SAPS  H13R  994   3.344   4.766   9.407  0.6734 -0.4532  0.8283
    8SAPS  H13S  995   3.451   4.636   9.367 -1.1323  1.8732 -5.0829
    8SAPS  C214  996   3.500   4.830   9.296 -0.0007  0.3769  0.4028
    8SAPS  H14R  997   3.432   4.913   9.272 -0.7227  0.2393  1.8992
    8SAPS  C215  998   3.595   4.808   9.206 -0.7606  0.5024  0.7622
    8SAPS  H15R  999   3.606   4.875   9.120 -2.7027 -0.9356 -0.6849
    8SAPS  C216 1000   3.679   4.682   9.185  0.1823 -0.0889  0.8969
    8SAPS  H16R 1001   3.655   4.639   9.086 -0.3501 -2.9435  2.1588
    8SAPS  H16S 1002   3.657   4.613   9.269  0.1181  1.2905  2.0527
    8SAPS  C217 1003   3.824   4.726   9.218  0.4949  0.1399 -0.4168
    8SAPS  H17R 1004   3.826   4.785   9.312 -1.4735 -1.1827  0.5108
    8SAPS  H17S 1005   3.860   4.790   9.134  1.6082 -0.9088 -0.7718
    8SAPS  C218 1006   3.921   4.609   9.230 -0.2884  0.3174 -0.2064
    8SAPS  H18R 1007   3.902   4.538   9.313  0.2171  0.7220  0.2598
    8SAPS  H18S 1008   4.021   4.655   9.240 -0.8554  1.4128  0.7025
    8SAPS  C219 1009   3.948   4.516   9.108 -1.3581  0.1653 -0.4513
    8SAPS  H19R 1010   3.867   4.459   9.056  1.2476 -3.1146 -1.2752
    8SAPS  H19S 1011   4.008   4.437   9.158 -0.5493 -0.2052 -1.9508
    8SAPS  C220 1012   4.021   4.584   8.994  0.1836  0.3561 -0.2734
    8SAPS  H20R 1013   4.117   4.618   9.039  1.0951 -0.6737 -1.3572
    8SAPS  H20S 1014   3.954   4.666   8.962  1.3548  2.0673  1.4675
    8SAPS  H20T 1015   4.041   4.514   8.910  1.0440 -2.7045  2.2404
    8SAPS   C33 1016   3.858   5.050  10.435 -0.0505  0.4858 -0.2216
    8SAPS   H3X 1017   3.928   5.120  10.485 -4.7183  4.1906  1.9836
    8SAPS   H3Y 1018   3.841   5.103  10.338  0.0322  1.8117  0.4685
    8SAPS   C34 1019   3.928   4.911  10.405 -0.2219  0.5852  0.4550
    8SAPS   H4X 1020   3.976   4.865  10.494  1.7636  1.0099 -0.3389
    8SAPS   H4Y 1021   4.012   4.935  10.336 -0.6632 -0.2066 -0.3738
    8SAPS   C35 1022   3.837   4.799  10.344 -0.3324 -0.2470  0.2357
    8SAPS   H5X 1023   3.750   4.849  10.296 -2.4390 -3.5543  0.3108
    8SAPS   H5Y 1024   3.798   4.742  10.431  0.2225 -1.0738 -0.0394
    8SAPS   C36 1025   3.910   4.714  10.236  0.2968 -0.2943 -0.1486
    8SAPS   H6X 1026   3.857   4.617  10.224  1.8967 -1.0497 -1.3370
    8SAPS   H6Y 1027   4.012   4.701  10.277  0.8331  2.2060 -0.5275
    8SAPS   C37 1028   3.937   4.775  10.098 -0.3481  0.2975 -0.0407
    8SAPS   H7X 1029   3.984   4.876  10.101 -0.1040  0.3014 -2.1314
    8SAPS   H7Y 1030   3.840   4.779  10.043 -1.2976 -0.3532  1.5283
    8SAPS   C38 1031   4.025   4.681  10.012 -0.7961 -0.1432 -0.1767
    8SAPS   H8X 1032   4.031   4.722   9.909 -1.3211 -0.5855 -0.3894
    8SAPS   H8Y 1033   3.976   4.581  10.016 -1.3296  0.0622 -1.0807
    8SAPS   C39 1034   4.169   4.652  10.059 -0.0338 -0.1521 -0.4908
    8SAPS   H9X 1035   4.218   4.578   9.992  0.2239 -2.3166  1.9185
    8SAPS   H9Y 1036   4.170   4.604  10.160 -0.4359  0.0061 -0.4081
    8SAPS  C310 1037   4.255   4.778  10.051  0.5798  0.2484  0.3981
    8SAPS  H10X 1038   4.202   4.875  10.057 -4.0327 -1.9074 -1.1560
    8SAPS  H10Y 1039   4.301   4.776   9.950 -0.4762 -1.6369 -0.0913
    8SAPS  C311 1040   4.367   4.773  10.156  1.2148  0.0495  0.3603
    8SAPS  H11X 1041   4.421   4.681  10.126  2.6600  1.7051 -2.5698
    8SAPS  H11Y 1042   4.318   4.772  10.255 -0.6877 -0.0900 -0.5370
    8SAPS  C312 1043   4.461   4.889  10.148  0.2068  0.4180  0.1832
    8SAPS  H12X 1044   4.525   4.888  10.239  0.4963  0.4349 -0.0189
    8SAPS  H12Y 1045   4.396   4.979  10.150  0.6452  0.7280  0.4666
    8SAPS  C313 1046   4.561   4.872  10.032 -0.1050  0.3017 -0.1435
    8SAPS  H13X 1047   4.513   4.854   9.933  2.4165 -3.0184 -0.9365
    8SAPS  H13Y 1048   4.612   4.777  10.059 -2.0024 -0.5406  0.7216
    8SAPS  C314 1049   4.667   4.980  10.027 -0.3963  0.0104  0.3302
    8SAPS  H14X 1050   4.729   4.971  10.119  1.4916 -1.8628 -1.0233
    8SAPS  H14Y 1051   4.613   5.077  10.037 -0.2783 -0.1365  3.5592
    8SAPS  C315 1052   4.754   4.976   9.904 -0.5762 -0.1222 -0.8431
    8SAPS  H15X 1053   4.757   4.869   9.874 -3.6223 -0.5375 -0.0108
    8SAPS  H15Y 1054   4.859   5.006   9.926 -0.5645 -1.8091  1.7972
    8SAPS  C316 1055   4.693   5.069   9.801 -0.0423  0.0420  0.3871
    8SAPS  H16X 1056   4.683   5.170   9.845 -1.9004  0.6983 -1.3514
    8SAPS  H16Y 1057   4.590   5.032   9.783  0.3787 -1.0757  0.1965
    8SAPS  C317 1058   4.768   5.079   9.671  0.5565  0.6317  0.1345
    8SAPS  H17X 1059   4.872   5.108   9.698  0.5245 -0.1143  1.0907
    8SAPS  H17Y 1060   4.715   5.147   9.600 -0.5043 -2.8460 -2.6619
    8SAPS  C318 1061   4.767   4.941   9.604 -0.5227 -0.1268  0.1146
    8SAPS  H18X 1062   4.805   4.943   9.500  0.0832 -0.1901  0.3283
    8SAPS  H18Y 1063   4.673   4.883   9.618 -0.3518  0.1401  3.0148
    8SAPS  H18Z 1064   4.844   4.882   9.658 -1.9077 -1.3954  0.7824
    9SAPS     N 1065   5.023   1.006   6.303 -0.3351  0.5231  0.5657
    9SAPS   HN1 1066   5.006   0.950   6.389  0.8119  1.9997  1.8165
    9SAPS   HN2 1067   5.112   1.057   6.323 -0.3657  0.5354  0.6751
    9SAPS   HN3 1068   4.948   1.078   6.306  0.0376  0.8898  2.0011
    9SAPS   C12 1069   5.035   0.936   6.172  0.3082 -0.4652  0.6010
    9SAPS  H12A 1070   4.955   0.869   6.145  1.1047 -1.2189  0.0606
    9SAPS   C13 1071   5.054   1.027   6.058 -0.7174 -0.8663  0.2901
    9SAPS  O13A 1072   5.074   1.152   6.072  0.0591  0.4745  0.5733
    9SAPS  O13B 1073   5.079   0.970   5.951 -0.4854 -0.0660  0.1686
    9SAPS   C11 1074   5.150   0.834   6.179 -0.0506 -0.0052 -0.3570
    9SAPS  H11A 1075   5.243   0.884   6.216 -0.2678  0.3894 -0.3404
    9SAPS  H11B 1076   5.177   0.802   6.076 -0.2728  3.7890 -1.7293
    9SAPS     P 1077   5.231   0.644   6.352  0.4394 -0.1983  0.2897
    9SAPS   O13 1078   5.166   0.536   6.423  0.4501  0.3570  0.1985
    9SAPS   O14 1079   5.346   0.612   6.265 -0.6555  0.3295  0.5703
    9SAPS   O12 1080   5.121   0.718   6.261  0.2504 -0.3281 -0.2425
    9SAPS   O11 1081   5.274   0.746   6.458  0.6295 -0.1238 -0.6813
    9SAPS    C1 1082   5.413   0.766   6.491  0.7057 -0.1061 -0.3583
    9SAPS    HA 1083   5.477   0.678   6.466 -0.6123 -1.6632  1.4430
    9SAPS    HB 1084   5.452   0.850   6.430 -0.4385  0.8723  0.2200
    9SAPS    C2 1085   5.435   0.792   6.639 -0.1507 -0.0220 -0.2347
    9SAPS    HS 1086   5.408   0.693   6.682  1.2115 -1.1147 -1.7554
    9SAPS   O21 1087   5.350   0.906   6.679  0.4074  0.5477 -0.1549
    9SAPS   C21 1088   5.310   0.888   6.806  0.0086  0.1692 -0.2940
    9SAPS   O22 1089   5.347   0.795   6.878  0.1818  0.1167 -0.0525
    9SAPS   C22 1090   5.219   0.998   6.846 -1.0713 -0.4756 -0.3268
    9SAPS   H2R 1091   5.227   1.072   6.763  1.0944  0.6096  0.7704
    9SAPS   H2S 1092   5.114   0.966   6.862 -1.0086 -0.2010  0.6914
    9SAPS    C3 1093   5.589   0.813   6.665  0.7074  0.3898  0.4274
    9SAPS    HX 1094   5.619   0.885   6.586 -0.7064 -1.3908 -1.8612
    9SAPS    HY 1095   5.639   0.719   6.635 -0.8237  0.0573 -1.2781
    9SAPS   O31 1096   5.628   0.857   6.792 -0.0236  0.0276 -0.5590
    9SAPS   C31 1097   5.655   0.753   6.873  0.1968 -0.2413 -0.5437
    9SAPS   O32 1098   5.601   0.642   6.851 -0.1214  0.9017  0.2038
    9SAPS   C32 1099   5.758   0.788   6.979  0.1505 -0.1577  0.7060
    9SAPS   H2X 1100   5.756   0.899   6.974 -0.5036 -0.1131  1.7372
    9SAPS   H2Y 1101   5.854   0.751   6.937  1.5546  3.0246  0.8753
    9SAPS   C23 1102   5.280   1.081   6.968  0.0271 -0.2033 -0.2875
    9SAPS   H3R 1103   5.381   1.114   6.936  0.1871 -2.5551 -2.5039
    9SAPS   H3S 1104   5.292   1.004   7.048  2.5373  0.1687 -0.2309
    9SAPS   C24 1105   5.200   1.205   7.006 -0.5070  0.2361 -0.3483
    9SAPS   H4R 1106   5.208   1.292   6.938  1.2289  1.2691  1.0994
    9SAPS   H4S 1107   5.238   1.238   7.105 -0.0523 -0.2988 -0.3400
    9SAPS   C25 1108   5.050   1.172   7.023  0.6535 -0.4493 -0.1521
    9SAPS   H5R 1109   4.998   1.195   6.929 -0.1723  1.2812  0.6799
    9SAPS   C26 1110   4.979   1.122   7.132  0.3160  0.2722 -0.2651
    9SAPS   H6R 1111   4.869   1.125   7.124  0.1129  0.7843  2.0398
    9SAPS   C27 1112   5.041   1.092   7.265 -0.0893 -0.2144  0.2757
    9SAPS   H7R 1113   5.151   1.092   7.273 -0.0457 -1.1200 -0.2024
    9SAPS   H7S 1114   5.014   0.987   7.291 -1.7252  0.2095  0.4276
    9SAPS   C28 1115   4.987   1.183   7.366  0.0567  0.3590 -0.1977
    9SAPS   H8R 1116   4.996   1.290   7.346 -1.4513  0.2713 -1.4841
    9SAPS   C29 1117   4.943   1.159   7.487 -0.0280 -0.3635  0.0708
    9SAPS   H9R 1118   4.920   1.244   7.553  0.4007  0.3633 -0.6910
    9SAPS  C210 1119   4.927   1.030   7.554  0.3766  0.2261  0.0911
    9SAPS  H10R 1120   4.937   0.946   7.481  0.3688 -1.0009  1.4515
    9SAPS  H10S 1121   4.818   1.014   7.569  0.6791 -2.2851  0.0057
    9SAPS  C211 1122   5.017   1.019   7.677 -0.4928  0.4633 -0.1157
    9SAPS  H11R 1123   5.111   1.076   7.667 -0.6230  0.4529 -1.6157
    9SAPS  C212 1124   4.996   0.952   7.790 -0.5277  0.1337  0.4480
    9SAPS  H12R 1125   5.066   0.961   7.874  0.6928  0.6836 -0.5789
    9SAPS  C213 1126   4.876   0.871   7.821  0.4786  0.8447  0.7612
    9SAPS  H13R 1127   4.796   0.870   7.744  0.1088 -1.4103  1.0902
    9SAPS  H13S 1128   4.821   0.915   7.907 -0.6932 -0.2853  0.6257
    9SAPS  C214 1129   4.901   0.731   7.873  0.3218  0.3394 -0.0939
    9SAPS  H14R 1130   4.885   0.723   7.982 -0.2412 -1.1297 -0.2674
    9SAPS  C215 1131   4.941   0.626   7.808 -1.1549 -0.4664 -0.2581
    9SAPS  H15R 1132   4.953   0.528   7.857 -2.0935  0.9549  3.1425
    9SAPS  C216 1133   4.980   0.627   7.662 -0.1241 -0.3642 -0.6469
    9SAPS  H16R 1134   4.948   0.720   7.612 -1.2780 -0.1411  0.4446
    9SAPS  H16S 1135   4.938   0.541   7.606  0.1526  0.8249 -2.7641
    9SAPS  C217 1136   5.130   0.637   7.648 -0.2428  0.0932  0.1146
    9SAPS  H17R 1137   5.175   0.561   7.715  0.9111 -0.4027 -1.1873
    9SAPS  H17S 1138   5.158   0.741   7.675 -1.4772  0.5103 -0.1282
    9SAPS  C218 1139   5.177   0.602   7.506 -0.0991  0.2847 -0.2395
    9SAPS  H18R 1140   5.120   0.509   7.482  2.0302 -1.1057 -0.1504
    9SAPS  H18S 1141   5.282   0.571   7.523 -0.6218 -0.4259  2.2032
    9SAPS  C219 1142   5.161   0.710   7.397  0.2887 -0.4418 -0.8367
    9SAPS  H19R 1143   5.060   0.755   7.399  0.7394  0.6906 -1.9063
    9SAPS  H19S 1144   5.175   0.659   7.300 -2.0652 -0.3152 -1.3033
    9SAPS  C220 1145   5.272   0.811   7.400  0.2379 -0.1671  0.6342
    9SAPS  H20R 1146   5.372   0.778   7.365  1.9908  2.7258  2.5089
    9SAPS  H20S 1147   5.282   0.854   7.502 -0.4687 -0.8977  1.0206
    9SAPS  H20T 1148   5.249   0.896   7.332  2.2649 -0.2352 -0.2177
    9SAPS   C33 1149   5.719   0.759   7.124 -0.0708  1.4267 -0.0366
    9SAPS   H3X 1150   5.715   0.648   7.136 -2.0652  1.2568 -1.6476
    9SAPS   H3Y 1151   5.614   0.792   7.138 -0.9582 -1.1563  0.0190
    9SAPS   C34 1152   5.803   0.819   7.234 -0.3909 -0.3596  0.6479
    9SAPS   H4X 1153   5.834   0.922   7.209  1.3773 -0.8868  0.5576
    9SAPS   H4Y 1154   5.903   0.771   7.240  0.8861  2.1507  0.6780
    9SAPS   C35 1155   5.754   0.804   7.376  0.2386 -0.2454  0.2048
    9SAPS   H5X 1156   5.722   0.699   7.392  0.3042 -0.2937  0.0166
    9SAPS   H5Y 1157   5.670   0.869   7.408 -1.6376 -2.3135 -0.2445
    9SAPS   C36 1158   5.869   0.823   7.484 -0.1093  0.8292  0.5059
    9SAPS   H6X 1159   5.955   0.753   7.486  0.2468  1.2443  0.0712
    9SAPS   H6Y 1160   5.822   0.806   7.583  0.5812 -2.7885  0.3510
    9SAPS   C37 1161   5.920   0.966   7.483  0.5321 -0.1058 -0.4894
    9SAPS   H7X 1162   5.852   1.039   7.531 -0.1756 -0.4291 -0.9936
    9SAPS   H7Y 1163   5.946   0.993   7.378  2.2123  2.4391  0.4696
    9SAPS   C38 1164   6.051   0.987   7.565  0.5212  0.1519  0.1730
    9SAPS   H8X 1165   6.078   1.095   7.563  2.2296 -0.2641 -1.2141
    9SAPS   H8Y 1166   6.137   0.933   7.519  1.1831  1.2302  0.1072
    9SAPS   C39 1167   6.038   0.940   7.714  0.1643  0.2102  0.1414
    9SAPS   H9X 1168   6.136   0.966   7.759 -1.4217  2.2760  2.6416
    9SAPS   H9Y 1169   6.026   0.831   7.730  1.6714  0.1293  0.9125
    9SAPS  C310 1170   5.930   1.010   7.799  0.0482 -0.4262 -0.1594
    9SAPS  H10X 1171   5.835   0.965   7.761 -0.3653 -0.0296  0.4056
    9SAPS  H10Y 1172   5.932   1.120   7.786 -1.3591 -0.3588  0.1113
    9SAPS  C311 1173   5.922   0.961   7.943  0.1613 -0.4209 -0.6080
    9SAPS  H11X 1174   5.996   1.019   8.002 -1.0941 -0.9374  1.5981
    9SAPS  H11Y 1175   5.954   0.856   7.959 -2.1657 -1.1348 -0.3504
    9SAPS  C312 1176   5.775   0.980   8.011 -0.2295 -0.4537 -0.7772
    9SAPS  H12X 1177   5.705   0.969   7.926  1.0661 -1.3440 -1.7717
    9SAPS  H12Y 1178   5.770   1.081   8.057  2.6832 -1.2867  1.7285
    9SAPS  C313 1179   5.738   0.881   8.119 -0.2743 -0.0939 -0.7664
    9SAPS  H13X 1180   5.737   0.778   8.075 -1.2845 -1.5660  2.4183
    9SAPS  H13Y 1181   5.634   0.904   8.148 -0.6796 -1.7345 -0.7792
    9SAPS  C314 1182   5.824   0.885   8.249 -0.3705 -0.2073  0.4476
    9SAPS  H14X 1183   5.837   0.984   8.298  2.9496 -0.2196 -0.1653
    9SAPS  H14Y 1184   5.924   0.855   8.209 -0.4692  1.2272 -0.9575
    9SAPS  C315 1185   5.795   0.774   8.351  0.2731 -0.0645  0.1049
    9SAPS  H15X 1186   5.868   0.758   8.433  0.4846  0.0404 -0.0615
    9SAPS  H15Y 1187   5.775   0.684   8.289  0.4880  1.1487 -1.8144
    9SAPS  C316 1188   5.659   0.797   8.417  0.1965 -0.4927  0.9875
    9SAPS  H16X 1189   5.634   0.712   8.485 -2.1366 -0.4322  0.2957
    9SAPS  H16Y 1190   5.584   0.781   8.337  2.1227 -1.4918 -0.7020
    9SAPS  C317 1191   5.640   0.923   8.505 -0.1174  0.3026  0.5592
    9SAPS  H17X 1192   5.643   1.011   8.438 -2.4648  1.6438  2.0792
    9SAPS  H17Y 1193   5.733   0.930   8.566  1.5170 -2.5534 -1.4086
    9SAPS  C318 1194   5.524   0.912   8.595  0.3024  0.6226 -0.1024
    9SAPS  H18X 1195   5.514   0.996   8.668 -0.2258 -0.9009  1.6540
    9SAPS  H18Y 1196   5.522   0.816   8.651  1.5382 -0.1843 -1.3827
    9SAPS  H18Z 1197   5.423   0.912   8.550 -1.5790  1.5406  3.7017
   10SAPS     N 1198   6.698   0.390   6.235  0.3311  0.2195 -0.2563
   10SAPS   HN1 1199   6.770   0.442   6.182  0.2189  0.6149 -0.0226
   10SAPS   HN2 1200   6.646   0.455   6.298  1.3410  0.0629  0.7519
   10SAPS   HN3 1201   6.736   0.312   6.292 -1.1296 -0.5095 -0.2239
   10SAPS   C12 1202   6.617   0.323   6.125  0.6098 -0.2168 -0.4079
   10SAPS  H12A 1203   6.567   0.399   6.067 -0.9443 -0.5717  0.4021
   10SAPS   C13 1204   6.702   0.243   6.026 -0.1401 -0.1662 -0.0489
   10SAPS  O13A 1205   6.821   0.200   6.052  0.6606 -0.2418  0.0234
   10SAPS  O13B 1206   6.643   0.202   5.923  0.4262  0.1938  0.4093
   10SAPS   C11 1207   6.510   0.227   6.186 -0.1453  0.4678  0.2500
   10SAPS  H11A 1208   6.553   0.143   6.244  0.6214  0.0148 -0.9580
   10SAPS  H11B 1209   6.446   0.178   6.110 -1.5797  1.2632  0.8986
   10SAPS     P 1210   6.303   0.383   6.230 -0.0504 -0.2706  0.1952
   10SAPS   O13 1211   6.339   0.506   6.146 -0.2052 -0.2191  0.1099
   10SAPS   O14 1212   6.212   0.288   6.160  1.1361 -0.0714  0.8330
   10SAPS   O12 1213   6.437   0.307   6.270  0.8607  0.1821 -0.3634
   10SAPS   O11 1214   6.234   0.422   6.369 -0.5936  0.3673  0.1113
   10SAPS    C1 1215   6.216   0.334   6.475 -1.0134  0.0771 -0.2911
   10SAPS    HA 1216   6.108   0.314   6.487 -0.8383 -0.4320  0.5043
   10SAPS    HB 1217   6.262   0.235   6.458 -4.5478 -1.9380  0.8522
   10SAPS    C2 1218   6.273   0.396   6.610 -0.2013 -0.2230 -0.3979
   10SAPS    HS 1219   6.259   0.319   6.688  0.2264  0.1255  0.0334
   10SAPS   O21 1220   6.194   0.503   6.652  0.1176 -0.4835 -0.3747
   10SAPS   C21 1221   6.221   0.555   6.774 -0.5477  0.6025  0.1292
   10SAPS   O22 1222   6.286   0.500   6.863 -0.2558  0.1901 -0.2681
   10SAPS   C22 1223   6.168   0.691   6.779 -0.3978 -0.2450 -0.3257
   10SAPS   H2R 1224   6.151   0.738   6.680  0.0013  2.3998  0.7498
   10SAPS   H2S 1225   6.078   0.692   6.843  0.6939 -0.1081  1.2787
   10SAPS    C3 1226   6.429   0.435   6.595  0.1367 -0.4182 -0.0725
   10SAPS    HX 1227   6.421   0.541   6.565  0.8465 -0.0147  1.0979
   10SAPS    HY 1228   6.483   0.388   6.510  1.6340 -2.1405  1.7106
   10SAPS   O31 1229   6.502   0.405   6.717 -0.1769  0.2268  0.2951
   10SAPS   C31 1230   6.520   0.271   6.729  0.1768  0.6917 -0.9007
   10SAPS   O32 1231   6.486   0.184   6.658  0.1483  0.0975  0.3287
   10SAPS   C32 1232   6.596   0.247   6.861 -0.3918  0.4428 -0.2566
   10SAPS   H2X 1233   6.653   0.341   6.874 -0.6394  0.4671  0.7174
   10SAPS   H2Y 1234   6.666   0.161   6.849 -0.4831  0.5711 -1.9653
   10SAPS   C23 1235   6.262   0.790   6.866 -0.3143  0.8634  0.3452
   10SAPS   H3R 1236   6.364   0.782   6.822 -0.0082  2.5064  0.7002
   10SAPS   H3S 1237   6.268   0.755   6.971 -0.1539  0.5928  0.2481
   10SAPS   C24 1238   6.226   0.942   6.855 -0.4131  0.2213 -0.0373
   10SAPS   H4R 1239   6.173   0.970   6.762 -1.4403  0.6784  0.6694
   10SAPS   H4S 1240   6.324   0.995   6.862 -0.0965 -0.3438 -0.1945
   10SAPS   C25 1241   6.130   0.968   6.971 -0.0079  0.1905  1.0154
   10SAPS   H5R 1242   6.044   0.899   6.959  0.7220 -0.5490 -0.1806
   10SAPS   C26 1243   6.146   1.056   7.073  0.0768 -0.5390  0.0122
   10SAPS   H6R 1244   6.075   1.040   7.155 -0.1920  0.4487 -0.0124
   10SAPS   C27 1245   6.265   1.157   7.096  0.7159  0.1127  0.1779
   10SAPS   H7R 1246   6.237   1.242   7.162  2.2303  1.7270 -1.1433
   10SAPS   H7S 1247   6.293   1.206   7.000  1.1356  0.3711  0.4316
   10SAPS   C28 1248   6.384   1.076   7.137 -0.3306 -0.0909  0.6584
   10SAPS   H8R 1249   6.421   1.002   7.064 -1.4883 -0.2119  0.1753
   10SAPS   C29 1250   6.459   1.107   7.248 -0.7362  0.0905  0.1958
   10SAPS   H9R 1251   6.548   1.047   7.273 -0.3392  0.7709  0.4407
   10SAPS  C210 1252   6.432   1.217   7.353  0.1420  0.2312  0.6085
   10SAPS  H10R 1253   6.397   1.316   7.318 -0.6084  0.5748  2.2442
   10SAPS  H10S 1254   6.533   1.242   7.390  1.1531 -1.1383 -1.0994
   10SAPS  C211 1255   6.346   1.175   7.464  0.6002  1.1471 -0.0594
   10SAPS  H11R 1256   6.240   1.169   7.434  0.0587 -0.0320  1.8932
   10SAPS  C212 1257   6.389   1.147   7.586  0.6842  0.4316 -0.4264
   10SAPS  H12R 1258   6.314   1.130   7.664  0.9181 -2.1413 -0.6870
   10SAPS  C213 1259   6.533   1.141   7.627 -0.4580 -0.2416  0.3237
   10SAPS  H13R 1260   6.577   1.239   7.601 -3.3656  0.8246 -1.0351
   10SAPS  H13S 1261   6.588   1.062   7.572  0.3769  0.0468  0.7365
   10SAPS  C214 1262   6.562   1.110   7.772 -0.0175  0.6523 -0.0642
   10SAPS  H14R 1263   6.572   1.004   7.799 -1.2959  0.9214  1.6519
   10SAPS  C215 1264   6.572   1.193   7.880  0.0182 -0.2752  0.3963
   10SAPS  H15R 1265   6.607   1.146   7.974  2.3120  0.2772 -0.1332
   10SAPS  C216 1266   6.563   1.350   7.877  0.6293  1.1337 -0.6334
   10SAPS  H16R 1267   6.466   1.384   7.920  0.8151  1.4538 -0.4578
   10SAPS  H16S 1268   6.557   1.391   7.773 -1.3556 -0.4348 -1.2024
   10SAPS  C217 1269   6.664   1.434   7.953 -0.2623 -0.8045 -0.1853
   10SAPS  H17R 1270   6.651   1.542   7.935 -0.1129 -1.2034 -3.0775
   10SAPS  H17S 1271   6.764   1.415   7.908 -0.5243 -0.9594 -0.7069
   10SAPS  C218 1272   6.664   1.383   8.104 -0.8023 -0.2347  0.3378
   10SAPS  H18R 1273   6.655   1.273   8.110  0.2729 -0.3842 -0.5072
   10SAPS  H18S 1274   6.577   1.424   8.160  0.1666  2.1601  0.2335
   10SAPS  C219 1275   6.785   1.431   8.188  0.1050  0.0184 -0.3931
   10SAPS  H19R 1276   6.778   1.541   8.171 -1.2480  0.5052  2.6161
   10SAPS  H19S 1277   6.877   1.387   8.145  1.0568  0.0582  1.4842
   10SAPS  C220 1278   6.764   1.380   8.331 -0.5941 -0.3878  0.6133
   10SAPS  H20R 1279   6.665   1.413   8.368 -1.0870  0.0314 -1.0354
   10SAPS  H20S 1280   6.849   1.410   8.397 -0.0306 -3.0560  1.2340
   10SAPS  H20T 1281   6.769   1.269   8.330  2.8505 -0.3657 -1.3527
   10SAPS   C33 1282   6.499   0.229   6.981  0.2705 -0.6093 -0.1383
   10SAPS   H3X 1283   6.458   0.127   6.965  1.5826 -0.7906 -3.1616
   10SAPS   H3Y 1284   6.415   0.301   6.975  0.2653 -0.5160  0.9003
   10SAPS   C34 1285   6.563   0.259   7.113 -0.1640 -0.3776 -0.1675
   10SAPS   H4X 1286   6.589   0.367   7.107 -0.6271 -0.3076 -1.0783
   10SAPS   H4Y 1287   6.660   0.206   7.108 -0.2104 -0.3390 -2.1038
   10SAPS   C35 1288   6.480   0.205   7.230  0.3804  0.4060 -0.0577
   10SAPS   H5X 1289   6.463   0.095   7.224 -1.1212  0.5475  1.0996
   10SAPS   H5Y 1290   6.381   0.253   7.239  0.1331 -0.1810  0.3660
   10SAPS   C36 1291   6.555   0.241   7.365  0.2932  1.0381 -0.3063
   10SAPS   H6X 1292   6.583   0.349   7.360  2.2228  0.5327 -1.3034
   10SAPS   H6Y 1293   6.651   0.186   7.367 -0.7643 -0.9383  2.4379
   10SAPS   C37 1294   6.463   0.202   7.490 -0.5175  0.8417  0.7997
   10SAPS   H7X 1295   6.420   0.099   7.483  1.3264  0.0792 -0.3158
   10SAPS   H7Y 1296   6.381   0.277   7.489  0.3252  1.7999 -0.6446
   10SAPS   C38 1297   6.538   0.223   7.620 -0.5430  0.5102  0.2095
   10SAPS   H8X 1298   6.544   0.333   7.635 -1.3387  0.6427 -0.3702
   10SAPS   H8Y 1299   6.640   0.180   7.613 -0.1285  1.2748  1.3306
   10SAPS   C39 1300   6.447   0.175   7.735 -0.0770  0.6265  0.0451
   10SAPS   H9X 1301   6.433   0.065   7.732  0.8789  0.4980  0.0444
   10SAPS   H9Y 1302   6.343   0.211   7.716  0.8929  1.9221 -3.7007
   10SAPS  C310 1303   6.506   0.210   7.869 -0.5135  0.5555 -0.0969
   10SAPS  H10X 1304   6.501   0.320   7.882  1.8014  1.0381 -2.2709
   10SAPS  H10Y 1305   6.609   0.167   7.874 -0.4986  0.6214  0.1720
   10SAPS  C311 1306   6.418   0.140   7.971  0.1105  0.0930  0.3207
   10SAPS  H11X 1307   6.406   0.035   7.937 -0.7691  0.0304  0.7854
   10SAPS  H11Y 1308   6.322   0.196   7.966  0.3911  0.5470 -0.0788
   10SAPS  C312 1309   6.464   0.130   8.116  0.4164 -0.6522  0.4577
   10SAPS  H12X 1310   6.471   0.238   8.141 -0.0602 -0.7789  1.1767
   10SAPS  H12Y 1311   6.567   0.090   8.125  0.5324 -0.6081 -0.6038
   10SAPS  C313 1312   6.353   0.069   8.204  0.7383  0.1690 -0.3120
   10SAPS  H13X 1313   6.307  -0.017   8.151  2.1064 -0.7242 -0.0914
   10SAPS  H13Y 1314   6.267   0.140   8.208 -0.9912 -1.7916 -0.8086
   10SAPS  C314 1315   6.394   0.032   8.339 -0.2094  0.3442  0.3674
   10SAPS  H14X 1316   6.455   0.113   8.383  0.8695 -0.6381  0.7352
   10SAPS  H14Y 1317   6.453  -0.062   8.335 -0.5732  0.1527 -0.6958
   10SAPS  C315 1318   6.275   0.009   8.432  0.2305  0.5485 -0.5888
   10SAPS  H15X 1319   6.235  -0.082   8.383  1.4373 -0.1520 -0.3094
   10SAPS  H15Y 1320   6.217   0.103   8.435  1.9255  1.6269  1.0815
   10SAPS  C316 1321   6.306  -0.032   8.576 -0.5466  0.5522 -0.8320
   10SAPS  H16X 1322   6.209  -0.041   8.631 -1.5205 -1.5028 -2.7094
   10SAPS  H16Y 1323   6.365   0.044   8.631 -1.4849  1.0252 -0.4506
   10SAPS  C317 1324   6.368  -0.172   8.600 -0.5448  0.2669  0.3497
   10SAPS  H17X 1325   6.477  -0.173   8.579 -0.0884 -0.1440  2.5204
   10SAPS  H17Y 1326   6.311  -0.247   8.540 -0.2933  0.5615 -0.2633
   10SAPS  C318 1327   6.360  -0.211   8.747 -0.5937  0.6567  0.5981
   10SAPS  H18X 1328   6.418  -0.129   8.795  0.3417  2.2629 -2.9463
   10SAPS  H18Y 1329   6.394  -0.317   8.757  3.4845  1.7242 -0.1994
   10SAPS  H18Z 1330   6.253  -0.216   8.776 -0.5067  2.0650  1.2102
   11SAPS     N 1331   1.990   4.439   5.769 -0.4102  0.4719 -0.0925
   11SAPS   HN1 1332   1.920   4.508   5.802  0.5023  1.8086 -0.8294
   11SAPS   HN2 1333   2.049   4.423   5.853 -1.4808  1.0342  0.7836
   11SAPS   HN3 1334   2.052   4.476   5.694  1.0134 -2.0378 -0.2793
   11SAPS   C12 1335   1.925   4.307   5.731  0.1928 -0.0113 -0.0155
   11SAPS  H12A 1336   1.877   4.335   5.639  0.0135 -0.2849 -0.0045
   11SAPS   C13 1337   2.031   4.192   5.696  0.1432 -0.6786  0.5640
   11SAPS  O13A 1338   2.151   4.209   5.715 -0.2121 -0.4099 -0.3647
   11SAPS  O13B 1339   1.982   4.077   5.673 -0.6046 -0.0729  0.0097
   11SAPS   C11 1340   1.817   4.262   5.846  0.1811 -0.4027 -0.2645
   11SAPS  H11A 1341   1.866   4.266   5.946 -0.0892  0.5858 -0.1644
   11SAPS  H11B 1342   1.788   4.158   5.820 -1.8649  0.2117 -0.6644
   11SAPS     P 1343   1.562   4.307   5.884  0.0805 -0.4409 -0.0155
   11SAPS   O13 1344   1.460   4.361   5.787  0.2270 -0.1462 -0.4781
   11SAPS   O14 1345   1.552   4.161   5.903  0.2011 -0.5105  0.3054
   11SAPS   O12 1346   1.705   4.347   5.853  0.1614  0.0607 -0.5298
   11SAPS   O11 1347   1.538   4.380   6.011 -0.2366  0.3592 -0.2828
   11SAPS    C1 1348   1.645   4.435   6.092 -0.3962 -0.1738  0.2800
   11SAPS    HA 1349   1.715   4.356   6.127 -0.3410 -0.4924 -0.5266
   11SAPS    HB 1350   1.695   4.518   6.037 -1.5058  0.4940  0.2485
   11SAPS    C2 1351   1.571   4.491   6.218 -0.4939  0.4380 -0.6458
   11SAPS    HS 1352   1.651   4.529   6.285 -1.8347  2.5339 -0.1323
   11SAPS   O21 1353   1.490   4.391   6.281 -0.1590  0.5863  0.1517
   11SAPS   C21 1354   1.554   4.291   6.349  0.3979 -0.8853 -1.0921
   11SAPS   O22 1355   1.676   4.278   6.355 -0.1237 -0.2133 -0.6292
   11SAPS   C22 1356   1.448   4.210   6.418  0.2820 -0.4124  0.2233
   11SAPS   H2R 1357   1.349   4.233   6.374  0.6897  1.2244  0.0718
   11SAPS   H2S 1358   1.475   4.102   6.414 -0.0971 -0.5566  1.2959
   11SAPS    C3 1359   1.489   4.620   6.175 -0.6860 -0.1321 -0.6414
   11SAPS    HX 1360   1.410   4.593   6.103  1.2906 -2.8143 -1.9595
   11SAPS    HY 1361   1.557   4.690   6.122 -1.4740  2.2511  1.2900
   11SAPS   O31 1362   1.416   4.682   6.291 -0.5604 -0.3586  0.0602
   11SAPS   C31 1363   1.488   4.767   6.359  0.4198 -0.2383  0.1392
   11SAPS   O32 1364   1.605   4.795   6.340 -0.1162 -0.5357  0.9054
   11SAPS   C32 1365   1.389   4.826   6.464 -0.3226  0.6360 -0.3276
   11SAPS   H2X 1366   1.293   4.770   6.465  0.5746 -0.9564  0.0635
   11SAPS   H2Y 1367   1.374   4.936   6.461  0.0492  0.6773 -0.7871
   11SAPS   C23 1368   1.434   4.241   6.563 -0.6745  0.3817 -0.7630
   11SAPS   H3R 1369   1.525   4.211   6.618 -2.6613 -1.3306  1.7606
   11SAPS   H3S 1370   1.349   4.182   6.602  0.7078 -1.1848 -0.0324
   11SAPS   C24 1371   1.413   4.387   6.597  0.1762 -0.0686  0.2146
   11SAPS   H4R 1372   1.321   4.418   6.543 -0.7423 -0.3905  1.5292
   11SAPS   H4S 1373   1.493   4.458   6.570 -0.6168  0.7135 -0.1091
   11SAPS   C25 1374   1.397   4.390   6.751 -0.4487  0.4897  0.0169
   11SAPS   H5R 1375   1.490   4.399   6.809 -0.8163  0.5438  0.6077
   11SAPS   C26 1376   1.280   4.381   6.818 -0.3199 -0.0658  0.2884
   11SAPS   H6R 1377   1.277   4.389   6.928 -0.0976  0.2197  0.2741
   11SAPS   C27 1378   1.143   4.375   6.752  0.3363 -1.1270  0.1799
   11SAPS   H7R 1379   1.139   4.435   6.659 -1.1729  0.9352  1.4543
   11SAPS   H7S 1380   1.062   4.432   6.803 -1.0853 -0.4425 -2.6423
   11SAPS   C28 1381   1.089   4.232   6.747 -0.1277 -0.9472 -0.3046
   11SAPS   H8R 1382   1.106   4.182   6.650  3.2029  1.1083 -0.9457
   11SAPS   C29 1383   1.041   4.149   6.852 -0.6611  0.2188  0.4498
   11SAPS   H9R 1384   1.014   4.047   6.822  1.0727 -0.6182  1.5225
   11SAPS  C210 1385   1.028   4.188   6.993  0.0015 -0.0841 -0.0207
   11SAPS  H10R 1386   1.040   4.298   7.004 -1.2599  0.0654  0.0016
   11SAPS  H10S 1387   1.097   4.136   7.063  0.2138 -0.0454 -0.2015
   11SAPS  C211 1388   0.887   4.158   7.035 -0.1849 -0.0618 -0.3021
   11SAPS  H11R 1389   0.814   4.164   6.954 -0.1544 -1.9851 -0.5195
   11SAPS  C212 1390   0.845   4.122   7.156 -1.0182  0.6009 -0.8066
   11SAPS  H12R 1391   0.746   4.075   7.163 -0.3043 -0.7535  1.2115
   11SAPS  C213 1392   0.931   4.100   7.281 -0.4846 -0.4582  0.5541
   11SAPS  H13R 1393   1.041   4.104   7.269 -0.3768 -4.2424 -1.0288
   11SAPS  H13S 1394   0.905   3.998   7.317 -1.3971  0.7077  3.5705
   11SAPS  C214 1395   0.895   4.209   7.388  0.1513 -0.0644  0.6317
   11SAPS  H14R 1396   0.883   4.312   7.351 -2.8053  0.3002  2.2985
   11SAPS  C215 1397   0.834   4.190   7.504  0.2665  0.1539 -0.3779
   11SAPS  H15R 1398   0.803   4.274   7.567  0.7328 -1.3024  1.9259
   11SAPS  C216 1399   0.820   4.053   7.571 -0.2816  0.1456 -0.6226
   11SAPS  H16R 1400   0.853   3.964   7.514 -0.1982  0.0014 -0.3550
   11SAPS  H16S 1401   0.716   4.032   7.604 -0.1769  0.7547  0.1425
   11SAPS  C217 1402   0.908   4.058   7.696  0.0905  0.2055  0.2354
   11SAPS  H17R 1403   0.866   4.138   7.760 -1.4086  1.2124 -1.8932
   11SAPS  H17S 1404   1.012   4.062   7.658 -1.4873 -0.0091 -4.7559
   11SAPS  C218 1405   0.892   3.915   7.761 -0.3393  0.3144 -0.5324
   11SAPS  H18R 1406   0.937   3.840   7.693 -1.4973 -0.0281 -0.9474
   11SAPS  H18S 1407   0.788   3.879   7.775 -0.4881 -0.5492 -3.2703
   11SAPS  C219 1408   0.957   3.911   7.897 -0.9971  0.6119 -0.6606
   11SAPS  H19R 1409   1.063   3.944   7.894 -0.8733  0.1912 -0.9988
   11SAPS  H19S 1410   0.958   3.806   7.934 -0.7675  0.3206 -1.4736
   11SAPS  C220 1411   0.888   4.009   8.003  0.4057  0.6655 -0.1771
   11SAPS  H20R 1412   0.780   3.984   7.994  0.6457  0.1412 -1.8638
   11SAPS  H20S 1413   0.911   4.113   7.971  2.1335 -0.3333 -2.4349
   11SAPS  H20T 1414   0.926   4.002   8.107  0.4137 -0.6559 -0.2512
   11SAPS   C33 1415   1.450   4.779   6.604  0.2418  0.5528 -0.1510
   11SAPS   H3X 1416   1.539   4.841   6.627  0.7726 -0.5421  0.8480
   11SAPS   H3Y 1417   1.491   4.676   6.600  0.0575  0.4238  1.1113
   11SAPS   C34 1418   1.351   4.804   6.717 -0.4659 -0.5225 -0.3251
   11SAPS   H4X 1419   1.293   4.710   6.731 -1.3650  0.3837  3.0620
   11SAPS   H4Y 1420   1.283   4.887   6.689  0.1076 -0.6371 -2.1576
   11SAPS   C35 1421   1.420   4.833   6.852 -0.1468 -0.3404 -0.8733
   11SAPS   H5X 1422   1.482   4.924   6.846  1.0206 -1.1555 -1.5196
   11SAPS   H5Y 1423   1.488   4.751   6.884  1.2159  2.0298  3.0250
   11SAPS   C36 1424   1.311   4.834   6.953 -0.0856 -0.1833 -0.4480
   11SAPS   H6X 1425   1.282   4.731   6.982 -0.1168  0.0412  0.3237
   11SAPS   H6Y 1426   1.225   4.881   6.899 -0.9569 -0.4021  0.7006
   11SAPS   C37 1427   1.349   4.909   7.082 -0.1093  0.2400  0.1831
   11SAPS   H7X 1428   1.261   4.901   7.149  1.1995 -2.8722  1.7256
   11SAPS   H7Y 1429   1.378   5.015   7.065  2.1218 -0.0401  1.8259
   11SAPS   C38 1430   1.461   4.840   7.162 -0.2200  0.0233  0.5988
   11SAPS   H8X 1431   1.555   4.840   7.103 -1.7087  3.3930 -2.0884
   11SAPS   H8Y 1432   1.422   4.737   7.167 -0.8523  0.2374  0.1635
   11SAPS   C39 1433   1.458   4.901   7.298 -0.3056  0.4137  0.1999
   11SAPS   H9X 1434   1.352   4.915   7.329  0.2282 -1.1113  3.0571
   11SAPS   H9Y 1435   1.493   5.006   7.291 -0.2842  0.4076  0.2137
   11SAPS  C310 1436   1.540   4.809   7.393  0.1580  0.0827 -0.2554
   11SAPS  H10X 1437   1.644   4.804   7.355 -0.2456  2.4707 -1.8776
   11SAPS  H10Y 1438   1.494   4.708   7.390  0.2217  0.0769 -1.1420
   11SAPS  C311 1439   1.551   4.853   7.541 -0.3496 -0.0587 -0.2128
   11SAPS  H11X 1440   1.459   4.883   7.594  0.2948 -0.0698  0.9383
   11SAPS  H11Y 1441   1.623   4.936   7.552 -1.0914  0.6589 -0.6780
   11SAPS  C312 1442   1.612   4.739   7.625  0.1044 -0.3301 -0.5126
   11SAPS  H12X 1443   1.699   4.702   7.567  2.2904  2.6972  0.5557
   11SAPS  H12Y 1444   1.538   4.656   7.633  1.1078 -1.2134 -0.2320
   11SAPS  C313 1445   1.660   4.776   7.762  0.1957 -0.0439 -0.4941
   11SAPS  H13X 1446   1.582   4.827   7.823 -2.1657 -0.5984 -2.8634
   11SAPS  H13Y 1447   1.754   4.835   7.755  0.2455  0.3541  2.4285
   11SAPS  C314 1448   1.693   4.649   7.843  0.4465  0.1440 -0.4756
   11SAPS  H14X 1449   1.757   4.678   7.930  0.5966 -2.3415  0.3251
   11SAPS  H14Y 1450   1.743   4.572   7.781  2.5463 -1.6012  3.0292
   11SAPS  C315 1451   1.575   4.592   7.927  0.0195 -0.3799  0.1145
   11SAPS  H15X 1452   1.569   4.481   7.930 -0.6920 -0.4712 -2.4802
   11SAPS  H15Y 1453   1.481   4.636   7.886  0.6618  1.0822  0.1636
   11SAPS  C316 1454   1.591   4.629   8.081  0.2919  0.0008  0.2308
   11SAPS  H16X 1455   1.598   4.739   8.096  0.7090 -0.1532  1.2989
   11SAPS  H16Y 1456   1.687   4.587   8.118  0.3070  0.3857  0.6378
   11SAPS  C317 1457   1.483   4.560   8.168  0.3520 -0.5926 -0.2945
   11SAPS  H17X 1458   1.499   4.451   8.157 -0.6786 -0.8773  0.7740
   11SAPS  H17Y 1459   1.381   4.586   8.132  1.2259  0.7105 -1.9993
   11SAPS  C318 1460   1.493   4.603   8.311  0.1973 -0.7534 -0.3038
   11SAPS  H18X 1461   1.485   4.714   8.315 -0.7616 -0.8185 -0.1880
   11SAPS  H18Y 1462   1.587   4.587   8.368  0.2926  1.5932  0.2988
   11SAPS  H18Z 1463   1.410   4.565   8.374  0.8458  0.2086  1.1773
   12SAPS     N 1464   5.908   4.879   5.962 -0.5949  0.1412  0.0600
   12SAPS   HN1 1465   5.822   4.937   5.951 -2.9001 -2.7741  1.4002
   12SAPS   HN2 1466   5.879   4.780   5.953  1.0867 -0.3123 -0.7181
   12SAPS   HN3 1467   5.948   4.910   6.053 -1.2696  0.9035  0.1119
   12SAPS   C12 1468   5.997   4.920   5.846  0.8336  0.5355  0.1268
   12SAPS  H12A 1469   5.976   4.853   5.764 -4.4644 -0.2513  1.7655
   12SAPS   C13 1470   5.960   5.061   5.796 -1.4467 -0.2485  0.1131
   12SAPS  O13A 1471   5.850   5.119   5.827  0.0770  0.7385  0.3448
   12SAPS  O13B 1472   6.020   5.097   5.690  0.3149 -0.5942 -0.7208
   12SAPS   C11 1473   6.150   4.905   5.886 -0.4936  0.0072  0.5693
   12SAPS  H11A 1474   6.218   4.943   5.806 -0.3561  1.9977  1.5761
   12SAPS  H11B 1475   6.171   4.796   5.888  1.1322  0.1013 -2.8986
   12SAPS     P 1476   6.311   5.036   6.048 -0.3785  0.1266 -0.1961
   12SAPS   O13 1477   6.406   5.030   5.931 -0.2285 -0.1392 -0.3638
   12SAPS   O14 1478   6.281   5.166   6.112  0.4533  0.6244 -0.2405
   12SAPS   O12 1479   6.175   4.971   6.004 -0.6073 -0.6026 -0.5418
   12SAPS   O11 1480   6.368   4.932   6.151 -0.5978  0.2956 -0.0568
   12SAPS    C1 1481   6.456   4.973   6.259 -0.1928  0.7469  0.2574
   12SAPS    HA 1482   6.543   4.904   6.268  1.0669  2.2328 -0.0354
   12SAPS    HB 1483   6.501   5.074   6.252 -0.1408  0.7209  0.2137
   12SAPS    C2 1484   6.395   4.953   6.391  0.0974  0.7807  0.6497
   12SAPS    HS 1485   6.376   4.845   6.408  1.6627  0.5609  1.1317
   12SAPS   O21 1486   6.279   5.038   6.399  0.2361  0.4495  0.5231
   12SAPS   C21 1487   6.163   4.971   6.389 -0.1569  1.3625  0.0365
   12SAPS   O22 1488   6.153   4.847   6.388 -0.9289 -0.4124  0.2428
   12SAPS   C22 1489   6.048   5.066   6.387  0.1430  0.3998 -0.5363
   12SAPS   H2R 1490   6.098   5.162   6.410 -1.0131  0.6765  1.0089
   12SAPS   H2S 1491   6.017   5.073   6.280 -0.0688  0.1015 -0.4963
   12SAPS    C3 1492   6.490   4.999   6.504  0.4847  0.0785  0.3529
   12SAPS    HX 1493   6.519   5.100   6.466 -0.8038  0.4886  0.4297
   12SAPS    HY 1494   6.583   4.938   6.501  0.7183  0.4588 -0.4380
   12SAPS   O31 1495   6.429   4.995   6.635 -0.0062 -0.1861 -0.1800
   12SAPS   C31 1496   6.430   5.111   6.702  0.7289  0.5354 -0.0616
   12SAPS   O32 1497   6.479   5.215   6.660  0.0057 -0.3435  0.0124
   12SAPS   C32 1498   6.372   5.074   6.841 -0.9496 -0.4604 -0.7414
   12SAPS   H2X 1499   6.399   4.967   6.857  0.8263 -0.1377 -1.4320
   12SAPS   H2Y 1500   6.262   5.090   6.847 -1.2004 -2.1861 -0.1242
   12SAPS   C23 1501   5.949   5.032   6.494 -0.2082 -0.4800 -0.5441
   12SAPS   H3R 1502   5.912   4.928   6.486 -1.7644  0.0414 -0.5285
   12SAPS   H3S 1503   5.858   5.094   6.482  0.8868  1.5275  0.8635
   12SAPS   C24 1504   6.005   5.034   6.635 -0.2492  0.6732  0.2198
   12SAPS   H4R 1505   6.110   4.997   6.638 -0.0009  1.3385 -0.1219
   12SAPS   H4S 1506   5.943   4.962   6.692  2.6848 -0.6103  2.0282
   12SAPS   C25 1507   5.993   5.172   6.699 -0.3228  0.5066 -0.3038
   12SAPS   H5R 1508   6.045   5.253   6.646  1.8431 -1.0055 -0.6379
   12SAPS   C26 1509   5.949   5.199   6.819 -0.2671 -0.1966  0.3656
   12SAPS   H6R 1510   5.951   5.305   6.850 -0.5334 -0.3659  0.9892
   12SAPS   C27 1511   5.882   5.112   6.921 -0.5170  0.1115  0.1750
   12SAPS   H7R 1512   5.908   5.004   6.907 -0.4886  0.1910 -0.4505
   12SAPS   H7S 1513   5.771   5.119   6.926 -0.6613 -1.5221  0.0335
   12SAPS   C28 1514   5.924   5.139   7.067 -0.0320  0.8687  0.2277
   12SAPS   H8R 1515   6.008   5.209   7.082  0.5560  0.0478  0.8730
   12SAPS   C29 1516   5.855   5.092   7.168  0.1702 -0.4993  0.0336
   12SAPS   H9R 1517   5.889   5.102   7.273  0.5953 -0.1594 -0.1337
   12SAPS  C210 1518   5.728   5.008   7.166  0.3433  0.1330 -0.3291
   12SAPS  H10R 1519   5.736   4.935   7.249  0.3413  0.0933 -0.3641
   12SAPS  H10S 1520   5.736   4.943   7.076  0.6015 -0.9731  0.4710
   12SAPS  C211 1521   5.595   5.084   7.156 -0.1006  0.7814 -0.7724
   12SAPS  H11R 1522   5.541   5.071   7.061 -1.4908  0.8293 -0.0184
   12SAPS  C212 1523   5.538   5.149   7.257 -0.1240 -0.4907  0.0491
   12SAPS  H12R 1524   5.449   5.206   7.227  0.9106 -0.2586 -2.9773
   12SAPS  C213 1525   5.590   5.163   7.402  0.5642  0.4263 -0.3006
   12SAPS  H13R 1526   5.656   5.075   7.422  0.5809  0.4095 -0.4295
   12SAPS  H13S 1527   5.498   5.149   7.463  0.2350  0.6501 -0.7462
   12SAPS  C214 1528   5.650   5.292   7.430 -0.3762  0.6690 -0.2591
   12SAPS  H14R 1529   5.581   5.377   7.419  0.4062  1.1279 -1.8642
   12SAPS  C215 1530   5.769   5.315   7.490 -0.4653 -0.0895 -0.0795
   12SAPS  H15R 1531   5.798   5.420   7.504 -0.7505  0.4477 -2.9674
   12SAPS  C216 1532   5.869   5.213   7.531  0.2852  0.2461 -0.2580
   12SAPS  H16R 1533   5.970   5.237   7.490  1.7530 -3.6158  0.6956
   12SAPS  H16S 1534   5.845   5.111   7.494 -0.2742 -0.3836  1.7135
   12SAPS  C217 1535   5.878   5.212   7.685 -0.1244 -0.4186 -0.0266
   12SAPS  H17R 1536   5.885   5.314   7.728  0.8306 -0.7193  0.5720
   12SAPS  H17S 1537   5.967   5.166   7.734 -2.0702  0.9167  5.5882
   12SAPS  C218 1538   5.766   5.137   7.758  0.5180 -0.4774  0.0834
   12SAPS  H18R 1539   5.755   5.032   7.723 -0.6444 -0.5632  0.6729
   12SAPS  H18S 1540   5.668   5.178   7.728  0.4801 -0.7794 -0.2152
   12SAPS  C219 1541   5.779   5.135   7.911  0.0983  0.3884 -0.2433
   12SAPS  H19R 1542   5.873   5.078   7.927  0.2857  1.0859  1.3194
   12SAPS  H19S 1543   5.694   5.077   7.954 -0.9191  1.2014 -1.1105
   12SAPS  C220 1544   5.791   5.269   7.985 -0.7453  0.5752 -1.0083
   12SAPS  H20R 1545   5.715   5.339   7.945 -1.8000 -1.6255 -3.1411
   12SAPS  H20S 1546   5.889   5.314   7.964  1.1905 -3.3612 -1.3865
   12SAPS  H20T 1547   5.781   5.256   8.095  0.3178  2.5134 -0.6408
   12SAPS   C33 1548   6.449   5.164   6.947  0.5194 -0.1039  0.2036
   12SAPS   H3X 1549   6.430   5.269   6.915 -3.5152 -0.9153 -0.6561
   12SAPS   H3Y 1550   6.555   5.133   6.936  0.1659 -0.5909 -2.3406
   12SAPS   C34 1551   6.395   5.149   7.088 -0.2076  0.0109 -0.5888
   12SAPS   H4X 1552   6.393   5.042   7.119 -0.2345  0.0661 -0.4003
   12SAPS   H4Y 1553   6.286   5.171   7.083 -0.0542  0.5879 -1.5237
   12SAPS   C35 1554   6.462   5.236   7.197  0.0771 -0.0161 -0.1185
   12SAPS   H5X 1555   6.413   5.336   7.205 -0.3497 -0.3875  4.2176
   12SAPS   H5Y 1556   6.565   5.259   7.163  0.2203  0.4388  0.6032
   12SAPS   C36 1557   6.452   5.173   7.346  0.0978 -0.1628  0.1107
   12SAPS   H6X 1558   6.496   5.071   7.348 -0.3158 -0.3306  1.0185
   12SAPS   H6Y 1559   6.345   5.183   7.375  0.0757 -0.7098  0.2108
   12SAPS   C37 1560   6.528   5.251   7.453 -0.0569  0.2556 -0.0498
   12SAPS   H7X 1561   6.496   5.357   7.452  1.0801  0.7841  3.6676
   12SAPS   H7Y 1562   6.634   5.246   7.420  0.3443  0.9227  1.0876
   12SAPS   C38 1563   6.525   5.193   7.598 -0.1948 -0.3841 -0.1007
   12SAPS   H8X 1564   6.567   5.091   7.587 -2.0889 -1.3938  1.3491
   12SAPS   H8Y 1565   6.421   5.168   7.629 -0.0380 -0.0648  0.7250
   12SAPS   C39 1566   6.591   5.281   7.691 -0.0775  0.5912  0.3813
   12SAPS   H9X 1567   6.515   5.355   7.725  0.0131 -0.1068  2.2075
   12SAPS   H9Y 1568   6.678   5.326   7.637  2.6588 -2.1401  2.1624
   12SAPS  C310 1569   6.657   5.225   7.825  0.1374  0.0996 -0.1532
   12SAPS  H10X 1570   6.717   5.308   7.868 -0.1322 -0.9047  2.3152
   12SAPS  H10Y 1571   6.721   5.137   7.803 -1.4021 -0.7894 -1.3023
   12SAPS  C311 1572   6.547   5.168   7.910  0.5533  0.2298  0.0558
   12SAPS  H11X 1573   6.495   5.082   7.863  0.9384 -0.1307  0.2879
   12SAPS  H11Y 1574   6.467   5.244   7.927  2.6395  2.7854 -0.9243
   12SAPS  C312 1575   6.597   5.117   8.044 -0.0185 -0.0731 -0.1379
   12SAPS  H12X 1576   6.613   5.209   8.104 -1.7914 -0.5908  1.2012
   12SAPS  H12Y 1577   6.696   5.067   8.033  1.8604  3.4469 -0.8397
   12SAPS  C313 1578   6.498   5.020   8.126 -0.6631  0.1337 -0.0720
   12SAPS  H13X 1579   6.481   4.927   8.068 -1.2981  0.7334 -0.8600
   12SAPS  H13Y 1580   6.396   5.061   8.145  0.9058  4.0894  0.9662
   12SAPS  C314 1581   6.561   4.990   8.270  0.1670  0.0530 -0.2827
   12SAPS  H14X 1582   6.647   4.921   8.261  1.1268  1.3141 -1.2083
   12SAPS  H14Y 1583   6.480   4.939   8.327  0.8568 -0.7532  0.0013
   12SAPS  C315 1584   6.593   5.119   8.352  0.2684  0.3283 -0.6144
   12SAPS  H15X 1585   6.500   5.181   8.358 -0.6324 -0.8368 -1.9941
   12SAPS  H15Y 1586   6.681   5.172   8.310  1.3786 -0.1434  1.0279
   12SAPS  C316 1587   6.621   5.079   8.493  0.0713 -0.2922  0.0248
   12SAPS  H16X 1588   6.728   5.051   8.504  0.8257  1.1254 -2.7482
   12SAPS  H16Y 1589   6.556   4.995   8.526 -0.3252  1.0961  3.1584
   12SAPS  C317 1590   6.603   5.202   8.586 -0.3862 -0.0002  0.1912
   12SAPS  H17X 1591   6.626   5.302   8.542  0.5750 -0.7230 -1.0484
   12SAPS  H17Y 1592   6.676   5.196   8.669 -0.1114 -1.4530 -0.1290
   12SAPS  C318 1593   6.462   5.211   8.637 -0.1250 -0.2224 -0.2290
   12SAPS  H18X 1594   6.449   5.290   8.714  1.2687  0.3954 -0.6168
   12SAPS  H18Y 1595   6.435   5.110   8.675  0.2162  1.1008  4.0608
   12SAPS  H18Z 1596   6.389   5.243   8.560 -1.0114 -1.7703 -0.0879
   13SAPS     N 1597   0.611   2.730   6.067  0.4756  0.6520 -0.5913
   13SAPS   HN1 1598   0.660   2.769   5.984  1.3564 -0.4574 -0.6121
   13SAPS   HN2 1599   0.684   2.692   6.130 -0.5345  0.7815  0.6957
   13SAPS   HN3 1600   0.551   2.651   6.035  0.5691  0.9750 -1.6142
   13SAPS   C12 1601   0.529   2.842   6.126 -0.2761  0.2357  0.3538
   13SAPS  H12A 1602   0.466   2.803   6.205 -0.5507  1.0069  0.5269
   13SAPS   C13 1603   0.596   2.965   6.181  0.1321 -0.9301  0.9782
   13SAPS  O13A 1604   0.716   2.977   6.164  0.2805 -0.5341  0.1742
   13SAPS  O13B 1605   0.531   3.047   6.248  0.0502 -0.4916 -0.0301
   13SAPS   C11 1606   0.439   2.897   6.013  0.7700 -0.1175  0.0277
   13SAPS  H11A 1607   0.490   2.944   5.927  0.8184 -0.3617 -0.0778
   13SAPS  H11B 1608   0.375   2.965   6.074  1.4399  1.3747 -0.8765
   13SAPS     P 1609   0.216   2.739   6.019  0.2252  0.2038 -0.1183
   13SAPS   O13 1610   0.110   2.836   5.982 -0.1108 -0.3079 -0.0939
   13SAPS   O14 1611   0.191   2.602   5.972  0.3725  0.0476 -0.5644
   13SAPS   O12 1612   0.359   2.783   5.962 -0.1075  0.0085  0.0108
   13SAPS   O11 1613   0.243   2.734   6.175 -0.7125  0.6682 -0.2732
   13SAPS    C1 1614   0.174   2.631   6.256 -0.3784  0.3429 -0.1884
   13SAPS    HA 1615   0.071   2.664   6.281  0.0910  2.7848 -1.0924
   13SAPS    HB 1616   0.170   2.531   6.208  0.4121  0.3123 -0.1981
   13SAPS    C2 1617   0.249   2.614   6.395 -0.0218 -0.9451  0.0135
   13SAPS    HS 1618   0.198   2.538   6.459  0.5761 -0.1200  1.5175
   13SAPS   O21 1619   0.262   2.741   6.464  0.0520 -0.2115 -0.2010
   13SAPS   C21 1620   0.165   2.760   6.546  0.7626 -0.2251 -0.1872
   13SAPS   O22 1621   0.074   2.677   6.563 -0.7521  0.1268 -0.0424
   13SAPS   C22 1622   0.177   2.887   6.625  0.2363  0.0444  0.2793
   13SAPS   H2R 1623   0.284   2.898   6.656 -0.0240  2.3320  0.5736
   13SAPS   H2S 1624   0.156   2.963   6.546 -0.2375  1.3888  1.6381
   13SAPS    C3 1625   0.396   2.560   6.372 -0.5766 -0.4358  0.0008
   13SAPS    HX 1626   0.445   2.641   6.314 -0.9615 -2.7397 -3.8901
   13SAPS    HY 1627   0.390   2.474   6.303 -0.1714 -1.6140  1.3890
   13SAPS   O31 1628   0.471   2.525   6.489 -0.2225 -0.4183  0.1410
   13SAPS   C31 1629   0.553   2.617   6.538  0.2043  0.2319 -0.2780
   13SAPS   O32 1630   0.557   2.735   6.497 -0.0056 -0.0108  0.2445
   13SAPS   C32 1631   0.611   2.566   6.675  0.3816 -0.6671  0.6734
   13SAPS   H2X 1632   0.697   2.498   6.656 -1.5278 -2.6507 -1.4971
   13SAPS   H2Y 1633   0.534   2.499   6.720 -0.5254 -0.3498 -0.3751
   13SAPS   C23 1634   0.084   2.898   6.751  0.5595 -0.7265  0.1173
   13SAPS   H3R 1635  -0.011   2.866   6.704 -0.3442  1.3657  0.4538
   13SAPS   H3S 1636   0.078   2.995   6.804 -0.7635 -2.2741  3.0769
   13SAPS   C24 1637   0.113   2.799   6.867  0.0465  0.1896  0.1541
   13SAPS   H4R 1638   0.091   2.697   6.830 -1.6338  0.6545 -0.2190
   13SAPS   H4S 1639   0.039   2.809   6.949  1.5379  1.0343  1.4574
   13SAPS   C25 1640   0.255   2.805   6.910  0.9443  0.8678 -0.1423
   13SAPS   H5R 1641   0.331   2.786   6.832  1.3825  1.2333  0.1910
   13SAPS   C26 1642   0.292   2.809   7.040  0.2014 -0.1744  0.8627
   13SAPS   H6R 1643   0.401   2.802   7.052  0.4685 -0.3285 -1.2632
   13SAPS   C27 1644   0.202   2.832   7.157 -0.4008 -0.4065 -0.2798
   13SAPS   H7R 1645   0.190   2.736   7.213 -3.1439  0.7623  1.3488
   13SAPS   H7S 1646   0.100   2.867   7.132 -0.0677  1.1238  0.3858
   13SAPS   C28 1647   0.254   2.937   7.251 -0.6928 -0.0738 -0.5656
   13SAPS   H8R 1648   0.321   3.016   7.212 -1.8083  0.6123 -1.1385
   13SAPS   C29 1649   0.236   2.923   7.385  0.0423 -0.3272  0.1432
   13SAPS   H9R 1650   0.278   2.998   7.454 -1.2995 -1.0274  1.7792
   13SAPS  C210 1651   0.159   2.817   7.458  0.5560 -0.4375 -0.2588
   13SAPS  H10R 1652   0.202   2.818   7.560  2.2106  1.3323 -0.9149
   13SAPS  H10S 1653   0.166   2.716   7.413 -3.2266 -0.6779 -0.5860
   13SAPS  C211 1654   0.015   2.861   7.472  0.1776 -0.2087 -0.8025
   13SAPS  H11R 1655  -0.058   2.829   7.396  0.0593 -1.4512 -0.1981
   13SAPS  C212 1656  -0.040   2.914   7.579  0.4278 -0.1845 -0.2547
   13SAPS  H12R 1657  -0.144   2.951   7.574  1.0876  2.1476  1.7458
   13SAPS  C213 1658   0.031   2.938   7.707 -0.5178  0.2010 -0.1943
   13SAPS  H13R 1659  -0.026   3.011   7.768  0.1629  0.1916  0.4543
   13SAPS  H13S 1660   0.125   2.994   7.688 -0.0543 -1.4973 -3.6961
   13SAPS  C214 1661   0.053   2.820   7.798  0.0804 -0.3616 -0.2556
   13SAPS  H14R 1662   0.028   2.718   7.764  0.9976 -0.6215 -0.1778
   13SAPS  C215 1663   0.095   2.822   7.925  0.2435  0.7719  0.1197
   13SAPS  H15R 1664   0.126   2.730   7.976 -2.4695 -0.0961  0.3467
   13SAPS  C216 1665   0.139   2.942   8.007  1.0906  0.1112  0.0278
   13SAPS  H16R 1666   0.181   3.016   7.936  0.1499  1.1414  0.5093
   13SAPS  H16S 1667   0.212   2.916   8.087 -0.1207  0.3967  1.2765
   13SAPS  C217 1668   0.019   2.991   8.095 -0.3057 -0.0488 -0.3950
   13SAPS  H17R 1669  -0.026   2.916   8.165 -0.9764  0.7392  0.0374
   13SAPS  H17S 1670  -0.058   3.018   8.020  0.9003  2.0499 -0.9423
   13SAPS  C218 1671   0.041   3.117   8.180 -0.5932 -0.1975 -0.1617
   13SAPS  H18R 1672   0.051   3.206   8.113  0.9607  1.2297  1.8324
   13SAPS  H18S 1673   0.139   3.111   8.232 -0.0449  2.7049 -0.6641
   13SAPS  C219 1674  -0.076   3.156   8.267 -0.3553  0.5489 -0.3629
   13SAPS  H19R 1675  -0.171   3.155   8.209 -0.3196 -3.6326 -0.6204
   13SAPS  H19S 1676  -0.063   3.261   8.301 -1.9191  1.4706 -2.4084
   13SAPS  C220 1677  -0.096   3.066   8.394 -0.1114 -0.6330 -0.2839
   13SAPS  H20R 1678  -0.016   3.111   8.457 -1.5352  2.5365 -0.5173
   13SAPS  H20S 1679  -0.082   2.957   8.385  2.7084 -0.3117 -0.6809
   13SAPS  H20T 1680  -0.191   3.086   8.449 -0.4321 -1.7074 -0.4314
   13SAPS   C33 1681   0.656   2.676   6.778 -0.1371  0.7397  0.7761
   13SAPS   H3X 1682   0.570   2.737   6.812 -0.3697  0.2598  1.0484
   13SAPS   H3Y 1683   0.736   2.745   6.741 -1.1831  1.0442 -1.0311
   13SAPS   C34 1684   0.709   2.627   6.914 -0.7656 -0.8761  0.1843
   13SAPS   H4X 1685   0.713   2.719   6.977  0.0138 -0.7016 -0.1023
   13SAPS   H4Y 1686   0.812   2.586   6.906 -0.9265 -1.1921 -0.2700
   13SAPS   C35 1687   0.610   2.537   6.989  0.1887  0.3091  0.0761
   13SAPS   H5X 1688   0.608   2.437   6.940 -0.4251 -0.6498  1.9442
   13SAPS   H5Y 1689   0.510   2.580   6.968 -0.8157 -1.9358 -0.0251
   13SAPS   C36 1690   0.642   2.530   7.136  0.6809  0.4537  0.1909
   13SAPS   H6X 1691   0.621   2.625   7.189  0.3492 -0.3382  1.5515
   13SAPS   H6Y 1692   0.746   2.496   7.157 -0.3108 -2.3096  1.0309
   13SAPS   C37 1693   0.560   2.417   7.205  0.3738 -0.2637 -0.4030
   13SAPS   H7X 1694   0.560   2.329   7.136 -2.8936 -1.8828  1.4703
   13SAPS   H7Y 1695   0.458   2.459   7.215  0.6933  0.1332  1.4580
   13SAPS   C38 1696   0.611   2.368   7.345  0.2644 -0.8904 -0.9290
   13SAPS   H8X 1697   0.720   2.351   7.335  0.1759 -2.7535  0.7029
   13SAPS   H8Y 1698   0.560   2.272   7.371 -0.6193 -0.7322 -2.0054
   13SAPS   C39 1699   0.602   2.466   7.460 -0.3873  0.0946 -0.1329
   13SAPS   H9X 1700   0.508   2.525   7.453 -1.2526 -1.2166 -0.0086
   13SAPS   H9Y 1701   0.681   2.544   7.461 -0.5537  0.2607  0.0950
   13SAPS  C310 1702   0.600   2.395   7.593 -0.0968 -0.0656 -0.2308
   13SAPS  H10X 1703   0.524   2.315   7.591  0.4976 -0.6460 -0.0704
   13SAPS  H10Y 1704   0.568   2.465   7.674  0.4890  0.2986 -0.3090
   13SAPS  C311 1705   0.741   2.339   7.636  0.4946 -0.5610  0.2685
   13SAPS  H11X 1706   0.804   2.428   7.655  0.2315 -0.7005  1.9067
   13SAPS  H11Y 1707   0.784   2.286   7.549 -1.2537  0.8629 -1.5824
   13SAPS  C312 1708   0.752   2.264   7.772  0.7630 -0.2918 -0.6536
   13SAPS  H12X 1709   0.858   2.252   7.806  1.1624  2.4985 -0.6620
   13SAPS  H12Y 1710   0.709   2.162   7.778  1.5811 -0.6536 -0.7682
   13SAPS  C313 1711   0.684   2.338   7.885  0.0903  0.5118 -0.0340
   13SAPS  H13X 1712   0.578   2.354   7.856  0.2549  2.0722  0.1463
   13SAPS  H13Y 1713   0.736   2.435   7.899 -1.0821  1.1850 -0.2136
   13SAPS  C314 1714   0.682   2.263   8.019  0.1205 -0.0211  0.4701
   13SAPS  H14X 1715   0.787   2.238   8.048  0.8573 -0.4734 -2.2563
   13SAPS  H14Y 1716   0.630   2.166   8.010  1.0079 -0.3852 -1.3401
   13SAPS  C315 1717   0.619   2.347   8.137  0.6975 -0.2800  0.6498
   13SAPS  H15X 1718   0.516   2.369   8.100  1.0477  0.4138  0.0724
   13SAPS  H15Y 1719   0.661   2.449   8.152 -0.2228  0.4180 -1.2228
   13SAPS  C316 1720   0.599   2.273   8.273  0.6993 -0.2182  0.6252
   13SAPS  H16X 1721   0.512   2.314   8.328 -1.7232 -2.5515 -1.2120
   13SAPS  H16Y 1722   0.688   2.278   8.339  0.8392 -2.7206  0.7025
   13SAPS  C317 1723   0.563   2.117   8.263  0.0554  0.5942  0.3017
   13SAPS  H17X 1724   0.642   2.060   8.210 -0.8276  0.9043 -1.3853
   13SAPS  H17Y 1725   0.474   2.105   8.199 -0.3746 -0.2569  1.0507
   13SAPS  C318 1726   0.531   2.054   8.400 -0.3657 -0.0270 -0.4358
   13SAPS  H18X 1727   0.439   2.105   8.437  0.5674  1.4061 -0.0258
   13SAPS  H18Y 1728   0.614   2.082   8.467 -1.0546  0.1118  0.3815
   13SAPS  H18Z 1729   0.538   1.943   8.396  1.0353 -0.0146  0.8326
   14SAPS     N 1730   1.580   5.090   5.373 -0.0406 -0.2525  0.3133
   14SAPS   HN1 1731   1.646   5.068   5.296 -1.2039  1.2810 -1.1838
   14SAPS   HN2 1732   1.539   5.001   5.407  1.0203 -0.7273  0.3924
   14SAPS   HN3 1733   1.499   5.145   5.337 -0.5981 -0.2289  1.5410
   14SAPS   C12 1734   1.635   5.167   5.489 -0.0822  0.1443 -0.3002
   14SAPS  H12A 1735   1.713   5.108   5.534 -1.0387 -0.3792  0.6983
   14SAPS   C13 1736   1.704   5.303   5.448  0.5483 -0.6418 -0.4297
   14SAPS  O13A 1737   1.759   5.293   5.334 -0.0330 -0.1059  0.5568
   14SAPS  O13B 1738   1.759   5.375   5.537 -0.8194  0.1467  0.0550
   14SAPS   C11 1739   1.522   5.192   5.594 -0.4616  0.0987  0.0786
   14SAPS  H11A 1740   1.441   5.250   5.544 -0.5814 -0.8757 -0.8940
   14SAPS  H11B 1741   1.557   5.247   5.684  1.4979 -0.5441 -0.2310
   14SAPS     P 1742   1.526   4.978   5.743 -0.0245  0.4644 -0.1736
   14SAPS   O13 1743   1.502   4.833   5.718 -0.5927  0.1791 -0.1854
   14SAPS   O14 1744   1.669   5.017   5.752  0.2192  0.1960  0.0823
   14SAPS   O12 1745   1.463   5.069   5.627 -0.3846  0.4847  0.7956
   14SAPS   O11 1746   1.456   5.016   5.887 -0.2873  0.1205 -0.2261
   14SAPS    C1 1747   1.445   5.154   5.918  0.6255 -0.3224  0.4200
   14SAPS    HA 1748   1.537   5.215   5.902 -0.7989  1.9179  0.2459
   14SAPS    HB 1749   1.373   5.206   5.851  0.9789  0.4200  0.5994
   14SAPS    C2 1750   1.406   5.164   6.068 -0.7929  0.6296  0.4162
   14SAPS    HS 1751   1.370   5.265   6.096 -0.3934  0.9826 -0.3063
   14SAPS   O21 1752   1.516   5.120   6.158 -0.0171 -0.2133  0.1724
   14SAPS   C21 1753   1.612   5.202   6.176  0.5957  0.0674  0.2563
   14SAPS   O22 1754   1.625   5.316   6.131  0.3059  0.1311  0.2414
   14SAPS   C22 1755   1.703   5.141   6.280  0.2046 -0.2123 -0.1090
   14SAPS   H2R 1756   1.678   5.035   6.300 -1.2967  0.3189  0.9627
   14SAPS   H2S 1757   1.808   5.142   6.243 -0.0496  0.4977 -0.8284
   14SAPS    C3 1758   1.292   5.063   6.089  0.5750  0.3997 -0.0137
   14SAPS    HX 1759   1.346   4.967   6.100  0.2864  0.2179 -0.1663
   14SAPS    HY 1760   1.217   5.055   6.007  1.0747  0.5741 -0.4932
   14SAPS   O31 1761   1.224   5.065   6.218 -0.1918 -0.4006 -0.2017
   14SAPS   C31 1762   1.147   5.171   6.228  0.2497  0.7173  0.2838
   14SAPS   O32 1763   1.114   5.243   6.133  0.0327 -0.2773 -0.2155
   14SAPS   C32 1764   1.115   5.201   6.373 -0.2820  0.3734  0.0182
   14SAPS   H2X 1765   1.077   5.111   6.426  2.7199 -0.4649  0.9515
   14SAPS   H2Y 1766   1.041   5.283   6.371  0.3147  0.9059 -0.8843
   14SAPS   C23 1767   1.702   5.208   6.421 -0.1178  0.5508  0.1532
   14SAPS   H3R 1768   1.642   5.301   6.417 -1.8891 -0.3894  2.5246
   14SAPS   H3S 1769   1.803   5.241   6.452 -1.0724  1.5771  2.3838
   14SAPS   C24 1770   1.639   5.106   6.527  0.3637 -0.0911  0.4516
   14SAPS   H4R 1771   1.713   5.026   6.548  0.0131 -0.6611 -0.4362
   14SAPS   H4S 1772   1.548   5.070   6.475 -0.3888  2.2064  0.0896
   14SAPS   C25 1773   1.594   5.180   6.649 -0.2736  0.5523 -0.2216
   14SAPS   H5R 1774   1.524   5.265   6.646 -1.2232 -0.1913  0.3513
   14SAPS   C26 1775   1.640   5.163   6.776 -0.1169  0.1381 -0.1895
   14SAPS   H6R 1776   1.613   5.237   6.853  1.3955  0.8274 -0.2799
   14SAPS   C27 1777   1.743   5.068   6.814  0.5561  0.6621 -0.4133
   14SAPS   H7R 1778   1.758   4.986   6.741  0.7678  0.8012 -0.5294
   14SAPS   H7S 1779   1.710   5.012   6.905 -0.5584  1.2194 -0.4598
   14SAPS   C28 1780   1.876   5.129   6.836  0.3509 -0.0607 -0.6186
   14SAPS   H8R 1781   1.906   5.183   6.744 -1.1766  1.4197 -0.2853
   14SAPS   C29 1782   1.922   5.152   6.956 -1.3651 -0.2180 -0.3167
   14SAPS   H9R 1783   2.021   5.199   6.952 -0.9231 -1.1413 -0.3589
   14SAPS  C210 1784   1.880   5.112   7.096  0.4300  0.0058  0.4730
   14SAPS  H10R 1785   1.770   5.108   7.088  0.3247  0.6710  1.4723
   14SAPS  H10S 1786   1.900   5.200   7.160 -1.1438 -0.6038  1.8425
   14SAPS  C211 1787   1.921   4.983   7.154 -0.1124 -0.1369  0.1654
   14SAPS  H11R 1788   1.954   4.907   7.080  0.2844  1.7411 -1.6764
   14SAPS  C212 1789   1.924   4.948   7.286 -0.0955  0.7462  0.4674
   14SAPS  H12R 1790   1.935   4.844   7.319 -2.0434  0.5524  0.6365
   14SAPS  C213 1791   1.877   5.045   7.397 -0.0456  0.4177  0.1943
   14SAPS  H13R 1792   1.834   4.979   7.476  0.3223 -1.0124 -0.7588
   14SAPS  H13S 1793   1.802   5.113   7.352  0.7631  0.9030 -0.4370
   14SAPS  C214 1794   1.998   5.120   7.443 -0.0903 -0.2946 -0.0243
   14SAPS  H14R 1795   2.048   5.202   7.391  3.6479 -1.4585  1.3828
   14SAPS  C215 1796   2.056   5.102   7.562 -0.1853  0.0391  0.4483
   14SAPS  H15R 1797   2.144   5.166   7.578  0.4225 -0.6380 -0.0686
   14SAPS  C216 1798   2.018   5.005   7.674  0.4082  0.6219 -0.4495
   14SAPS  H16R 1799   2.115   4.971   7.717 -0.5149 -0.2600  0.9988
   14SAPS  H16S 1800   1.960   4.921   7.629 -0.5865  0.2220  1.4607
   14SAPS  C217 1801   1.938   5.080   7.781 -0.2294 -0.5089 -0.5980
   14SAPS  H17R 1802   1.903   5.016   7.865  1.7192 -1.5033 -0.4988
   14SAPS  H17S 1803   1.836   5.103   7.743 -1.0718 -1.4691  0.9488
   14SAPS  C218 1804   2.006   5.207   7.824  0.0636  0.2558 -0.3268
   14SAPS  H18R 1805   2.004   5.287   7.747  1.9695 -0.8651 -1.6184
   14SAPS  H18S 1806   2.112   5.186   7.848 -0.6469 -2.0863  1.1704
   14SAPS  C219 1807   1.930   5.269   7.945 -0.2126 -0.3880  0.0844
   14SAPS  H19R 1808   1.824   5.295   7.922 -0.6983 -2.3217 -0.0518
   14SAPS  H19S 1809   1.981   5.366   7.966  0.6745 -0.9555  0.5650
   14SAPS  C220 1810   1.943   5.197   8.079  0.4668  0.0227 -0.3223
   14SAPS  H20R 1811   2.051   5.186   8.104  0.5751  1.7123  0.0402
   14SAPS  H20S 1812   1.912   5.092   8.059  0.7774 -0.4954  1.6910
   14SAPS  H20T 1813   1.886   5.237   8.165  2.2890 -1.2928  1.6095
   14SAPS   C33 1814   1.246   5.244   6.453 -0.1448  0.1587  0.1699
   14SAPS   H3X 1815   1.304   5.317   6.392  0.8802 -0.2877  0.5851
   14SAPS   H3Y 1816   1.310   5.154   6.465  0.4294  0.6601  1.0099
   14SAPS   C34 1817   1.217   5.295   6.594  0.5058 -0.0171 -0.0083
   14SAPS   H4X 1818   1.179   5.399   6.587 -2.6727 -0.7966  2.6282
   14SAPS   H4Y 1819   1.304   5.305   6.662  0.5182  1.6666 -0.2311
   14SAPS   C35 1820   1.099   5.217   6.670  0.5626  0.5577 -0.3660
   14SAPS   H5X 1821   1.121   5.109   6.667 -2.1095 -0.0474 -0.4248
   14SAPS   H5Y 1822   1.004   5.251   6.623 -0.5971  0.3678  1.7409
   14SAPS   C36 1823   1.096   5.255   6.820 -0.4104 -0.5073  0.5828
   14SAPS   H6X 1824   1.073   5.362   6.839 -1.8677 -0.7999  0.5806
   14SAPS   H6Y 1825   1.197   5.241   6.863  0.8533  2.5780 -1.1032
   14SAPS   C37 1826   0.990   5.175   6.888  0.6557  0.4808  0.6296
   14SAPS   H7X 1827   0.968   5.075   6.843 -0.9844  1.3384 -0.6095
   14SAPS   H7Y 1828   0.902   5.239   6.866  3.1492  3.1232 -2.6594
   14SAPS   C38 1829   1.003   5.156   7.039  0.1635 -0.4911 -0.3565
   14SAPS   H8X 1830   1.039   5.249   7.089 -3.1529  0.2500  0.9414
   14SAPS   H8Y 1831   1.072   5.073   7.069 -0.8055 -0.1670  3.2824
   14SAPS   C39 1832   0.872   5.122   7.103  0.4885  0.6243  0.3666
   14SAPS   H9X 1833   0.856   5.012   7.105 -0.9610  0.8015 -0.0516
   14SAPS   H9Y 1834   0.785   5.167   7.049  0.9581  2.9482  1.4170
   14SAPS  C310 1835   0.879   5.162   7.253 -0.4949  0.0819 -0.2457
   14SAPS  H10X 1836   0.775   5.143   7.284 -0.8203  2.3286  0.1936
   14SAPS  H10Y 1837   0.901   5.271   7.265  1.1481 -0.1374 -0.9045
   14SAPS  C311 1838   0.984   5.077   7.339 -0.4801  0.6351  1.0700
   14SAPS  H11X 1839   1.085   5.085   7.293 -1.8386  0.5160 -2.2122
   14SAPS  H11Y 1840   0.966   4.968   7.345 -0.4955  0.7242  3.1416
   14SAPS  C312 1841   0.993   5.118   7.490  0.2921  0.1596  0.3940
   14SAPS  H12X 1842   1.007   5.228   7.496 -3.0469  0.6918  0.6611
   14SAPS  H12Y 1843   1.084   5.071   7.533  0.3676 -0.0686 -0.0033
   14SAPS  C313 1844   0.871   5.075   7.574 -0.4117 -0.0749  0.0414
   14SAPS  H13X 1845   0.854   4.972   7.536  0.8691 -0.4194  0.3466
   14SAPS  H13Y 1846   0.783   5.141   7.563 -0.7364 -0.3467  0.9445
   14SAPS  C314 1847   0.915   5.069   7.722  0.1100  0.4110  0.0052
   14SAPS  H14X 1848   0.971   5.162   7.749 -0.1503  0.9484 -1.2244
   14SAPS  H14Y 1849   0.989   4.987   7.734 -2.0589 -1.5255  0.9246
   14SAPS  C315 1850   0.802   5.033   7.812  0.0781 -0.1081  0.3689
   14SAPS  H15X 1851   0.741   4.958   7.759 -1.2457  1.8747 -1.0514
   14SAPS  H15Y 1852   0.734   5.120   7.812  1.8146  1.3174  0.3436
   14SAPS  C316 1853   0.836   4.983   7.953  0.6082 -0.1471 -0.0472
   14SAPS  H16X 1854   0.859   4.878   7.979  0.6471 -0.0226  0.4320
   14SAPS  H16Y 1855   0.742   5.008   8.006  1.4313  0.0506  1.3544
   14SAPS  C317 1856   0.941   5.071   8.021 -0.0173  0.6723 -0.2323
   14SAPS  H17X 1857   0.914   5.178   8.014 -2.8075  0.2638  2.2180
   14SAPS  H17Y 1858   1.034   5.062   7.960 -1.3101  1.2058 -2.3688
   14SAPS  C318 1859   0.953   5.046   8.173 -0.2293  0.3122 -0.9554
   14SAPS  H18X 1860   1.006   5.123   8.233 -0.6676  1.3218 -1.8208
   14SAPS  H18Y 1861   1.008   4.951   8.187 -0.1986  0.4874  0.1780
   14SAPS  H18Z 1862   0.853   5.034   8.221  0.5736  0.7805  0.9130
   15SAPS     N 1863   0.739   5.775   5.814 -0.3747  0.5533 -0.5149
   15SAPS   HN1 1864   0.788   5.822   5.734  1.0060  0.2171  0.0986
   15SAPS   HN2 1865   0.746   5.838   5.897  1.2068  1.0029 -0.9448
   15SAPS   HN3 1866   0.783   5.683   5.831  0.5473  1.3811  1.9550
   15SAPS   C12 1867   0.604   5.751   5.764 -0.4884 -0.2129  0.1188
   15SAPS  H12A 1868   0.543   5.723   5.848 -1.3150 -0.4795 -0.5597
   15SAPS   C13 1869   0.541   5.872   5.706  1.3119 -0.5273 -0.3325
   15SAPS  O13A 1870   0.605   5.983   5.713 -0.3590  0.1405 -0.3431
   15SAPS  O13B 1871   0.419   5.868   5.659 -0.4995 -0.3588 -0.1235
   15SAPS   C11 1872   0.612   5.637   5.659 -0.3374  0.9172  0.1117
   15SAPS  H11A 1873   0.661   5.670   5.565 -0.0639 -2.6485 -1.1383
   15SAPS  H11B 1874   0.507   5.610   5.635 -0.6689 -0.7894  3.0520
   15SAPS     P 1875   0.613   5.399   5.795  0.0937 -0.3436  0.4295
   15SAPS   O13 1876   0.513   5.335   5.709  0.3072 -0.7239  0.1553
   15SAPS   O14 1877   0.731   5.315   5.840 -0.0157 -0.3434  0.0451
   15SAPS   O12 1878   0.674   5.520   5.712  0.1912 -0.1129 -0.3061
   15SAPS   O11 1879   0.536   5.462   5.921 -0.3710 -0.4994  0.8494
   15SAPS    C1 1880   0.588   5.539   6.031  0.9345  0.5349  0.8082
   15SAPS    HA 1881   0.689   5.577   6.006  1.5865  0.1352  2.6448
   15SAPS    HB 1882   0.521   5.627   6.040  2.0434  1.3557  1.2267
   15SAPS    C2 1883   0.607   5.449   6.158 -0.3224 -0.2086 -0.2327
   15SAPS    HS 1884   0.518   5.381   6.156  1.1406 -2.1858 -1.3829
   15SAPS   O21 1885   0.618   5.546   6.272 -0.1093  0.1014  0.1453
   15SAPS   C21 1886   0.505   5.586   6.314  0.7864 -0.1485 -0.6862
   15SAPS   O22 1887   0.398   5.543   6.277  0.1339  0.7901  0.1240
   15SAPS   C22 1888   0.533   5.694   6.419  0.0946 -0.0909 -0.4082
   15SAPS   H2R 1889   0.634   5.678   6.464  0.5254  1.2040 -0.8744
   15SAPS   H2S 1890   0.525   5.789   6.362  1.3871 -0.7491 -1.7507
   15SAPS    C3 1891   0.745   5.358   6.154  0.1892 -0.7179 -0.5303
   15SAPS    HX 1892   0.828   5.420   6.112 -0.5643  0.5230 -0.2331
   15SAPS    HY 1893   0.741   5.273   6.083  1.1791 -1.3827  0.1755
   15SAPS   O31 1894   0.777   5.318   6.292  0.0535  0.0679 -0.5431
   15SAPS   C31 1895   0.704   5.216   6.339 -0.0714 -0.3801  0.1321
   15SAPS   O32 1896   0.612   5.163   6.278 -0.2792  0.6915 -0.2640
   15SAPS   C32 1897   0.749   5.189   6.485  0.0692  0.8296  0.8500
   15SAPS   H2X 1898   0.814   5.269   6.527  0.1942  1.6736 -0.8478
   15SAPS   H2Y 1899   0.804   5.093   6.480  2.3273  2.0003  1.8891
   15SAPS   C23 1900   0.426   5.683   6.536  0.3821  0.3605  0.3153
   15SAPS   H3R 1901   0.322   5.687   6.498  0.9060  1.1779 -1.1101
   15SAPS   H3S 1902   0.430   5.775   6.599 -2.2149  0.2904  0.6896
   15SAPS   C24 1903   0.442   5.559   6.629  0.7282  0.5002  0.0610
   15SAPS   H4R 1904   0.541   5.569   6.678  1.6972  1.0154 -1.8685
   15SAPS   H4S 1905   0.461   5.468   6.568 -1.7404 -0.7359  1.0104
   15SAPS   C25 1906   0.318   5.535   6.709 -0.0649  0.2920  0.4850
   15SAPS   H5R 1907   0.223   5.542   6.654 -0.5225  0.0965  1.2336
   15SAPS   C26 1908   0.311   5.515   6.841  0.3482 -0.4807 -0.1698
   15SAPS   H6R 1909   0.215   5.498   6.892  0.9688  0.1098  1.2288
   15SAPS   C27 1910   0.422   5.496   6.936  0.8152 -0.0774 -0.3849
   15SAPS   H7R 1911   0.418   5.577   7.012 -2.2857  0.6293 -1.1783
   15SAPS   H7S 1912   0.517   5.482   6.880 -0.4741 -1.3259 -2.4107
   15SAPS   C28 1913   0.384   5.361   7.001 -0.3300 -0.2839  0.0397
   15SAPS   H8R 1914   0.403   5.277   6.933  0.4725 -0.3889  0.3760
   15SAPS   C29 1915   0.327   5.345   7.126  0.6825  0.0950  0.9657
   15SAPS   H9R 1916   0.307   5.242   7.158 -0.2280  0.5705  1.9866
   15SAPS  C210 1917   0.298   5.449   7.228  0.0066 -0.1645 -0.5697
   15SAPS  H10R 1918   0.209   5.423   7.289  0.5300 -3.9924 -1.2294
   15SAPS  H10S 1919   0.274   5.541   7.169  0.0906 -0.7459 -1.5234
   15SAPS  C211 1920   0.415   5.458   7.326 -0.4336 -0.1416 -0.0188
   15SAPS  H11R 1921   0.510   5.495   7.283  0.0674 -0.7136  0.5697
   15SAPS  C212 1922   0.419   5.422   7.455 -0.6388  0.6032 -0.9083
   15SAPS  H12R 1923   0.515   5.425   7.509 -1.7981 -0.7922  1.3913
   15SAPS  C213 1924   0.309   5.359   7.533 -0.0878  0.4421 -0.5176
   15SAPS  H13R 1925   0.343   5.257   7.561  0.2059  0.8698  0.7935
   15SAPS  H13S 1926   0.215   5.342   7.477  0.5827  0.1915 -1.5974
   15SAPS  C214 1927   0.280   5.441   7.658 -0.2601  0.8662  0.1029
   15SAPS  H14R 1928   0.226   5.533   7.632 -2.4153 -0.8868 -2.0018
   15SAPS  C215 1929   0.324   5.408   7.784 -0.2282  0.6027  0.1562
   15SAPS  H15R 1930   0.304   5.480   7.864  1.7590  0.1993  1.0791
   15SAPS  C216 1931   0.396   5.283   7.829 -0.7525 -0.3289  0.0273
   15SAPS  H16R 1932   0.431   5.225   7.740 -1.6519 -1.1997  0.2194
   15SAPS  H16S 1933   0.322   5.213   7.874 -1.3114 -0.3258 -0.8451
   15SAPS  C217 1934   0.503   5.302   7.936  0.3942 -1.0952  0.5563
   15SAPS  H17R 1935   0.559   5.209   7.960  0.1918 -0.8346  2.1074
   15SAPS  H17S 1936   0.475   5.340   8.036  0.4668  0.7333 -0.0801
   15SAPS  C218 1937   0.605   5.413   7.885  0.1494  0.4311  0.7058
   15SAPS  H18R 1938   0.557   5.509   7.856 -2.0302 -0.7740  0.0290
   15SAPS  H18S 1939   0.660   5.380   7.794  1.4383  3.8945  0.0917
   15SAPS  C219 1940   0.701   5.452   7.995 -0.2695 -0.2291  0.0567
   15SAPS  H19R 1941   0.760   5.360   8.017 -0.5588 -0.1404  1.2381
   15SAPS  H19S 1942   0.649   5.475   8.090  1.8488 -2.0107  1.7529
   15SAPS  C220 1943   0.788   5.568   7.954 -0.2150 -0.3665  0.3800
   15SAPS  H20R 1944   0.857   5.591   8.037 -2.0322 -1.4195  2.2901
   15SAPS  H20S 1945   0.728   5.659   7.930 -0.8180 -0.5664  1.0906
   15SAPS  H20T 1946   0.846   5.544   7.862 -1.0899 -1.6950  0.1413
   15SAPS   C33 1947   0.623   5.169   6.564 -0.0763 -0.6834 -0.6092
   15SAPS   H3X 1948   0.561   5.095   6.510 -1.2340  1.6764 -2.6775
   15SAPS   H3Y 1949   0.568   5.266   6.565  1.3282  0.1502  0.6129
   15SAPS   C34 1950   0.654   5.120   6.701  0.7815  0.5856  0.0280
   15SAPS   H4X 1951   0.685   5.200   6.772 -0.8180  1.4855 -0.2419
   15SAPS   H4Y 1952   0.740   5.050   6.696  0.2620 -0.0712  0.1138
   15SAPS   C35 1953   0.528   5.046   6.756  0.1861 -0.3375  0.1106
   15SAPS   H5X 1954   0.503   4.972   6.677  0.2413  1.3626 -1.5895
   15SAPS   H5Y 1955   0.452   5.126   6.752  0.9437  0.6158  2.6214
   15SAPS   C36 1956   0.530   5.008   6.900 -0.3144 -0.6041  0.5613
   15SAPS   H6X 1957   0.542   5.101   6.959  1.9261 -0.0324 -0.7021
   15SAPS   H6Y 1958   0.615   4.944   6.932  0.2148 -0.0807  0.2240
   15SAPS   C37 1959   0.404   4.935   6.949  0.3812 -0.3102  0.2855
   15SAPS   H7X 1960   0.408   4.833   6.904 -0.3947 -0.1701 -0.1214
   15SAPS   H7Y 1961   0.317   4.986   6.902  1.2993  1.8448  0.8381
   15SAPS   C38 1962   0.388   4.920   7.108  0.2879  0.1725  0.5527
   15SAPS   H8X 1963   0.315   4.849   7.150 -0.2596 -0.2095 -0.9639
   15SAPS   H8Y 1964   0.355   5.019   7.146 -0.0060 -1.0881  3.8747
   15SAPS   C39 1965   0.522   4.889   7.165 -0.5476  0.2895  0.4852
   15SAPS   H9X 1966   0.596   4.971   7.174 -0.5072  0.2065  0.9721
   15SAPS   H9Y 1967   0.559   4.808   7.099  0.0270 -1.2027  2.5092
   15SAPS  C310 1968   0.517   4.838   7.307  0.7233 -0.2940 -0.3102
   15SAPS  H10X 1969   0.428   4.774   7.325 -0.2411  0.7249 -1.3001
   15SAPS  H10Y 1970   0.514   4.921   7.380  1.0912 -0.6894  0.1672
   15SAPS  C311 1971   0.647   4.754   7.343 -0.1264  0.1885 -0.0958
   15SAPS  H11X 1972   0.727   4.830   7.329 -0.9168  0.7866 -1.6819
   15SAPS  H11Y 1973   0.658   4.672   7.269  1.8306 -2.2150  2.6434
   15SAPS  C312 1974   0.656   4.707   7.496 -0.3560 -0.3353 -0.6585
   15SAPS  H12X 1975   0.578   4.634   7.524 -2.2163  2.3842  1.8220
   15SAPS  H12Y 1976   0.618   4.788   7.561 -0.4709 -2.7498  2.5573
   15SAPS  C313 1977   0.796   4.664   7.540 -0.1646  0.1566 -1.0488
   15SAPS  H13X 1978   0.858   4.751   7.510 -1.6672  1.3147 -0.9583
   15SAPS  H13Y 1979   0.833   4.576   7.483 -0.2445 -1.4244  1.2254
   15SAPS  C314 1980   0.822   4.638   7.690  0.5485 -0.1005 -1.1846
   15SAPS  H14X 1981   0.818   4.740   7.733  0.0800  0.6977 -3.0207
   15SAPS  H14Y 1982   0.922   4.597   7.715  0.8028  1.8483  1.4292
   15SAPS  C315 1983   0.722   4.537   7.755 -0.2041  0.4462  0.1470
   15SAPS  H15X 1984   0.704   4.459   7.677 -2.8140  1.4210 -0.3583
   15SAPS  H15Y 1985   0.620   4.582   7.754 -0.6768 -0.5896 -0.8791
   15SAPS  C316 1986   0.766   4.473   7.886 -0.3360  0.5908 -0.2684
   15SAPS  H16X 1987   0.754   4.549   7.967  0.7216 -0.6487  1.1019
   15SAPS  H16Y 1988   0.867   4.428   7.881 -0.9622 -0.7823 -4.2916
   15SAPS  C317 1989   0.663   4.366   7.914 -0.2088  0.6442  0.2802
   15SAPS  H17X 1990   0.675   4.280   7.845  1.4775 -0.5296  1.9621
   15SAPS  H17Y 1991   0.558   4.401   7.902 -0.8185 -1.5559 -1.4460
   15SAPS  C318 1992   0.670   4.292   8.057  0.8181 -0.1005  0.6134
   15SAPS  H18X 1993   0.641   4.365   8.135  1.8812 -1.5781  2.4545
   15SAPS  H18Y 1994   0.769   4.243   8.067  0.8456 -0.8223 -2.2190
   15SAPS  H18Z 1995   0.589   4.216   8.048  0.8520  0.0536 -1.9783
   16SAPS     N 1996   3.587   5.977   6.501  0.0718 -0.1965 -0.1655
   16SAPS   HN1 1997   3.514   6.040   6.462 -2.5657  0.3088  4.7245
   16SAPS   HN2 1998   3.528   5.915   6.561 -3.5608  2.3235 -0.8290
   16SAPS   HN3 1999   3.664   6.024   6.553 -0.8167  0.2476  0.7909
   16SAPS   C12 2000   3.652   5.892   6.391 -0.1924 -0.0206 -0.2323
   16SAPS  H12A 2001   3.572   5.849   6.334 -1.3382  0.1451  1.1815
   16SAPS   C13 2002   3.747   5.964   6.297  0.0883  0.4306  0.2046
   16SAPS  O13A 2003   3.806   6.065   6.333  0.3647 -0.0255 -0.0585
   16SAPS  O13B 2004   3.796   5.896   6.198  0.1465 -0.0781  0.0324
   16SAPS   C11 2005   3.733   5.784   6.470  0.1360 -0.4220 -0.3385
   16SAPS  H11A 2006   3.783   5.843   6.550 -2.9861 -0.6964  2.0314
   16SAPS  H11B 2007   3.809   5.726   6.414  2.6420 -0.4414  2.8577
   16SAPS     P 2008   3.692   5.583   6.614  0.0569  0.5227 -0.1150
   16SAPS   O13 2009   3.606   5.459   6.613 -0.0881  0.0713 -0.2663
   16SAPS   O14 2010   3.827   5.549   6.568 -0.6337  0.1020  0.2899
   16SAPS   O12 2011   3.630   5.693   6.529 -0.1207 -0.2560  0.3894
   16SAPS   O11 2012   3.691   5.657   6.749  0.4633 -0.3682  0.5907
   16SAPS    C1 2013   3.558   5.700   6.792 -0.1546 -0.7142  0.1780
   16SAPS    HA 2014   3.525   5.800   6.756  1.7071  1.3113  3.5327
   16SAPS    HB 2015   3.475   5.631   6.767 -0.4045 -0.3866  0.0825
   16SAPS    C2 2016   3.550   5.707   6.943  0.2971  0.3942  0.6250
   16SAPS    HS 2017   3.455   5.760   6.965  0.0791  0.1817  0.1986
   16SAPS   O21 2018   3.661   5.768   7.010 -0.1747  0.5770 -0.0579
   16SAPS   C21 2019   3.655   5.896   7.019 -0.0770  0.4194 -0.5410
   16SAPS   O22 2020   3.571   5.971   6.978  0.4743  0.8255 -0.0997
   16SAPS   C22 2021   3.780   5.938   7.097  0.5419  0.5408  0.0772
   16SAPS   H2R 2022   3.868   5.956   7.032 -0.6002  1.6684 -1.2135
   16SAPS   H2S 2023   3.755   6.041   7.132  1.7836  0.0479  2.7220
   16SAPS    C3 2024   3.524   5.569   7.013 -0.7791 -0.4069  0.1201
   16SAPS    HX 2025   3.611   5.506   6.985 -0.4181 -0.2198  0.8008
   16SAPS    HY 2026   3.435   5.523   6.965 -1.3659  3.0902 -2.6227
   16SAPS   O31 2027   3.508   5.574   7.158  0.0524  0.1146  0.0175
   16SAPS   C31 2028   3.398   5.630   7.205  0.0962  0.7430  0.1265
   16SAPS   O32 2029   3.302   5.661   7.135  0.4990 -1.0861  0.2981
   16SAPS   C32 2030   3.420   5.652   7.356 -0.0882 -0.4017 -0.0793
   16SAPS   H2X 2031   3.503   5.726   7.366  0.4346 -0.9813 -0.1116
   16SAPS   H2Y 2032   3.462   5.560   7.401 -0.0544 -0.2339  0.2321
   16SAPS   C23 2033   3.821   5.853   7.219  0.6028 -0.4356 -0.7039
   16SAPS   H3R 2034   3.882   5.764   7.194 -1.7220 -2.3903  0.0922
   16SAPS   H3S 2035   3.722   5.825   7.263  1.4314  0.1123  1.6383
   16SAPS   C24 2036   3.877   5.936   7.343  0.1977  0.4598  0.5312
   16SAPS   H4R 2037   3.976   5.976   7.313  1.5688 -2.4082  0.8860
   16SAPS   H4S 2038   3.902   5.858   7.418  0.6806  1.1968  1.1489
   16SAPS   C25 2039   3.782   6.037   7.400  0.1276 -0.9785  0.5524
   16SAPS   H5R 2040   3.800   6.138   7.359  1.0729 -1.5640 -0.5266
   16SAPS   C26 2041   3.705   6.038   7.511  0.1695 -0.2877 -0.4983
   16SAPS   H6R 2042   3.640   6.124   7.532  0.3253 -0.4347  0.6824
   16SAPS   C27 2043   3.694   5.918   7.603  0.4318 -0.1431 -0.1190
   16SAPS   H7R 2044   3.680   5.832   7.534  0.0662 -1.3343  1.3931
   16SAPS   H7S 2045   3.599   5.935   7.658 -0.3911  2.7262 -2.1697
   16SAPS   C28 2046   3.817   5.883   7.682 -0.3211 -0.1415  0.4218
   16SAPS   H8R 2047   3.902   5.873   7.612 -1.1601 -0.8436 -0.5234
   16SAPS   C29 2048   3.828   5.875   7.819 -0.8211 -0.4453  0.3200
   16SAPS   H9R 2049   3.928   5.846   7.852 -0.3609  1.1250  0.4102
   16SAPS  C210 2050   3.714   5.894   7.913 -0.5578  0.5306 -0.6158
   16SAPS  H10R 2051   3.633   5.821   7.891 -1.4767  1.5047 -0.5763
   16SAPS  H10S 2052   3.677   5.998   7.923 -0.2307  0.4281  3.5524
   16SAPS  C211 2053   3.761   5.854   8.048  0.3858  1.1144  0.3210
   16SAPS  H11R 2054   3.857   5.800   8.045 -0.5533 -0.6089 -2.4814
   16SAPS  C212 2055   3.696   5.872   8.163  0.0441  0.7614 -0.2282
   16SAPS  H12R 2056   3.739   5.823   8.251 -0.9476 -2.0827 -1.1841
   16SAPS  C213 2057   3.562   5.940   8.186  0.1273 -0.1044 -0.2856
   16SAPS  H13R 2058   3.485   5.865   8.158  0.4195 -1.7153  2.7453
   16SAPS  H13S 2059   3.546   6.025   8.117  0.1982  0.0391 -0.1245
   16SAPS  C214 2060   3.548   5.993   8.326 -0.3266  0.2811  0.0536
   16SAPS  H14R 2061   3.611   6.083   8.337 -1.3641  1.6583 -3.7873
   16SAPS  C215 2062   3.470   5.945   8.420  0.1593 -0.3385  0.1722
   16SAPS  H15R 2063   3.477   6.010   8.508  0.9159  1.7864 -1.3587
   16SAPS  C216 2064   3.375   5.826   8.415  0.8897 -0.6059 -0.3905
   16SAPS  H16R 2065   3.352   5.793   8.518 -3.5163  0.4438 -0.8414
   16SAPS  H16S 2066   3.412   5.731   8.370  0.3915 -1.1052  0.2394
   16SAPS  C217 2067   3.240   5.852   8.341 -0.6666  0.2221 -0.7317
   16SAPS  H17R 2068   3.185   5.757   8.321 -1.5322  0.7570 -0.8998
   16SAPS  H17S 2069   3.249   5.893   8.239  2.4246  1.8978  0.0888
   16SAPS  C218 2070   3.149   5.947   8.418  0.1089 -0.0014  0.3004
   16SAPS  H18R 2071   3.199   6.045   8.425 -2.2823  1.1756  4.4580
   16SAPS  H18S 2072   3.137   5.918   8.525 -0.8005  0.1892  0.2637
   16SAPS  C219 2073   3.026   5.962   8.330  0.3851  0.3502 -0.3406
   16SAPS  H19R 2074   2.948   5.999   8.400 -0.0458 -0.5038 -0.3616
   16SAPS  H19S 2075   3.005   5.855   8.308  4.0454 -0.5366 -0.0543
   16SAPS  C220 2076   3.030   6.034   8.197  0.7253 -0.5441 -0.7298
   16SAPS  H20R 2077   2.931   6.023   8.148 -0.0383 -0.7519  0.8136
   16SAPS  H20S 2078   3.105   5.988   8.129  1.3939 -1.2241  0.4372
   16SAPS  H20T 2079   3.064   6.137   8.219 -1.5800 -0.2768  2.1730
   16SAPS   C33 2080   3.294   5.693   7.432  0.7183  0.0794 -0.1758
   16SAPS   H3X 2081   3.222   5.610   7.420 -1.3918  1.6541  0.8050
   16SAPS   H3Y 2082   3.248   5.778   7.377 -1.2656 -0.5976  0.3510
   16SAPS   C34 2083   3.308   5.724   7.581 -0.3697 -0.3050  1.2315
   16SAPS   H4X 2084   3.223   5.787   7.617 -0.7526  0.2560 -0.5558
   16SAPS   H4Y 2085   3.403   5.778   7.599  0.0168 -1.0170  1.3472
   16SAPS   C35 2086   3.317   5.604   7.675 -0.0716  0.1828  0.2053
   16SAPS   H5X 2087   3.419   5.564   7.657  0.2473  1.2843 -0.5309
   16SAPS   H5Y 2088   3.238   5.532   7.645 -0.4782  1.5495 -2.2720
   16SAPS   C36 2089   3.294   5.646   7.814  0.1130 -0.1257  0.0106
   16SAPS   H6X 2090   3.209   5.716   7.831  0.3215 -0.1619  1.3358
   16SAPS   H6Y 2091   3.388   5.691   7.851  0.3242 -0.9845  0.5538
   16SAPS   C37 2092   3.269   5.522   7.904  0.3227  0.5305 -0.1804
   16SAPS   H7X 2093   3.369   5.474   7.896 -0.0210 -0.0220 -1.4990
   16SAPS   H7Y 2094   3.200   5.444   7.865  1.7250 -2.5972  2.9381
   16SAPS   C38 2095   3.237   5.547   8.055 -0.1650 -0.1722 -0.0767
   16SAPS   H8X 2096   3.130   5.574   8.059 -0.9872 -3.2336  0.6540
   16SAPS   H8Y 2097   3.294   5.637   8.090 -1.0384  0.6969 -0.8475
   16SAPS   C39 2098   3.266   5.432   8.142  0.3995 -0.2067 -0.1648
   16SAPS   H9X 2099   3.220   5.341   8.096 -1.1982  1.6558 -2.4835
   16SAPS   H9Y 2100   3.210   5.442   8.237  0.0566 -2.1239 -0.1096
   16SAPS  C310 2101   3.417   5.406   8.169 -0.1066  0.2662  0.0050
   16SAPS  H10X 2102   3.436   5.438   8.274 -1.2106 -1.7981  0.8919
   16SAPS  H10Y 2103   3.480   5.467   8.101 -0.6085 -0.6260 -1.2870
   16SAPS  C311 2104   3.463   5.263   8.143  0.0966  0.5493 -0.4848
   16SAPS  H11X 2105   3.566   5.247   8.180 -0.6851 -1.6067  0.9559
   16SAPS  H11Y 2106   3.468   5.246   8.033 -1.9934  1.2436 -0.7292
   16SAPS  C312 2107   3.370   5.159   8.203 -0.2609 -0.1173 -0.6001
   16SAPS  H12X 2108   3.292   5.134   8.129  1.3352 -1.1731 -1.9971
   16SAPS  H12Y 2109   3.320   5.205   8.291 -1.5426  0.0057 -1.3742
   16SAPS  C313 2110   3.441   5.031   8.248  0.6197  0.4983  0.1744
   16SAPS  H13X 2111   3.504   5.065   8.333 -0.1534  3.4726 -0.3353
   16SAPS  H13Y 2112   3.494   4.979   8.165  1.2766 -1.2568  1.6331
   16SAPS  C314 2113   3.329   4.929   8.287  0.0710  0.1657  0.1964
   16SAPS  H14X 2114   3.382   4.831   8.290  0.6088  0.4539  0.1662
   16SAPS  H14Y 2115   3.257   4.917   8.203 -0.6460  0.4935  0.7525
   16SAPS  C315 2116   3.257   4.954   8.417 -0.4465  0.6238  0.3774
   16SAPS  H15X 2117   3.248   5.063   8.437  0.4092  0.8080 -0.2056
   16SAPS  H15Y 2118   3.327   4.917   8.495 -0.5323 -0.4963 -0.0621
   16SAPS  C316 2119   3.135   4.860   8.430  0.2047  0.0012 -0.9477
   16SAPS  H16X 2120   3.052   4.900   8.368 -1.9193  0.4322  1.9363
   16SAPS  H16Y 2121   3.092   4.878   8.531 -2.7265 -1.2345 -1.8506
   16SAPS  C317 2122   3.143   4.708   8.408 -0.7959  0.1859  0.3563
   16SAPS  H17X 2123   3.159   4.681   8.302  0.3762  5.1497 -1.0280
   16SAPS  H17Y 2124   3.048   4.656   8.428 -3.2025  3.1594 -2.2282
   16SAPS  C318 2125   3.253   4.651   8.506  0.2989 -0.5787  0.4437
   16SAPS  H18X 2126   3.217   4.667   8.610 -2.3826 -1.5824 -0.2290
   16SAPS  H18Y 2127   3.346   4.708   8.487  0.7215 -1.9638 -2.0794
   16SAPS  H18Z 2128   3.284   4.546   8.487  0.7035 -0.6086  1.2232
   17SAPC     N 2129   6.547   1.390  10.626  0.6358  0.3381  0.7088
   17SAPC   C12 2130   6.592   1.275  10.538 -0.5909 -0.2756  0.0795
   17SAPC  H12A 2131   6.514   1.202  10.529 -0.6361 -0.3695  1.1199
   17SAPC  H12B 2132   6.673   1.221  10.584 -1.6979 -0.2689  2.1913
   17SAPC   C13 2133   6.413   1.426  10.565 -0.9256  0.0577 -0.3055
   17SAPC  H13A 2134   6.429   1.491  10.480  0.2120  0.9493  0.5548
   17SAPC  H13B 2135   6.360   1.340  10.527 -0.1059 -0.6518  0.1024
   17SAPC  H13C 2136   6.359   1.485  10.638 -1.7446 -1.0960  0.0515
   17SAPC   C14 2137   6.521   1.332  10.763 -0.0471 -0.4469  0.5587
   17SAPC  H14A 2138   6.471   1.410  10.820  0.6419  0.2506  0.2311
   17SAPC  H14B 2139   6.452   1.250  10.760 -1.7053  0.9118  0.0279
   17SAPC  H14C 2140   6.609   1.315  10.823  0.0632  0.2117  0.5972
   17SAPC   C15 2141   6.651   1.497  10.629  0.9962  0.6479  0.5263
   17SAPC  H15A 2142   6.676   1.528  10.529  0.5434  1.0675  0.5427
   17SAPC  H15B 2143   6.612   1.586  10.675 -1.0126  1.1602 -1.9819
   17SAPC  H15C 2144   6.734   1.465  10.691  0.1120 -1.5165  0.6878
   17SAPC   C11 2145   6.640   1.303  10.395 -0.1583 -0.2994  0.9734
   17SAPC  H11A 2146   6.572   1.366  10.333 -1.4020  0.1716  2.7381
   17SAPC  H11B 2147   6.650   1.209  10.337  1.0838 -0.0480  0.7545
   17SAPC     P 2148   6.907   1.294  10.417 -0.2240  0.1324 -0.3621
   17SAPC   O13 2149   7.019   1.385  10.388 -0.4966 -0.9925 -0.0293
   17SAPC   O14 2150   6.905   1.231  10.549 -0.2847 -0.0413  0.3427
   17SAPC   O12 2151   6.768   1.367  10.390  0.0482  0.2279  0.4466
   17SAPC   O11 2152   6.893   1.176  10.313  0.2797 -0.2544 -0.1670
   17SAPC    C1 2153   6.925   1.210  10.172  0.5520  0.2448 -1.1959
   17SAPC    HA 2154   6.869   1.300  10.140 -1.8454 -1.3192 -1.7372
   17SAPC    HB 2155   7.035   1.224  10.165  0.8755 -1.7584 -0.8966
   17SAPC    C2 2156   6.889   1.096  10.076 -0.1119 -0.0512  0.0253
   17SAPC    HS 2157   6.914   1.004  10.133 -0.8563  0.0967  0.6029
   17SAPC   O21 2158   6.972   1.112   9.956  0.6409 -0.5960 -0.7373
   17SAPC   C21 2159   6.986   1.004   9.882  0.7629  0.8911  0.6348
   17SAPC   O22 2160   6.941   0.889   9.906 -0.2728 -0.8068 -0.6636
   17SAPC   C22 2161   7.079   1.022   9.766  0.0366 -0.2657 -0.3275
   17SAPC   H2R 2162   7.024   1.078   9.687  1.4858  2.5513  0.5583
   17SAPC   H2S 2163   7.163   1.092   9.785 -0.1251  0.1954 -1.2834
   17SAPC    C3 2164   6.738   1.093  10.043 -0.2544  0.0497 -0.0722
   17SAPC    HX 2165   6.674   1.071  10.131 -2.6447  0.9002 -1.5078
   17SAPC    HY 2166   6.727   1.014   9.966 -0.4847  1.1092 -1.1677
   17SAPC   O31 2167   6.704   1.212   9.981  0.4203  0.0845 -0.3312
   17SAPC   C31 2168   6.571   1.236   9.964 -0.2553  0.3544 -0.1652
   17SAPC   O32 2169   6.481   1.161  10.005 -0.6571 -0.1537 -0.3140
   17SAPC   C32 2170   6.550   1.377   9.904  0.0247 -0.2868  0.2443
   17SAPC   H2X 2171   6.634   1.441   9.937  1.0877  0.3652 -3.2330
   17SAPC   H2Y 2172   6.462   1.420   9.956  0.5596  0.1638  0.7896
   17SAPC   C23 2173   7.126   0.879   9.703  0.0573  0.0858 -0.1721
   17SAPC   H3R 2174   7.035   0.833   9.659  0.0180 -1.2032  1.1963
   17SAPC   H3S 2175   7.163   0.816   9.786  1.7560 -0.1305 -1.0458
   17SAPC   C24 2176   7.226   0.906   9.588  0.4969  0.1255 -0.4453
   17SAPC   H4R 2177   7.323   0.936   9.634 -0.3800  3.5668 -0.5839
   17SAPC   H4S 2178   7.199   0.996   9.529 -1.9791  0.1421  0.5965
   17SAPC   C25 2179   7.254   0.784   9.505 -0.2268 -0.4652 -0.3134
   17SAPC   H5R 2180   7.287   0.701   9.569 -0.3242 -0.1450  0.1623
   17SAPC   C26 2181   7.251   0.769   9.371 -0.5510  0.1371 -0.1291
   17SAPC   H6R 2182   7.290   0.681   9.317  0.7376  1.2058 -1.0229
   17SAPC   C27 2183   7.207   0.887   9.284  0.3453  0.4448  0.4314
   17SAPC   H7R 2184   7.290   0.961   9.280  1.5424 -0.9340 -0.8200
   17SAPC   H7S 2185   7.122   0.946   9.327  1.6817  1.8639  1.2605
   17SAPC   C28 2186   7.165   0.835   9.146 -0.3041  0.0004 -0.3156
   17SAPC   H8R 2187   7.193   0.732   9.119 -0.3709  0.1712 -1.0665
   17SAPC   C29 2188   7.110   0.913   9.048 -0.4186  0.0430  0.3248
   17SAPC   H9R 2189   7.083   0.869   8.951  2.1086 -0.2766 -0.3017
   17SAPC  C210 2190   7.086   1.060   9.064 -0.5988 -0.5092 -0.0087
   17SAPC  H10R 2191   7.082   1.093   9.170 -0.7237  0.8146 -0.4171
   17SAPC  H10S 2192   6.987   1.087   9.020 -0.3178 -1.1307 -1.0727
   17SAPC  C211 2193   7.196   1.134   8.992 -0.0807  0.0243 -0.3967
   17SAPC  H11R 2194   7.301   1.134   9.024 -0.4623  1.4067  0.9901
   17SAPC  C212 2195   7.182   1.199   8.874  0.2559 -0.2778  1.1672
   17SAPC  H12R 2196   7.268   1.255   8.836  0.0444 -0.6976  0.0284
   17SAPC  C213 2197   7.049   1.218   8.798 -0.6598  0.0259 -0.1405
   17SAPC  H13R 2198   6.971   1.147   8.834 -2.1864  0.8829 -1.6035
   17SAPC  H13S 2199   7.077   1.183   8.696 -3.0920 -1.4356 -0.3857
   17SAPC  C214 2200   7.007   1.364   8.793 -0.0312  0.0585  0.5637
   17SAPC  H14R 2201   7.086   1.435   8.822 -3.1042  2.9617  2.5082
   17SAPC  C215 2202   6.888   1.414   8.767 -0.5520  0.7617  0.1940
   17SAPC  H15R 2203   6.870   1.520   8.745 -3.0820 -0.1109 -2.6085
   17SAPC  C216 2204   6.770   1.329   8.721  0.5359  0.0083 -0.1484
   17SAPC  H16R 2205   6.799   1.223   8.737 -0.7682 -0.1913  1.0705
   17SAPC  H16S 2206   6.757   1.352   8.613 -2.1260  1.0799  0.3371
   17SAPC  C217 2207   6.639   1.358   8.795  0.7143 -0.0107  0.1327
   17SAPC  H17R 2208   6.615   1.465   8.775  2.9951  0.5690  0.2279
   17SAPC  H17S 2209   6.661   1.371   8.903  1.8745  0.2623 -0.1234
   17SAPC  C218 2210   6.536   1.258   8.759  0.6395  0.0876 -0.1789
   17SAPC  H18R 2211   6.480   1.224   8.849 -1.4848  0.1562 -1.4099
   17SAPC  H18S 2212   6.582   1.168   8.715  1.4519  1.2372 -1.7941
   17SAPC  C219 2213   6.437   1.307   8.653  0.9693 -0.3511  0.1989
   17SAPC  H19R 2214   6.483   1.318   8.553  0.8761 -0.6351  0.1249
   17SAPC  H19S 2215   6.400   1.406   8.688  1.3642  0.3704 -1.3714
   17SAPC  C220 2216   6.320   1.212   8.631  0.0884 -0.6812  0.0463
   17SAPC  H20R 2217   6.245   1.248   8.557 -0.9303  1.1230  1.8659
   17SAPC  H20S 2218   6.252   1.215   8.719 -0.6648 -0.3647 -0.5302
   17SAPC  H20T 2219   6.349   1.109   8.602 -2.3882 -0.6030 -3.4283
   17SAPC   C33 2220   6.514   1.375   9.754  0.5834  0.5734  0.2001
   17SAPC   H3X 2221   6.446   1.460   9.735 -1.4636 -1.3312 -1.7497
   17SAPC   H3Y 2222   6.452   1.284   9.735  0.2131  0.6868  0.8278
   17SAPC   C34 2223   6.644   1.376   9.666 -1.1033 -0.7141  0.8608
   17SAPC   H4X 2224   6.717   1.301   9.703  0.1230 -0.5215 -1.0195
   17SAPC   H4Y 2225   6.698   1.473   9.657  0.2881 -1.4838  0.6702
   17SAPC   C35 2226   6.607   1.329   9.520  0.2085  0.1726 -0.0228
   17SAPC   H5X 2227   6.519   1.385   9.481 -0.2319  0.4302  1.2850
   17SAPC   H5Y 2228   6.572   1.225   9.534 -0.5513  0.2826 -1.0365
   17SAPC   C36 2229   6.725   1.329   9.428 -0.3798 -0.0161  0.3037
   17SAPC   H6X 2230   6.782   1.241   9.465  0.2699 -0.3483 -1.3949
   17SAPC   H6Y 2231   6.792   1.416   9.446  0.2140 -0.8147  2.1666
   17SAPC   C37 2232   6.697   1.317   9.281 -0.3844  0.1392 -0.0697
   17SAPC   H7X 2233   6.762   1.383   9.221  1.6139 -0.0625  1.7731
   17SAPC   H7Y 2234   6.592   1.347   9.260 -1.0269 -1.4197  0.6831
   17SAPC   C38 2235   6.720   1.167   9.236 -0.7230  0.1449  0.0861
   17SAPC   H8X 2236   6.677   1.101   9.314 -0.6077  0.1000  0.1119
   17SAPC   H8Y 2237   6.830   1.161   9.247 -0.9000 -1.3893  1.3385
   17SAPC   C39 2238   6.677   1.131   9.098  0.2026 -0.0970 -0.8771
   17SAPC   H9X 2239   6.740   1.182   9.023 -0.0745  2.6946  0.6241
   17SAPC   H9Y 2240   6.575   1.173   9.086  0.4950  1.5741  1.7099
   17SAPC  C310 2241   6.701   0.985   9.065  0.4762  1.1267 -0.3401
   17SAPC  H10X 2242   6.646   0.918   9.135 -3.4597  3.6844 -0.6880
   17SAPC  H10Y 2243   6.809   0.959   9.066  0.0566 -1.1866 -2.5375
   17SAPC  C311 2244   6.653   0.952   8.929 -0.5204 -0.2642  0.6592
   17SAPC  H11X 2245   6.686   1.022   8.850  1.7833  0.2194  1.9733
   17SAPC  H11Y 2246   6.543   0.961   8.945 -0.1859  2.8784  1.9547
   17SAPC  C312 2247   6.685   0.816   8.870  0.1598  0.2318 -0.1363
   17SAPC  H12X 2248   6.687   0.746   8.956  1.5073  0.3421 -0.0587
   17SAPC  H12Y 2249   6.788   0.806   8.830 -1.3419 -0.7801 -4.2707
   17SAPC  C313 2250   6.599   0.766   8.753  0.4720  0.4206  0.3027
   17SAPC  H13X 2251   6.491   0.761   8.778 -0.0462 -4.1152 -1.8959
   17SAPC  H13Y 2252   6.628   0.661   8.730 -1.2659 -0.6436  2.6050
   17SAPC  C314 2253   6.604   0.856   8.623 -0.0562  0.3593 -0.0663
   17SAPC  H14X 2254   6.562   0.953   8.657  0.8036  1.5496 -2.1953
   17SAPC  H14Y 2255   6.532   0.810   8.552 -0.3525  1.2544 -0.3582
   17SAPC  C315 2256   6.745   0.850   8.566  0.2124 -0.0655  0.7543
   17SAPC  H15X 2257   6.785   0.748   8.549 -1.1219 -0.8074  1.8522
   17SAPC  H15Y 2258   6.813   0.915   8.625 -0.0780  0.9982 -0.0391
   17SAPC  C316 2259   6.756   0.926   8.434 -0.2744 -0.1444  0.4034
   17SAPC  H16X 2260   6.707   1.024   8.454  0.0113  0.1226 -0.1633
   17SAPC  H16Y 2261   6.689   0.874   8.361  0.4263 -0.2236 -0.1904
   17SAPC  C317 2262   6.906   0.939   8.391 -0.0786 -0.3824  0.6178
   17SAPC  H17X 2263   6.941   0.838   8.422  0.1170 -0.6891 -0.5362
   17SAPC  H17Y 2264   6.968   1.012   8.447  0.0938  0.0834 -0.1659
   17SAPC  C318 2265   6.929   0.959   8.234 -0.2517 -0.8494 -0.1765
   17SAPC  H18X 2266   6.866   0.891   8.172  0.2218  1.1837 -3.0803
   17SAPC  H18Y 2267   6.921   1.066   8.206 -2.1887 -1.0925 -0.7330
   17SAPC  H18Z 2268   7.030   0.921   8.211  1.4605  2.7992  0.6332
   18SAPC     N 2269   0.757   1.631  10.467 -0.0914  0.2063  0.6096
   18SAPC   C12 2270   0.716   1.737  10.361  0.2771 -0.3364 -0.0904
   18SAPC  H12A 2271   0.810   1.764  10.316  0.3377 -0.0318  0.2157
   18SAPC  H12B 2272   0.678   1.824  10.413 -0.9314 -1.0859  0.3167
   18SAPC   C13 2273   0.647   1.602  10.563  0.5064  0.0909 -0.0870
   18SAPC  H13A 2274   0.564   1.567  10.503  0.6654 -1.1209  0.3606
   18SAPC  H13B 2275   0.682   1.526  10.633  0.3720  0.0805 -0.0305
   18SAPC  H13C 2276   0.605   1.687  10.614  0.8761 -0.2772  0.8767
   18SAPC   C14 2277   0.790   1.499  10.401 -0.4042 -0.9622 -0.6272
   18SAPC  H14A 2278   0.703   1.465  10.347 -1.0257 -0.5118  0.0705
   18SAPC  H14B 2279   0.870   1.500  10.328 -0.2244 -1.2236 -0.4375
   18SAPC  H14C 2280   0.803   1.422  10.476  1.4966  0.4750  0.6226
   18SAPC   C15 2281   0.877   1.678  10.546 -0.8010  0.2286 -0.4268
   18SAPC  H15A 2282   0.899   1.604  10.621 -0.8034  0.0091 -0.6422
   18SAPC  H15B 2283   0.963   1.689  10.481  0.1518  1.8350  1.0239
   18SAPC  H15C 2284   0.857   1.777  10.584  3.0106  0.6710  0.8224
   18SAPC   C11 2285   0.605   1.709  10.258 -0.2266  0.4516  0.0716
   18SAPC  H11A 2286   0.624   1.619  10.196 -0.2144  0.1676  0.4801
   18SAPC  H11B 2287   0.610   1.789  10.181  1.8111 -0.1407 -0.4597
   18SAPC     P 2288   0.378   1.802  10.351  0.1141 -0.0677  0.2040
   18SAPC   O13 2289   0.233   1.769  10.334 -0.0827  0.0521 -0.2423
   18SAPC   O14 2290   0.408   1.844  10.490  0.5294  0.5861 -0.1310
   18SAPC   O12 2291   0.475   1.680  10.320  0.4731  0.0687  0.0636
   18SAPC   O11 2292   0.426   1.913  10.252 -0.0866 -0.6560  0.5221
   18SAPC    C1 2293   0.506   2.030  10.279  0.2944 -0.2001  0.1118
   18SAPC    HA 2294   0.484   2.065  10.382 -3.0398  2.2076 -1.2302
   18SAPC    HB 2295   0.613   2.002  10.267 -0.2981 -1.7186 -2.5275
   18SAPC    C2 2296   0.485   2.153  10.187  0.3158  0.5688 -0.2295
   18SAPC    HS 2297   0.380   2.187  10.203 -0.5337 -1.5122 -1.0130
   18SAPC   O21 2298   0.509   2.109  10.051  0.0205  0.4335  0.4037
   18SAPC   C21 2299   0.408   2.027  10.010 -0.3977  0.5801  0.5835
   18SAPC   O22 2300   0.294   2.027  10.053 -0.3902 -0.2862  0.0585
   18SAPC   C22 2301   0.463   1.938   9.899  0.4315  0.4472 -0.1485
   18SAPC   H2R 2302   0.574   1.943   9.899  0.7053 -2.7599 -1.7105
   18SAPC   H2S 2303   0.437   1.836   9.937  1.2820  1.2256  2.7686
   18SAPC    C3 2304   0.573   2.280  10.216  0.4493 -0.2983 -0.1254
   18SAPC    HX 2305   0.675   2.238  10.226  0.1858 -0.8568  0.2288
   18SAPC    HY 2306   0.541   2.332  10.308 -0.0652  0.3360 -0.6510
   18SAPC   O31 2307   0.564   2.377  10.106 -0.2372 -0.3141 -0.6517
   18SAPC   C31 2308   0.667   2.443  10.068 -0.0438 -0.1786 -0.1702
   18SAPC   O32 2309   0.782   2.423  10.109  0.6832  0.1123 -0.0879
   18SAPC   C32 2310   0.628   2.552   9.968  0.3161  1.0637 -0.1813
   18SAPC   H2X 2311   0.611   2.646  10.026 -0.4026 -0.1677  1.7039
   18SAPC   H2Y 2312   0.531   2.517   9.925 -0.1913  1.8364  0.2981
   18SAPC   C23 2313   0.392   1.939   9.765 -0.5988 -0.4875  0.2923
   18SAPC   H3R 2314   0.285   1.963   9.785 -0.8906 -0.1152 -1.5777
   18SAPC   H3S 2315   0.388   1.841   9.713 -2.3760  0.2779 -1.1012
   18SAPC   C24 2316   0.449   2.028   9.650 -0.2303  0.4768  0.4264
   18SAPC   H4R 2317   0.410   1.988   9.554 -3.1723 -0.7550  2.0214
   18SAPC   H4S 2318   0.554   1.999   9.626 -0.8655 -1.4620 -0.1926
   18SAPC   C25 2319   0.413   2.170   9.665  0.4629  0.1630  0.4723
   18SAPC   H5R 2320   0.306   2.189   9.677 -0.2900 -3.8964  1.6210
   18SAPC   C26 2321   0.508   2.263   9.688  0.7552  0.6320 -0.0891
   18SAPC   H6R 2322   0.477   2.365   9.715 -0.5857  0.1297  0.3547
   18SAPC   C27 2323   0.656   2.235   9.690 -0.0416 -0.2561  0.1434
   18SAPC   H7R 2324   0.696   2.333   9.655 -0.0649 -0.5269 -0.6700
   18SAPC   H7S 2325   0.689   2.158   9.616  0.4722 -0.0283  0.1323
   18SAPC   C28 2326   0.724   2.199   9.821 -0.0219  0.0878  0.0659
   18SAPC   H8R 2327   0.647   2.190   9.900 -2.0234  3.7029 -1.2386
   18SAPC   C29 2328   0.850   2.178   9.836 -0.0272  0.3920  0.0229
   18SAPC   H9R 2329   0.880   2.150   9.938  1.0775  1.2491 -0.0405
   18SAPC  C210 2330   0.954   2.189   9.727  0.0386 -0.0517 -0.2113
   18SAPC  H10R 2331   0.944   2.285   9.673  1.9487  1.2474  1.5900
   18SAPC  H10S 2332   0.931   2.103   9.659  0.3089 -1.0622  0.9378
   18SAPC  C211 2333   1.102   2.182   9.772  0.1677 -0.7308 -0.0519
   18SAPC  H11R 2334   1.133   2.201   9.875 -0.8878 -1.7996  0.4895
   18SAPC  C212 2335   1.192   2.174   9.671 -0.7465 -0.4929  0.3234
   18SAPC  H12R 2336   1.297   2.148   9.691 -0.7780 -1.1277 -0.3081
   18SAPC  C213 2337   1.165   2.172   9.519 -0.4245 -0.0765 -0.7127
   18SAPC  H13R 2338   1.088   2.243   9.483 -0.5050 -0.7498 -1.9139
   18SAPC  H13S 2339   1.125   2.072   9.491 -1.0510  0.2830 -1.1135
   18SAPC  C214 2340   1.294   2.198   9.443  0.1396  0.2715  0.2327
   18SAPC  H14R 2341   1.383   2.171   9.501 -0.4466  2.1566  2.1710
   18SAPC  C215 2342   1.303   2.242   9.315  0.7853  0.3412  0.3767
   18SAPC  H15R 2343   1.404   2.266   9.277  0.9041 -0.5016  0.1265
   18SAPC  C216 2344   1.193   2.287   9.230  0.0529  0.4689  0.6155
   18SAPC  H16R 2345   1.185   2.398   9.235 -0.0179  0.4652  0.5842
   18SAPC  H16S 2346   1.093   2.261   9.271  0.8231 -1.3847  1.4365
   18SAPC  C217 2347   1.208   2.227   9.084 -0.7317 -0.4263  0.0296
   18SAPC  H17R 2348   1.185   2.119   9.090 -2.3290 -0.0755  0.7515
   18SAPC  H17S 2349   1.308   2.236   9.036 -0.2647 -1.9212  0.6822
   18SAPC  C218 2350   1.099   2.304   9.003 -0.0131 -0.9144  0.1514
   18SAPC  H18R 2351   1.143   2.403   8.979  3.7449 -2.3470  0.4411
   18SAPC  H18S 2352   1.006   2.317   9.062 -1.2201  1.2026 -2.0527
   18SAPC  C219 2353   1.063   2.226   8.879 -0.5797  0.3761 -0.0548
   18SAPC  H19R 2354   1.062   2.120   8.913 -0.0392 -0.4997 -2.5793
   18SAPC  H19S 2355   1.139   2.230   8.798 -0.3349  0.3339  0.1689
   18SAPC  C220 2356   0.926   2.244   8.807 -1.0326 -0.8038 -0.7731
   18SAPC  H20R 2357   0.931   2.208   8.702 -1.1914  1.4535 -1.6092
   18SAPC  H20S 2358   0.904   2.353   8.803  0.5178 -0.3197  1.7292
   18SAPC  H20T 2359   0.847   2.190   8.864  1.1762 -1.2405  2.0927
   18SAPC   C33 2360   0.739   2.563   9.862 -0.7054  0.3721 -0.2813
   18SAPC   H3X 2361   0.768   2.460   9.832  1.1709  1.1995 -1.5545
   18SAPC   H3Y 2362   0.827   2.617   9.904  1.0314 -3.1189  0.9385
   18SAPC   C34 2363   0.695   2.636   9.734  0.1504  0.5703 -0.2925
   18SAPC   H4X 2364   0.663   2.743   9.742  0.6493  0.7513 -0.6862
   18SAPC   H4Y 2365   0.611   2.576   9.694 -0.5019  1.5626 -0.4687
   18SAPC   C35 2366   0.798   2.639   9.618  0.6248 -0.0293 -0.1018
   18SAPC   H5X 2367   0.837   2.536   9.604 -1.2656 -1.1695  2.2299
   18SAPC   H5Y 2368   0.881   2.712   9.627  2.4306 -1.8126 -1.4575
   18SAPC   C36 2369   0.734   2.683   9.483  0.0428  0.0478  0.2198
   18SAPC   H6X 2370   0.813   2.699   9.407  1.3949  0.6467  1.6875
   18SAPC   H6Y 2371   0.695   2.786   9.496  0.9142  0.5767 -1.1835
   18SAPC   C37 2372   0.651   2.571   9.421  0.4646 -0.0281 -0.6971
   18SAPC   H7X 2373   0.607   2.624   9.334 -0.8279 -1.1552 -0.7578
   18SAPC   H7Y 2374   0.568   2.559   9.494  0.9879 -0.8547 -0.2240
   18SAPC   C38 2375   0.715   2.437   9.372  0.5309 -0.2271  0.2999
   18SAPC   H8X 2376   0.771   2.391   9.457  0.2189 -0.1982  0.5233
   18SAPC   H8Y 2377   0.778   2.456   9.283 -0.6321 -0.0168 -0.5056
   18SAPC   C39 2378   0.596   2.335   9.341  1.2744  0.6233  0.7897
   18SAPC   H9X 2379   0.503   2.393   9.323 -0.5721 -2.6803 -1.4905
   18SAPC   H9Y 2380   0.573   2.266   9.425  2.7005 -0.9560 -0.0623
   18SAPC  C310 2381   0.626   2.254   9.213 -0.0414  0.8300 -0.4142
   18SAPC  H10X 2382   0.572   2.158   9.211 -0.8795  1.3040 -0.9766
   18SAPC  H10Y 2383   0.734   2.230   9.199 -0.1221  0.1758  0.0308
   18SAPC  C311 2384   0.615   2.315   9.074 -0.7269 -0.1168 -0.1843
   18SAPC  H11X 2385   0.665   2.252   8.997 -1.2008  0.5664 -1.0760
   18SAPC  H11Y 2386   0.676   2.407   9.078  0.0184 -0.5788 -0.6416
   18SAPC  C312 2387   0.474   2.338   9.036  0.1192 -0.1418  0.8934
   18SAPC  H12X 2388   0.447   2.419   9.107 -0.7400 -0.1349  0.5754
   18SAPC  H12Y 2389   0.403   2.252   9.039  1.6061 -1.4448  0.0442
   18SAPC  C313 2390   0.448   2.394   8.890  0.3607  0.2509 -0.5126
   18SAPC  H13X 2391   0.501   2.491   8.878  1.8879 -0.4897  0.0129
   18SAPC  H13Y 2392   0.341   2.417   8.871  0.4259  2.5167  1.4021
   18SAPC  C314 2393   0.499   2.299   8.785 -0.2257  0.1883  0.1783
   18SAPC  H14X 2394   0.480   2.193   8.813 -0.0559 -0.0051 -0.4237
   18SAPC  H14Y 2395   0.609   2.306   8.786 -0.2026 -0.2314  0.8429
   18SAPC  C315 2396   0.433   2.331   8.656 -0.1441 -0.4540 -0.0809
   18SAPC  H15X 2397   0.489   2.280   8.575 -0.1089  2.1772 -1.8148
   18SAPC  H15Y 2398   0.423   2.439   8.633 -1.4159 -0.1287  1.8111
   18SAPC  C316 2399   0.286   2.276   8.636  0.6711 -0.1279  0.0273
   18SAPC  H16X 2400   0.224   2.307   8.723  1.0660  0.4821  0.0961
   18SAPC  H16Y 2401   0.283   2.165   8.634 -0.4582 -0.4389  5.0123
   18SAPC  C317 2402   0.207   2.306   8.504 -0.2395  0.2366 -0.2605
   18SAPC  H17X 2403   0.273   2.283   8.417 -0.6317  0.4219 -0.6059
   18SAPC  H17Y 2404   0.189   2.415   8.501 -1.7950 -0.0283 -2.3348
   18SAPC  C318 2405   0.080   2.217   8.481  0.2494 -0.0359 -0.0203
   18SAPC  H18X 2406   0.011   2.235   8.566 -0.8405  0.7948 -1.0472
   18SAPC  H18Y 2407   0.101   2.108   8.483 -2.4642 -0.6183  2.6122
   18SAPC  H18Z 2408   0.032   2.247   8.385 -1.3546 -0.1471  0.7240
   19SAPC     N 2409   5.917   2.291  10.766  0.1373 -0.5832  0.1419
   19SAPC   C12 2410   5.852   2.155  10.753 -0.3661  0.1512 -0.5753
   19SAPC  H12A 2411   5.753   2.169  10.711 -2.0673 -1.7265  2.4167
   19SAPC  H12B 2412   5.846   2.116  10.853  1.8223 -0.1783 -0.5250
   19SAPC   C13 2413   5.830   2.380  10.855  0.2703 -0.0664  0.6378
   19SAPC  H13A 2414   5.728   2.379  10.819  0.1184 -0.2330  1.0745
   19SAPC  H13B 2415   5.819   2.341  10.955  0.8939 -0.0482  0.7183
   19SAPC  H13C 2416   5.870   2.480  10.857  1.7008 -0.6241  1.8101
   19SAPC   C14 2417   6.053   2.283  10.835 -0.3630  0.6291 -0.2292
   19SAPC  H14A 2418   6.071   2.378  10.884  0.0417 -0.8167  2.6267
   19SAPC  H14B 2419   6.046   2.214  10.918  2.3674  0.9745  0.3689
   19SAPC  H14C 2420   6.132   2.256  10.767 -0.1193  1.4513 -0.2825
   19SAPC   C15 2421   5.927   2.351  10.630 -0.3372 -0.0695  0.0310
   19SAPC  H15A 2422   5.965   2.267  10.573 -0.3850 -0.8508  1.1090
   19SAPC  H15B 2423   5.825   2.368  10.601 -1.5660 -2.3398  2.5636
   19SAPC  H15C 2424   5.989   2.440  10.631 -0.2645 -0.0513  3.1635
   19SAPC   C11 2425   5.923   2.051  10.662  0.0332 -0.1267  0.6549
   19SAPC  H11A 2426   5.865   1.956  10.669 -0.2612  0.0108  0.0670
   19SAPC  H11B 2427   6.017   2.031  10.718 -1.2624 -1.2114  2.5686
   19SAPC     P 2428   5.829   2.067  10.420 -0.2018 -0.0143  0.1290
   19SAPC   O13 2429   5.790   1.922  10.423  0.3565 -0.2709  0.6912
   19SAPC   O14 2430   5.721   2.162  10.449  0.5244 -0.3916  0.0741
   19SAPC   O12 2431   5.947   2.095  10.528 -0.0806 -0.2980 -0.2802
   19SAPC   O11 2432   5.896   2.097  10.283  0.1591 -0.7572 -0.4108
   19SAPC    C1 2433   5.970   2.221  10.274 -0.4733  0.4384  0.4685
   19SAPC    HA 2434   5.927   2.309  10.326 -2.1369  0.5922 -1.0484
   19SAPC    HB 2435   6.073   2.201  10.309 -0.6963 -1.0053  0.3622
   19SAPC    C2 2436   5.978   2.260  10.125 -0.4747  0.2871  0.4222
   19SAPC    HS 2437   6.034   2.356  10.126  3.3683 -1.5985 -3.2390
   19SAPC   O21 2438   5.851   2.258  10.059 -0.3509  0.0163  0.7675
   19SAPC   C21 2439   5.781   2.368  10.094 -0.5797  0.2530 -0.2929
   19SAPC   O22 2440   5.829   2.464  10.157  0.3605  0.0605  0.4806
   19SAPC   C22 2441   5.630   2.344  10.063 -0.3573 -0.3017  1.1077
   19SAPC   H2R 2442   5.620   2.238  10.031 -1.1693  0.0137  0.2700
   19SAPC   H2S 2443   5.561   2.363  10.148 -1.6512 -1.8527  0.4591
   19SAPC    C3 2444   6.073   2.157  10.051 -1.1764  0.2340  0.4308
   19SAPC    HX 2445   6.035   2.054  10.069 -1.6134  0.2926 -0.1609
   19SAPC    HY 2446   6.173   2.146  10.100 -0.5500 -0.1282 -0.8595
   19SAPC   O31 2447   6.080   2.174   9.911 -0.7053 -0.6380 -0.1118
   19SAPC   C31 2448   6.151   2.276   9.869 -0.5977 -0.1766  0.7694
   19SAPC   O32 2449   6.228   2.348   9.929 -0.1888  0.2358 -0.4650
   19SAPC   C32 2450   6.113   2.295   9.720 -0.2243  0.6912  0.0824
   19SAPC   H2X 2451   6.044   2.381   9.707  0.4160  1.1703 -0.2366
   19SAPC   H2Y 2452   6.039   2.214   9.700 -2.1007  1.8592  1.8656
   19SAPC   C23 2453   5.585   2.435   9.949  0.0587 -0.4231 -0.6593
   19SAPC   H3R 2454   5.586   2.543   9.975 -1.3791 -0.5155 -0.1593
   19SAPC   H3S 2455   5.476   2.418   9.935 -0.2442  1.5636 -0.9898
   19SAPC   C24 2456   5.658   2.394   9.819  0.0761  0.0089  0.6270
   19SAPC   H4R 2457   5.668   2.283   9.814  0.0096 -0.0954  2.3697
   19SAPC   H4S 2458   5.760   2.438   9.817 -0.0742  0.3455 -0.1545
   19SAPC   C25 2459   5.584   2.437   9.698 -0.3202 -0.5816 -0.1013
   19SAPC   H5R 2460   5.582   2.547   9.696  0.7951 -0.5404  0.6267
   19SAPC   C26 2461   5.516   2.365   9.610  0.1024 -0.5913  0.1060
   19SAPC   H6R 2462   5.450   2.418   9.540 -1.9415  1.3505  3.2396
   19SAPC   C27 2463   5.496   2.219   9.599  0.2236 -0.2396  0.1986
   19SAPC   H7R 2464   5.388   2.201   9.581 -0.2935  1.1863  1.5684
   19SAPC   H7S 2465   5.524   2.166   9.693  0.1448  0.3303  0.5560
   19SAPC   C28 2466   5.577   2.166   9.485  0.5031  0.5568  0.1040
   19SAPC   H8R 2467   5.684   2.160   9.508  1.0414  2.0175 -1.7406
   19SAPC   C29 2468   5.533   2.107   9.373 -0.4566  0.2917 -0.0744
   19SAPC   H9R 2469   5.611   2.068   9.306 -1.3540 -1.0211 -0.3859
   19SAPC  C210 2470   5.395   2.086   9.332  0.2099 -0.0530 -0.7116
   19SAPC  H10R 2471   5.345   2.180   9.366  3.2510  1.5513 -0.2753
   19SAPC  H10S 2472   5.344   2.003   9.385 -1.0037  0.8862 -0.3564
   19SAPC  C211 2473   5.386   2.052   9.184 -0.2594  0.0459  0.2428
   19SAPC  H11R 2474   5.471   2.087   9.124 -0.3760 -0.4492 -0.2093
   19SAPC  C212 2475   5.281   1.992   9.121 -0.1285  0.0664  0.4107
   19SAPC  H12R 2476   5.297   1.963   9.016  0.7239  0.0409  0.5343
   19SAPC  C213 2477   5.139   1.957   9.172 -0.4308 -0.6242  0.2883
   19SAPC  H13R 2478   5.072   2.021   9.111 -0.2408 -0.7098 -0.0123
   19SAPC  H13S 2479   5.118   1.995   9.274 -1.8314 -1.9395  0.5265
   19SAPC  C214 2480   5.096   1.816   9.173  0.0217  0.2210 -0.1471
   19SAPC  H14R 2481   5.066   1.781   9.273 -2.8088 -1.7431 -1.5293
   19SAPC  C215 2482   5.080   1.734   9.062 -0.0762 -0.7172 -0.6776
   19SAPC  H15R 2483   5.057   1.627   9.077 -0.5470 -0.4602  0.5440
   19SAPC  C216 2484   5.102   1.772   8.919 -0.4995  0.0723 -0.5420
   19SAPC  H16R 2485   5.189   1.721   8.873 -0.1636 -0.2541  0.4270
   19SAPC  H16S 2486   5.138   1.876   8.908  1.1834 -0.4417 -0.2089
   19SAPC  C217 2487   4.980   1.759   8.837 -0.6133  0.1914  0.9153
   19SAPC  H17R 2488   4.998   1.807   8.739  1.9455 -1.0722  0.6719
   19SAPC  H17S 2489   4.891   1.808   8.882 -1.6781  2.0339 -2.7834
   19SAPC  C218 2490   4.936   1.612   8.800 -0.6011 -0.7664 -0.5417
   19SAPC  H18R 2491   4.923   1.556   8.895 -1.1819  1.2652  0.6488
   19SAPC  H18S 2492   5.019   1.568   8.741 -0.3812 -0.9412 -0.1009
   19SAPC  C219 2493   4.809   1.626   8.722 -0.0759  1.2224  0.3977
   19SAPC  H19R 2494   4.819   1.704   8.644 -0.9301  1.1226  0.1733
   19SAPC  H19S 2495   4.722   1.647   8.789 -0.4109  3.1122 -0.5782
   19SAPC  C220 2496   4.782   1.488   8.654 -1.0365 -0.3204 -0.0308
   19SAPC  H20R 2497   4.849   1.467   8.569  0.5630 -0.5727  1.2480
   19SAPC  H20S 2498   4.681   1.490   8.607 -0.7552 -0.0349 -0.6313
   19SAPC  H20T 2499   4.785   1.408   8.731 -1.8805  1.1550  1.6081
   19SAPC   C33 2500   6.225   2.296   9.613 -0.3313 -0.1904 -0.0566
   19SAPC   H3X 2501   6.304   2.220   9.633  0.6300  0.9188  0.5054
   19SAPC   H3Y 2502   6.276   2.395   9.609 -0.8002  0.1407  1.6102
   19SAPC   C34 2503   6.172   2.273   9.472  0.7684  0.3377 -0.7340
   19SAPC   H4X 2504   6.092   2.347   9.455  0.0061 -0.5266 -0.9989
   19SAPC   H4Y 2505   6.118   2.176   9.472 -1.8186  1.6782  0.5638
   19SAPC   C35 2506   6.274   2.285   9.354  0.1412 -0.2735 -0.5191
   19SAPC   H5X 2507   6.362   2.219   9.370  0.7180 -0.2008 -2.9331
   19SAPC   H5Y 2508   6.298   2.392   9.336 -1.4052 -0.0442 -1.4743
   19SAPC   C36 2509   6.214   2.239   9.221 -0.2944  0.1348  0.7360
   19SAPC   H6X 2510   6.124   2.301   9.204 -0.5881 -0.5055 -0.1080
   19SAPC   H6Y 2511   6.187   2.131   9.226 -2.6743  0.4337 -2.5658
   19SAPC   C37 2512   6.306   2.254   9.099 -0.0598  0.1202 -0.4338
   19SAPC   H7X 2513   6.395   2.188   9.111  0.9757  1.7928  1.9516
   19SAPC   H7Y 2514   6.347   2.356   9.090  2.1246 -0.7820 -1.4081
   19SAPC   C38 2515   6.237   2.233   8.966 -0.3579 -0.4116 -0.2035
   19SAPC   H8X 2516   6.140   2.285   8.950  0.5352  0.9541 -1.4659
   19SAPC   H8Y 2517   6.214   2.125   8.953 -0.2644 -0.2275 -2.1877
   19SAPC   C39 2518   6.332   2.284   8.863  0.4398 -0.4876  0.4172
   19SAPC   H9X 2519   6.422   2.226   8.832 -0.4580 -1.5678 -0.2206
   19SAPC   H9Y 2520   6.367   2.385   8.893 -0.6549 -0.0227  0.1482
   19SAPC  C310 2521   6.258   2.315   8.731  0.5402 -0.2994  0.1594
   19SAPC  H10X 2522   6.325   2.371   8.662 -0.0362  1.0646  0.6678
   19SAPC  H10Y 2523   6.171   2.381   8.751 -0.7166 -1.1379 -2.0770
   19SAPC  C311 2524   6.198   2.195   8.654  0.2574  0.9135 -0.1615
   19SAPC  H11X 2525   6.147   2.120   8.719  0.3003  1.2219  0.2321
   19SAPC  H11Y 2526   6.267   2.141   8.586 -1.7089 -2.3658  0.2039
   19SAPC  C312 2527   6.092   2.238   8.544  0.4233  0.1637  0.2617
   19SAPC  H12X 2528   6.138   2.319   8.484 -1.2342  0.0167 -1.3192
   19SAPC  H12Y 2529   5.996   2.269   8.591 -0.6123 -0.6614 -1.2142
   19SAPC  C313 2530   6.049   2.126   8.447  0.1177  0.9643  0.5939
   19SAPC  H13X 2531   6.010   2.040   8.506 -0.4474  0.1970 -0.8504
   19SAPC  H13Y 2532   6.135   2.088   8.388 -1.1884  0.1801 -0.8751
   19SAPC  C314 2533   5.948   2.174   8.342  0.3839 -0.0241  0.5258
   19SAPC  H14X 2534   5.976   2.270   8.294  2.0409 -0.4784  0.5357
   19SAPC  H14Y 2535   5.847   2.185   8.388  0.6676 -0.0413  1.1632
   19SAPC  C315 2536   5.926   2.078   8.226  0.0392  0.3089 -0.8762
   19SAPC  H15X 2537   5.926   1.971   8.256  0.5206  0.2674 -1.0169
   19SAPC  H15Y 2538   6.011   2.094   8.156  3.4133 -0.6525  2.6434
   19SAPC  C316 2539   5.803   2.111   8.139  0.3462  0.7429  0.5766
   19SAPC  H16X 2540   5.784   2.219   8.119 -2.4977  0.0631 -1.0709
   19SAPC  H16Y 2541   5.709   2.087   8.193 -0.3168  2.1106  0.0743
   19SAPC  C317 2542   5.802   2.026   8.003 -0.1893 -0.7335  0.0545
   19SAPC  H17X 2543   5.796   1.916   8.018  1.3572 -0.8751 -0.1163
   19SAPC  H17Y 2544   5.895   2.057   7.951 -0.7045 -0.6969 -0.8610
   19SAPC  C318 2545   5.692   2.066   7.900 -0.9016 -0.3945 -0.4498
   19SAPC  H18X 2546   5.699   2.176   7.885  0.6570  0.0597  2.6925
   19SAPC  H18Y 2547   5.592   2.045   7.943 -0.2354 -2.1390  0.3105
   19SAPC  H18Z 2548   5.716   2.025   7.800  2.4418  1.5717 -0.6220
   20SAPC     N 2549   0.700   4.995  10.605 -0.2641  0.3518  1.1351
   20SAPC   C12 2550   0.659   5.126  10.665  0.9284  0.5162 -0.7912
   20SAPC  H12A 2551   0.605   5.185  10.593  2.2075  0.1714 -2.0951
   20SAPC  H12B 2552   0.748   5.180  10.695  1.3515 -0.8085  0.4297
   20SAPC   C13 2553   0.763   5.013  10.467 -0.4111  0.2178 -0.5570
   20SAPC  H13A 2554   0.864   5.049  10.482 -0.1370 -0.3002 -1.1460
   20SAPC  H13B 2555   0.770   4.918  10.417 -0.8909 -1.5126  2.4313
   20SAPC  H13C 2556   0.698   5.077  10.409 -2.1678 -1.3671 -0.4375
   20SAPC   C14 2557   0.802   4.929  10.698  0.3338  0.0181  0.2442
   20SAPC  H14A 2558   0.812   4.822  10.685 -0.0315 -0.1419  1.2027
   20SAPC  H14B 2559   0.896   4.979  10.683  0.2063  0.4208  0.7287
   20SAPC  H14C 2560   0.768   4.931  10.801 -2.1233 -1.9022 -0.4223
   20SAPC   C15 2561   0.590   4.894  10.592 -0.6956 -0.5454  0.1186
   20SAPC  H15A 2562   0.522   4.927  10.514 -1.9156  0.5668  1.5976
   20SAPC  H15B 2563   0.620   4.792  10.574 -1.6957 -0.7909 -0.2726
   20SAPC  H15C 2564   0.548   4.901  10.691  4.6357  1.2687  2.6275
   20SAPC   C11 2565   0.579   5.125  10.801  0.0702 -0.4158  0.2809
   20SAPC  H11A 2566   0.574   5.228  10.841 -1.2213 -0.7149  0.9463
   20SAPC  H11B 2567   0.642   5.063  10.869  1.2621  1.7555  1.2590
   20SAPC     P 2568   0.329   5.162  10.762  0.6702  0.5433 -0.1080
   20SAPC   O13 2569   0.197   5.083  10.749  0.4908 -0.6896  0.6437
   20SAPC   O14 2570   0.331   5.259  10.872  0.1547 -0.3996  0.3082
   20SAPC   O12 2571   0.449   5.070  10.785 -0.7070  0.3780  0.1260
   20SAPC   O11 2572   0.361   5.241  10.622  0.1970 -0.0940 -0.5408
   20SAPC    C1 2573   0.304   5.365  10.586 -0.4292 -0.2683  0.3602
   20SAPC    HA 2574   0.260   5.423  10.671 -1.2080 -1.7081  0.9857
   20SAPC    HB 2575   0.373   5.416  10.517 -0.0568 -2.0740 -0.6513
   20SAPC    C2 2576   0.180   5.347  10.489 -0.7537  0.5273 -0.5331
   20SAPC    HS 2577   0.097   5.299  10.544  0.3054 -0.5631  0.1757
   20SAPC   O21 2578   0.211   5.270  10.375 -0.3637  0.7893  0.0837
   20SAPC   C21 2579   0.106   5.221  10.321 -0.0672  0.1061  0.1831
   20SAPC   O22 2580  -0.005   5.225  10.358 -0.2157 -0.1906 -0.1890
   20SAPC   C22 2581   0.149   5.130  10.197 -0.1635  0.3415 -0.7549
   20SAPC   H2R 2582   0.114   5.177  10.102  0.2293  0.6685 -0.7397
   20SAPC   H2S 2583   0.259   5.118  10.203  0.3902  3.2929 -2.6904
   20SAPC    C3 2584   0.110   5.481  10.441  0.0151 -0.8480  0.3230
   20SAPC    HX 2585   0.072   5.514  10.540 -2.1153 -0.2878 -0.6269
   20SAPC    HY 2586   0.028   5.483  10.366  0.0790  0.6229  0.2693
   20SAPC   O31 2587   0.204   5.584  10.409 -0.1225  0.4190 -0.0092
   20SAPC   C31 2588   0.224   5.595  10.278  0.4704  0.2114  0.5257
   20SAPC   O32 2589   0.169   5.529  10.192  0.1647  0.1594  0.1739
   20SAPC   C32 2590   0.306   5.723  10.262 -0.0793 -0.2093  0.2178
   20SAPC   H2X 2591   0.412   5.700  10.286  0.8700  0.5538 -2.8598
   20SAPC   H2Y 2592   0.266   5.797  10.335 -0.3105  0.5799 -0.6975
   20SAPC   C23 2593   0.095   4.983  10.203 -0.2994 -0.5376 -0.2249
   20SAPC   H3R 2594   0.102   4.930  10.301  0.2008  1.7307  1.0470
   20SAPC   H3S 2595   0.165   4.927  10.138 -0.4930  1.8597 -2.6455
   20SAPC   C24 2596  -0.041   4.996  10.141 -0.5373  0.6081  0.5882
   20SAPC   H4R 2597  -0.045   5.039  10.038  1.2353 -3.7966 -1.5939
   20SAPC   H4S 2598  -0.099   5.060  10.210  0.0642  1.3634  0.4048
   20SAPC   C25 2599  -0.101   4.857  10.150 -0.2335 -0.1655  0.2071
   20SAPC   H5R 2600  -0.087   4.804  10.245 -1.6776 -0.0992  0.4822
   20SAPC   C26 2601  -0.163   4.795  10.043  0.2896 -0.1943 -0.2894
   20SAPC   H6R 2602  -0.211   4.703  10.077  1.3734 -1.0084 -0.9093
   20SAPC   C27 2603  -0.181   4.841   9.903  0.3048 -0.0151  1.2728
   20SAPC   H7R 2604  -0.148   4.946   9.890  0.1234 -0.3826 -3.8500
   20SAPC   H7S 2605  -0.291   4.827   9.905  0.3872 -2.2894 -2.3720
   20SAPC   C28 2606  -0.123   4.738   9.806  0.5223 -0.6814  0.1234
   20SAPC   H8R 2607  -0.054   4.663   9.850 -0.1530  0.0791  2.6511
   20SAPC   C29 2608  -0.143   4.729   9.674 -0.4337  0.1295 -0.0124
   20SAPC   H9R 2609  -0.103   4.641   9.621 -1.4074  0.6737 -1.7630
   20SAPC  C210 2610  -0.233   4.814   9.594 -0.9879 -0.7963  0.1934
   20SAPC  H10R 2611  -0.166   4.880   9.534  0.4402 -0.9072  1.6059
   20SAPC  H10S 2612  -0.296   4.879   9.659 -1.0380 -0.1534 -0.4864
   20SAPC  C211 2613  -0.309   4.731   9.497 -0.2092  0.5903 -0.0486
   20SAPC  H11R 2614  -0.357   4.643   9.542  1.7039  0.4074  1.8198
   20SAPC  C212 2615  -0.346   4.750   9.367  0.3605  0.8163  0.0623
   20SAPC  H12R 2616  -0.411   4.676   9.318 -0.8984  0.8960  1.5232
   20SAPC  C213 2617  -0.327   4.878   9.289 -0.0128  0.8472 -0.0146
   20SAPC  H13R 2618  -0.270   4.951   9.350  2.8099 -0.8232 -0.4649
   20SAPC  H13S 2619  -0.426   4.918   9.258 -0.5226 -0.4691 -0.1608
   20SAPC  C214 2620  -0.231   4.863   9.172  0.7461  0.4842  0.5565
   20SAPC  H14R 2621  -0.152   4.787   9.184 -0.0631 -0.7137 -1.1718
   20SAPC  C215 2622  -0.239   4.916   9.047  0.7344  0.0325  0.0701
   20SAPC  H15R 2623  -0.172   4.892   8.962  1.3086  2.1753 -0.1587
   20SAPC  C216 2624  -0.345   5.011   9.005 -0.7424  0.3876 -0.3885
   20SAPC  H16R 2625  -0.300   5.107   8.972  0.5321 -0.0176  0.1489
   20SAPC  H16S 2626  -0.404   5.040   9.094 -1.8287 -2.6042 -0.0234
   20SAPC  C217 2627  -0.442   4.959   8.892  0.4113  0.5329  0.3645
   20SAPC  H17R 2628  -0.381   4.955   8.799 -0.7995  1.9664 -0.5305
   20SAPC  H17S 2629  -0.520   5.037   8.879 -0.9873 -0.5068  2.0934
   20SAPC  C218 2630  -0.496   4.822   8.928 -0.4263  0.0243  0.2431
   20SAPC  H18R 2631  -0.572   4.839   9.007  0.2420 -0.9759  1.1118
   20SAPC  H18S 2632  -0.420   4.755   8.973  0.4841 -0.0998 -1.3992
   20SAPC  C219 2633  -0.543   4.760   8.801 -0.4639  0.0708  0.3420
   20SAPC  H19R 2634  -0.460   4.737   8.731 -1.7118 -0.0331 -1.1377
   20SAPC  H19S 2635  -0.602   4.838   8.749  1.7637  0.9889 -0.9393
   20SAPC  C220 2636  -0.642   4.647   8.823 -1.7048  0.7825  0.5205
   20SAPC  H20R 2637  -0.713   4.682   8.901 -1.3682 -0.1784  1.2776
   20SAPC  H20S 2638  -0.591   4.555   8.860  0.0849  0.5099 -2.3101
   20SAPC  H20T 2639  -0.704   4.621   8.734  0.1194  0.4162 -0.7112
   20SAPC   C33 2640   0.307   5.784  10.122 -0.2916  0.0436  0.5879
   20SAPC   H3X 2641   0.359   5.881  10.136 -1.3625  0.4023  2.4199
   20SAPC   H3Y 2642   0.205   5.809  10.086 -0.0751 -1.0591 -0.8698
   20SAPC   C34 2643   0.361   5.689  10.017 -0.5162 -0.1819 -0.5935
   20SAPC   H4X 2644   0.297   5.598  10.012 -0.2443 -0.5330  1.4099
   20SAPC   H4Y 2645   0.460   5.652  10.052 -0.1397  1.3041  0.0094
   20SAPC   C35 2646   0.374   5.762   9.886  0.1062 -0.7198  1.3501
   20SAPC   H5X 2647   0.420   5.860   9.909 -1.0817  0.8458 -2.3086
   20SAPC   H5Y 2648   0.278   5.788   9.838  0.7701  0.9976  0.8969
   20SAPC   C36 2649   0.453   5.688   9.769 -0.7143  1.1413 -0.4993
   20SAPC   H6X 2650   0.410   5.587   9.783  0.8673  0.8299  3.3597
   20SAPC   H6Y 2651   0.559   5.682   9.799 -0.6474 -1.1630 -1.0319
   20SAPC   C37 2652   0.427   5.740   9.626  0.7609  0.2036  0.0667
   20SAPC   H7X 2653   0.487   5.833   9.620 -0.0124  0.6209 -2.0823
   20SAPC   H7Y 2654   0.324   5.777   9.603  1.1975 -0.7618 -4.3899
   20SAPC   C38 2655   0.450   5.644   9.513 -0.0994  0.4731  0.0501
   20SAPC   H8X 2656   0.369   5.568   9.515 -1.4140  1.8212  2.3827
   20SAPC   H8Y 2657   0.545   5.589   9.529  0.1414  0.3622 -1.5988
   20SAPC   C39 2658   0.454   5.714   9.377  0.2559  0.1387 -0.2922
   20SAPC   H9X 2659   0.541   5.782   9.375  0.6532 -0.3331  0.5350
   20SAPC   H9Y 2660   0.362   5.772   9.353 -0.7624 -1.4616 -0.4624
   20SAPC  C310 2661   0.463   5.624   9.253  0.0489 -0.1813 -0.9147
   20SAPC  H10X 2662   0.378   5.552   9.251  0.7786 -1.0464 -1.5111
   20SAPC  H10Y 2663   0.540   5.545   9.270  0.5757  0.6694  0.8866
   20SAPC  C311 2664   0.479   5.684   9.109  0.5906  0.0825  0.0943
   20SAPC  H11X 2665   0.588   5.701   9.099  0.0567  3.0287 -2.2440
   20SAPC  H11Y 2666   0.423   5.780   9.096 -1.9560 -1.3974 -0.5383
   20SAPC  C312 2667   0.435   5.587   8.999  0.2513  0.1674  0.1741
   20SAPC  H12X 2668   0.326   5.605   8.991  0.3702  0.0750 -2.0736
   20SAPC  H12Y 2669   0.454   5.483   9.032  0.6875 -0.3356 -1.6060
   20SAPC  C313 2670   0.510   5.601   8.862  0.2602  0.2352  0.1791
   20SAPC  H13X 2671   0.520   5.706   8.827  1.3598 -1.1151 -4.0879
   20SAPC  H13Y 2672   0.455   5.547   8.782 -0.9941  1.7590 -0.0469
   20SAPC  C314 2673   0.649   5.543   8.879  1.0427  0.4734  0.8776
   20SAPC  H14X 2674   0.689   5.562   8.980  2.3440 -2.7061  1.0538
   20SAPC  H14Y 2675   0.711   5.594   8.802 -0.4954 -1.0860 -1.5599
   20SAPC  C315 2676   0.643   5.390   8.855  0.7346 -0.5037  0.4614
   20SAPC  H15X 2677   0.559   5.353   8.918  1.4492  2.9640  3.8172
   20SAPC  H15Y 2678   0.740   5.351   8.893  2.6665  2.2416 -1.3339
   20SAPC  C316 2679   0.630   5.348   8.709  0.4385  0.5953  0.5227
   20SAPC  H16X 2680   0.538   5.397   8.671 -0.2776  1.2452  2.9385
   20SAPC  H16Y 2681   0.609   5.239   8.702  1.4592  0.2245  2.5205
   20SAPC  C317 2682   0.750   5.386   8.613  0.0293  0.3166 -0.5444
   20SAPC  H17X 2683   0.841   5.336   8.653  0.5583  0.9181 -0.9904
   20SAPC  H17Y 2684   0.760   5.496   8.624 -1.2450  0.3447  0.6508
   20SAPC  C318 2685   0.731   5.352   8.468  0.2767  0.3679  0.0658
   20SAPC  H18X 2686   0.640   5.387   8.416 -0.0739  0.0186  0.4361
   20SAPC  H18Y 2687   0.728   5.241   8.456  2.8035  0.1000  1.1762
   20SAPC  H18Z 2688   0.828   5.378   8.420  1.4433  0.5868  2.4019
   21SAPC     N 2689   6.031   3.851  10.889  0.7396 -0.1443 -0.7810
   21SAPC   C12 2690   5.945   3.975  10.850 -0.2750 -0.3469 -0.5255
   21SAPC  H12A 2691   5.915   4.027  10.939  0.3491 -0.1812 -0.4143
   21SAPC  H12B 2692   5.848   3.948  10.809  0.7961 -2.4187 -1.8550
   21SAPC   C13 2693   5.948   3.757  10.970 -0.3530 -0.4058 -0.4216
   21SAPC  H13A 2694   6.016   3.685  11.013  1.5318  1.0509 -0.8197
   21SAPC  H13B 2695   5.897   3.804  11.053  0.0943 -1.7675  0.6799
   21SAPC  H13C 2696   5.875   3.705  10.911  1.1795 -2.8356 -0.3227
   21SAPC   C14 2697   6.085   3.779  10.771 -0.2635 -0.5101 -0.1452
   21SAPC  H14A 2698   6.137   3.692  10.808  0.0153  0.0434  0.8202
   21SAPC  H14B 2699   6.002   3.739  10.714 -0.5689 -1.4250  0.9143
   21SAPC  H14C 2700   6.157   3.829  10.708  1.2166 -2.6442 -0.2534
   21SAPC   C15 2701   6.152   3.889  10.973 -0.2579  0.0092  0.5288
   21SAPC  H15A 2702   6.190   3.801  11.022  0.2046 -0.8504 -1.3009
   21SAPC  H15B 2703   6.229   3.927  10.907  0.0314 -0.4281  0.6102
   21SAPC  H15C 2704   6.129   3.962  11.050  2.5897  0.0569  1.4663
   21SAPC   C11 2705   6.007   4.067  10.746 -0.0655 -0.4868  0.8640
   21SAPC  H11A 2706   5.935   4.150  10.731  1.5014  0.6698 -0.5095
   21SAPC  H11B 2707   6.030   4.017  10.650 -0.3485  1.3103 -0.1652
   21SAPC     P 2708   6.264   4.144  10.727  0.1431  0.1078 -0.3467
   21SAPC   O13 2709   6.363   4.172  10.827  0.1893 -0.2259  0.6614
   21SAPC   O14 2710   6.301   4.031  10.641 -0.0275  0.4172 -0.2142
   21SAPC   O12 2711   6.122   4.137  10.798  0.5104  0.7332 -0.3058
   21SAPC   O11 2712   6.259   4.274  10.639 -0.2252 -0.6045 -0.3352
   21SAPC    C1 2713   6.164   4.304  10.541 -0.2581  0.4905 -0.0228
   21SAPC    HA 2714   6.073   4.247  10.569  0.8637 -1.4371 -0.1276
   21SAPC    HB 2715   6.125   4.408  10.549  0.6392  0.7200  2.2425
   21SAPC    C2 2716   6.201   4.247  10.402 -0.5665  0.4805  0.2460
   21SAPC    HS 2717   6.238   4.143  10.409 -0.6066  0.4561  0.0873
   21SAPC   O21 2718   6.302   4.336  10.348  0.5222  0.6963  0.5220
   21SAPC   C21 2719   6.395   4.276  10.273 -0.0053  0.3247 -0.0529
   21SAPC   O22 2720   6.427   4.157  10.278  0.8389 -0.5373 -0.6483
   21SAPC   C22 2721   6.472   4.377  10.189  0.2149 -0.0048  0.9041
   21SAPC   H2R 2722   6.396   4.429  10.127 -1.2201 -1.5870  1.2500
   21SAPC   H2S 2723   6.513   4.454  10.258  2.5554 -1.8479  1.6668
   21SAPC    C3 2724   6.081   4.254  10.311  0.5956 -0.1106 -0.8574
   21SAPC    HX 2725   6.063   4.361  10.288  3.0922 -0.0101 -2.7312
   21SAPC    HY 2726   5.991   4.203  10.352  2.3598 -1.2728  1.8977
   21SAPC   O31 2727   6.112   4.188  10.189 -1.1262  0.1329  0.4594
   21SAPC   C31 2728   6.086   4.056  10.186 -0.4379  1.0079 -0.8095
   21SAPC   O32 2729   6.026   3.989  10.270 -0.4485 -0.4176  0.3807
   21SAPC   C32 2730   6.139   4.006  10.054  0.7004  0.3209 -0.2939
   21SAPC   H2X 2731   6.249   3.993  10.065  0.8197  1.2405 -0.2645
   21SAPC   H2Y 2732   6.126   4.074   9.966  0.5043 -1.5051 -1.7408
   21SAPC   C23 2733   6.585   4.316  10.100 -0.7337  0.7520  0.2467
   21SAPC   H3R 2734   6.531   4.251  10.028 -1.5585  1.9757 -0.2653
   21SAPC   H3S 2735   6.649   4.249  10.162 -1.4658  1.9263  2.3576
   21SAPC   C24 2736   6.663   4.410  10.003 -0.1499 -0.1421  0.6913
   21SAPC   H4R 2737   6.690   4.506  10.053 -1.4088  1.1277 -0.9597
   21SAPC   H4S 2738   6.599   4.438   9.917  0.0903 -0.7579  0.3015
   21SAPC   C25 2739   6.788   4.338   9.956  0.2772  0.2651  0.1341
   21SAPC   H5R 2740   6.848   4.290  10.034  0.4567  0.4295  0.0992
   21SAPC   C26 2741   6.830   4.312   9.834 -0.1649  0.0706 -0.4435
   21SAPC   H6R 2742   6.922   4.253   9.823  0.0053  0.0992  0.6802
   21SAPC   C27 2743   6.763   4.353   9.706  0.4891 -0.3919 -0.4740
   21SAPC   H7R 2744   6.817   4.442   9.666 -1.4370  1.1129  0.1008
   21SAPC   H7S 2745   6.667   4.401   9.736 -0.1979 -2.1195  0.1872
   21SAPC   C28 2746   6.737   4.251   9.601  0.6601 -0.2174  0.6718
   21SAPC   H8R 2747   6.735   4.148   9.641  2.1567 -0.7297 -0.5002
   21SAPC   C29 2748   6.699   4.262   9.472 -0.6506 -0.3624  0.1350
   21SAPC   H9R 2749   6.679   4.166   9.423  0.4825  0.3920 -1.9566
   21SAPC  C210 2750   6.681   4.386   9.394  0.1533 -0.1928  0.4599
   21SAPC  H10R 2751   6.774   4.396   9.335  2.0071 -1.0636  3.0515
   21SAPC  H10S 2752   6.656   4.476   9.454 -1.3586 -0.4870  0.3214
   21SAPC  C211 2753   6.564   4.381   9.298  0.0749  0.7873  0.2004
   21SAPC  H11R 2754   6.470   4.356   9.349  0.9505 -0.8742  1.1096
   21SAPC  C212 2755   6.570   4.386   9.164  0.1065 -0.9949 -0.0310
   21SAPC  H12R 2756   6.478   4.379   9.104  0.9257 -0.8002 -1.3636
   21SAPC  C213 2757   6.696   4.406   9.077 -0.0918  0.4405  0.3461
   21SAPC  H13R 2758   6.770   4.326   9.101  0.4005  0.5253 -0.8272
   21SAPC  H13S 2759   6.741   4.499   9.116 -0.7066  1.4955 -1.3497
   21SAPC  C214 2760   6.678   4.439   8.933 -0.2509  0.4084  0.6327
   21SAPC  H14R 2761   6.722   4.533   8.898  0.9024  0.7406  2.8133
   21SAPC  C215 2762   6.642   4.353   8.832  0.3809 -0.3661 -0.0357
   21SAPC  H15R 2763   6.623   4.398   8.734  0.3883  1.9974  0.9854
   21SAPC  C216 2764   6.586   4.212   8.848  0.0060  0.4711 -0.2291
   21SAPC  H16R 2765   6.525   4.208   8.941 -0.6433  0.6907 -0.6463
   21SAPC  H16S 2766   6.655   4.127   8.868 -2.0778 -1.0058  1.0523
   21SAPC  C217 2767   6.496   4.166   8.730 -0.2714  0.0491 -0.4369
   21SAPC  H17R 2768   6.468   4.059   8.727 -0.7443  0.1820 -1.7562
   21SAPC  H17S 2769   6.550   4.193   8.636 -1.7157  0.8931 -1.0757
   21SAPC  C218 2770   6.352   4.233   8.732 -0.5834 -0.1816 -0.1824
   21SAPC  H18R 2771   6.370   4.341   8.751 -1.0157 -0.1430  0.0037
   21SAPC  H18S 2772   6.299   4.201   8.824 -0.9759 -0.9257 -0.6483
   21SAPC  C219 2773   6.267   4.208   8.602 -0.2066 -0.4722  0.1973
   21SAPC  H19R 2774   6.233   4.103   8.608 -0.3440 -0.4468 -0.1766
   21SAPC  H19S 2775   6.322   4.223   8.507 -2.7854  3.4962 -0.9100
   21SAPC  C220 2776   6.142   4.289   8.596  0.4394  0.3117 -0.0607
   21SAPC  H20R 2777   6.178   4.395   8.598 -1.5689  1.0759 -1.3572
   21SAPC  H20S 2778   6.077   4.261   8.681 -1.9530  1.0880 -1.5369
   21SAPC  H20T 2779   6.093   4.266   8.500  0.9642  0.3633 -0.3446
   21SAPC   C33 2780   6.077   3.871  10.015  0.1376  0.6769  0.0773
   21SAPC   H3X 2781   5.970   3.893   9.993 -0.3317  0.3314  1.8914
   21SAPC   H3Y 2782   6.076   3.799  10.098  1.6234  0.0747 -0.3829
   21SAPC   C34 2783   6.155   3.819   9.899 -0.0049  0.5194 -0.1638
   21SAPC   H4X 2784   6.261   3.814   9.931  0.1491  2.4778 -0.2732
   21SAPC   H4Y 2785   6.152   3.886   9.810  2.1653 -1.4385 -1.8412
   21SAPC   C35 2786   6.119   3.670   9.854  0.7524  0.3819  0.2005
   21SAPC   H5X 2787   6.022   3.668   9.802  2.1198 -0.3661 -2.4909
   21SAPC   H5Y 2788   6.112   3.603   9.942 -1.2588  1.9259  1.2900
   21SAPC   C36 2789   6.217   3.592   9.762 -0.3930 -0.9126  0.4527
   21SAPC   H6X 2790   6.193   3.486   9.743  0.3493 -1.0229  0.1049
   21SAPC   H6Y 2791   6.317   3.588   9.811  1.1207  1.7561 -2.0434
   21SAPC   C37 2792   6.246   3.648   9.624 -0.1583  0.3813  0.1790
   21SAPC   H7X 2793   6.327   3.586   9.578 -1.7128 -1.8590  0.2658
   21SAPC   H7Y 2794   6.269   3.756   9.617 -3.1012  1.0344 -0.6330
   21SAPC   C38 2795   6.132   3.621   9.520 -0.2941 -0.2358 -0.5026
   21SAPC   H8X 2796   6.035   3.652   9.564 -0.1651 -1.1048  0.4425
   21SAPC   H8Y 2797   6.115   3.511   9.515  0.9571 -0.4084 -4.5776
   21SAPC   C39 2798   6.153   3.679   9.391  0.6567 -0.3915 -0.3323
   21SAPC   H9X 2799   6.226   3.615   9.337  1.5871  0.6616 -0.3801
   21SAPC   H9Y 2800   6.183   3.787   9.396 -0.8788  0.0034  1.9441
   21SAPC  C310 2801   6.025   3.684   9.304 -0.0137  0.4170  0.0511
   21SAPC  H10X 2802   5.991   3.790   9.308  0.2141  0.5725 -1.5073
   21SAPC  H10Y 2803   5.942   3.624   9.347  1.6377 -2.3060 -0.3455
   21SAPC  C311 2804   6.045   3.662   9.149  0.6117 -0.2031  0.5584
   21SAPC  H11X 2805   6.142   3.689   9.103 -0.0829  0.2677 -0.6577
   21SAPC  H11Y 2806   5.958   3.717   9.108  0.8374 -1.9997 -2.5922
   21SAPC  C312 2807   6.016   3.513   9.118 -0.4694 -0.3439 -0.2730
   21SAPC  H12X 2808   5.910   3.488   9.139 -0.6869  1.0720  0.4962
   21SAPC  H12Y 2809   6.081   3.446   9.178  1.6737  2.0420  0.2799
   21SAPC  C313 2810   6.040   3.497   8.971  0.4974 -1.0440 -0.5465
   21SAPC  H13X 2811   6.145   3.527   8.946 -0.5042  1.9252 -1.6518
   21SAPC  H13Y 2812   5.978   3.567   8.911 -0.9060  1.0192  3.0260
   21SAPC  C314 2813   6.010   3.348   8.936  0.7112 -0.2339  0.4212
   21SAPC  H14X 2814   5.901   3.328   8.948  0.8674 -1.9517 -0.6204
   21SAPC  H14Y 2815   6.059   3.281   9.011 -2.2414 -2.2120  0.7878
   21SAPC  C315 2816   6.061   3.308   8.799 -0.3995 -0.1933 -0.2625
   21SAPC  H15X 2817   6.172   3.298   8.797 -0.0281  1.6705  3.2727
   21SAPC  H15Y 2818   6.033   3.385   8.724  1.5545  0.9292  0.0733
   21SAPC  C316 2819   5.993   3.173   8.751 -0.3857  0.3763 -0.1177
   21SAPC  H16X 2820   5.886   3.199   8.744 -0.5231 -0.4113 -1.1985
   21SAPC  H16Y 2821   6.002   3.089   8.823 -0.5078 -0.3031 -0.8685
   21SAPC  C317 2822   6.048   3.124   8.617  0.2758  0.1495  0.1463
   21SAPC  H17X 2823   5.995   3.027   8.606  1.0538 -0.3685  0.9091
   21SAPC  H17Y 2824   6.151   3.086   8.635 -0.1251 -0.2832  1.7639
   21SAPC  C318 2825   6.036   3.229   8.502 -0.5249  0.4304  0.8057
   21SAPC  H18X 2826   5.929   3.261   8.492 -0.3159  0.8439 -0.2104
   21SAPC  H18Y 2827   6.094   3.199   8.413  1.8139  2.8004  1.4009
   21SAPC  H18Z 2828   6.098   3.315   8.535 -0.1470 -0.0599  1.3924
   22SAPC     N 2829   6.636   3.269  10.822  0.5077  0.0706 -0.5462
   22SAPC   C12 2830   6.586   3.276  10.677 -0.6661 -0.4289 -0.5367
   22SAPC  H12A 2831   6.610   3.378  10.652 -0.5010  0.1550  1.7502
   22SAPC  H12B 2832   6.480   3.262  10.661 -0.8932 -0.2140  0.7072
   22SAPC   C13 2833   6.590   3.386  10.905  0.1624 -0.1385 -0.1769
   22SAPC  H13A 2834   6.643   3.369  10.998  2.4241  2.4026 -0.8646
   22SAPC  H13B 2835   6.614   3.482  10.862 -0.5300  1.1380  2.0837
   22SAPC  H13C 2836   6.483   3.380  10.919  0.2850 -0.2672  0.7901
   22SAPC   C14 2837   6.585   3.142  10.896  0.3024  0.0487 -0.3701
   22SAPC  H14A 2838   6.630   3.054  10.851 -2.9162 -1.9516 -0.0922
   22SAPC  H14B 2839   6.604   3.139  11.002  1.6175 -3.5905 -0.5438
   22SAPC  H14C 2840   6.477   3.137  10.885  0.3244  0.9159 -1.0697
   22SAPC   C15 2841   6.786   3.268  10.828 -0.8524 -0.3358  0.2231
   22SAPC  H15A 2842   6.829   3.277  10.926  2.1820 -0.2831 -1.0068
   22SAPC  H15B 2843   6.837   3.195  10.767  1.9014  1.3808  0.3146
   22SAPC  H15C 2844   6.814   3.361  10.781  1.4665 -0.5734  1.0228
   22SAPC   C11 2845   6.654   3.174  10.574  1.1014 -0.4813 -0.3450
   22SAPC  H11A 2846   6.757   3.204  10.548  1.5855 -0.9528  0.9487
   22SAPC  H11B 2847   6.590   3.187  10.484 -0.6928  2.7284  1.2351
   22SAPC     P 2848   6.569   2.922  10.570 -0.0112  0.1236  0.1285
   22SAPC   O13 2849   6.616   2.793  10.625  0.4888 -1.1121 -0.5146
   22SAPC   O14 2850   6.427   2.957  10.599  0.5192  0.0508 -0.2275
   22SAPC   O12 2851   6.664   3.037  10.626  0.0538 -0.4749  0.2305
   22SAPC   O11 2852   6.608   2.931  10.416  0.4914  0.2103  0.3055
   22SAPC    C1 2853   6.747   2.899  10.388 -0.3945 -0.8458 -0.0476
   22SAPC    HA 2854   6.806   2.993  10.385  0.9041 -1.5896  1.2204
   22SAPC    HB 2855   6.790   2.826  10.459  1.8277  1.1338  0.7780
   22SAPC    C2 2856   6.779   2.821  10.254 -0.0793  0.0342  0.2161
   22SAPC    HS 2857   6.883   2.783  10.259 -0.2091 -0.1554  2.1320
   22SAPC   O21 2858   6.756   2.922  10.146  0.1169 -0.0231  0.2192
   22SAPC   C21 2859   6.847   2.914  10.044  0.0947  0.8701 -1.3724
   22SAPC   O22 2860   6.936   2.831  10.038 -0.2133 -0.1764 -0.6763
   22SAPC   C22 2861   6.826   3.028   9.941  0.2130  0.3004 -0.4282
   22SAPC   H2R 2862   6.744   3.092   9.978  0.1866  0.0249  0.0003
   22SAPC   H2S 2863   6.921   3.086   9.947  0.7875 -0.5607 -0.9573
   22SAPC    C3 2864   6.689   2.709  10.228 -0.4379  0.1240 -0.0355
   22SAPC    HX 2865   6.582   2.738  10.239 -0.3672  0.9737 -1.3181
   22SAPC    HY 2866   6.706   2.625  10.298 -0.1910 -0.2097 -0.4887
   22SAPC   O31 2867   6.703   2.657  10.091  0.6188 -0.0279  0.4383
   22SAPC   C31 2868   6.601   2.572  10.062 -0.3365  0.2201  0.0884
   22SAPC   O32 2869   6.507   2.540  10.131 -0.1506  0.6425  0.1456
   22SAPC   C32 2870   6.636   2.524   9.923 -0.4464  0.4984 -0.2257
   22SAPC   H2X 2871   6.722   2.456   9.939 -0.3546  1.0046  1.5780
   22SAPC   H2Y 2872   6.676   2.611   9.865  0.0925 -0.2049 -0.9433
   22SAPC   C23 2873   6.819   2.992   9.796 -0.0391 -1.1608  0.1025
   22SAPC   H3R 2874   6.916   2.955   9.756 -0.2828 -0.1709 -1.5112
   22SAPC   H3S 2875   6.794   3.091   9.752 -0.8201  0.1467  3.2608
   22SAPC   C24 2876   6.718   2.884   9.773 -0.0188 -0.1037 -0.0827
   22SAPC   H4R 2877   6.628   2.914   9.830 -0.7328 -1.2827 -0.5382
   22SAPC   H4S 2878   6.758   2.783   9.798 -0.2201 -0.0549  0.4462
   22SAPC   C25 2879   6.678   2.889   9.631  0.0575 -0.1374  0.2418
   22SAPC   H5R 2880   6.751   2.942   9.567  0.3453 -1.0344 -0.1997
   22SAPC   C26 2881   6.566   2.824   9.571 -0.6778  0.6783  0.1518
   22SAPC   H6R 2882   6.551   2.844   9.464 -0.3539  1.7046  0.2888
   22SAPC   C27 2883   6.470   2.744   9.651  0.5376 -0.1857  0.6343
   22SAPC   H7R 2884   6.506   2.725   9.755  0.1688 -2.4030  0.3973
   22SAPC   H7S 2885   6.456   2.652   9.592  0.6603  2.2870 -3.6584
   22SAPC   C28 2886   6.341   2.829   9.648  0.0606 -0.4817  0.2803
   22SAPC   H8R 2887   6.324   2.892   9.736 -2.6067 -1.8986  0.8669
   22SAPC   C29 2888   6.241   2.809   9.555  0.9468 -0.3283 -0.7889
   22SAPC   H9R 2889   6.150   2.869   9.567  0.4987 -1.3036  1.1288
   22SAPC  C210 2890   6.236   2.695   9.446  0.1914 -1.0842  0.4207
   22SAPC  H10R 2891   6.178   2.613   9.495 -3.0936  1.1519  0.6086
   22SAPC  H10S 2892   6.338   2.660   9.420 -0.2398  0.0074 -3.2611
   22SAPC  C211 2893   6.160   2.731   9.325  0.2207  0.5782 -0.2783
   22SAPC  H11R 2894   6.061   2.774   9.343 -0.3825 -0.5677 -0.7087
   22SAPC  C212 2895   6.199   2.713   9.198 -0.4296 -0.0444  0.7050
   22SAPC  H12R 2896   6.129   2.741   9.118 -0.0437 -0.2995  0.2665
   22SAPC  C213 2897   6.328   2.646   9.152  0.7504  0.1816  0.4757
   22SAPC  H13R 2898   6.337   2.648   9.042 -1.4874  1.6565  0.2547
   22SAPC  H13S 2899   6.327   2.537   9.175  1.7088 -0.1451 -0.9077
   22SAPC  C214 2900   6.457   2.706   9.200 -0.3272  0.7631 -0.3130
   22SAPC  H14R 2901   6.452   2.816   9.210  0.4099  1.0081 -2.2796
   22SAPC  C215 2902   6.571   2.641   9.235 -0.1002 -0.6534 -0.3549
   22SAPC  H15R 2903   6.655   2.701   9.273 -1.7196  0.4102  1.7729
   22SAPC  C216 2904   6.592   2.493   9.242  0.0288 -0.4118  0.1013
   22SAPC  H16R 2905   6.509   2.434   9.196  0.5871 -1.5588  0.5352
   22SAPC  H16S 2906   6.596   2.470   9.351 -1.2197 -0.5482  0.1377
   22SAPC  C217 2907   6.725   2.444   9.181 -0.7274  0.7063  1.0104
   22SAPC  H17R 2908   6.747   2.338   9.207  0.1172  0.5191 -0.3886
   22SAPC  H17S 2909   6.811   2.498   9.225 -0.8771 -0.6311  3.0749
   22SAPC  C218 2910   6.728   2.447   9.027 -0.0950 -0.1337  0.1627
   22SAPC  H18R 2911   6.700   2.549   8.992  1.6618  0.0466 -0.8240
   22SAPC  H18S 2912   6.649   2.383   8.982 -0.7238 -1.4938  3.0144
   22SAPC  C219 2913   6.867   2.437   8.975 -0.7123  0.0965 -0.1323
   22SAPC  H19R 2914   6.926   2.507   9.038  1.0140  0.0390 -1.5934
   22SAPC  H19S 2915   6.881   2.477   8.872  0.6538  1.6416  0.6008
   22SAPC  C220 2916   6.933   2.295   8.992 -0.4882  0.3183  0.4594
   22SAPC  H20R 2917   6.919   2.260   9.097 -0.8316  3.2303  1.4768
   22SAPC  H20S 2918   7.043   2.306   8.979 -0.4450 -0.6252 -0.0802
   22SAPC  H20T 2919   6.898   2.221   8.917  1.4139 -0.3442  0.1549
   22SAPC   C33 2920   6.527   2.451   9.846  0.6727  0.4058  0.2435
   22SAPC   H3X 2921   6.434   2.511   9.840 -0.2482 -1.0641 -0.9438
   22SAPC   H3Y 2922   6.497   2.361   9.904 -1.6299  0.6115 -0.5499
   22SAPC   C34 2923   6.568   2.406   9.711  0.5863 -0.4012  0.2991
   22SAPC   H4X 2924   6.601   2.493   9.650 -2.1285 -0.8045 -1.9678
   22SAPC   H4Y 2925   6.479   2.369   9.657 -0.7316  0.6137  1.6740
   22SAPC   C35 2926   6.662   2.284   9.705  0.3586  0.0583 -0.6528
   22SAPC   H5X 2927   6.598   2.195   9.721  3.0996 -2.8031 -3.8957
   22SAPC   H5Y 2928   6.738   2.284   9.787 -1.1687  0.9974  0.8282
   22SAPC   C36 2929   6.731   2.259   9.569 -0.1579 -0.0876  0.4551
   22SAPC   H6X 2930   6.783   2.356   9.551 -1.3179  0.3385 -0.7290
   22SAPC   H6Y 2931   6.658   2.248   9.486 -1.6882 -1.0467  1.8651
   22SAPC   C37 2932   6.825   2.137   9.567 -0.1200  0.0251 -0.4050
   22SAPC   H7X 2933   6.762   2.046   9.571  0.3018 -0.2738 -0.4388
   22SAPC   H7Y 2934   6.895   2.139   9.653 -1.0506  1.8309  0.3680
   22SAPC   C38 2935   6.915   2.134   9.440 -0.6361  0.4154  0.2119
   22SAPC   H8X 2936   6.985   2.220   9.448  0.5861 -0.6295  1.3226
   22SAPC   H8Y 2937   6.840   2.143   9.359 -1.6660  0.1403  1.1151
   22SAPC   C39 2938   6.995   2.000   9.429 -0.8687  0.3030 -0.2208
   22SAPC   H9X 2939   6.924   1.915   9.431  0.1211 -0.5497 -0.2744
   22SAPC   H9Y 2940   7.044   1.999   9.530 -0.2906  0.6149 -0.4933
   22SAPC  C310 2941   7.111   1.991   9.330  0.3307 -0.0805  0.1056
   22SAPC  H10X 2942   7.175   1.904   9.355  0.6839  1.0353  3.5995
   22SAPC  H10Y 2943   7.169   2.085   9.342 -1.4770  0.9808  0.9137
   22SAPC  C311 2944   7.052   1.982   9.183 -0.0345  0.1431 -0.3234
   22SAPC  H11X 2945   7.011   2.083   9.160  0.1822 -0.0149 -1.4809
   22SAPC  H11Y 2946   6.968   1.910   9.181  1.8099 -2.1162 -0.8426
   22SAPC  C312 2947   7.156   1.938   9.080  0.2619 -0.5228  0.4478
   22SAPC  H12X 2948   7.203   1.850   9.128  1.3159  1.2762  2.9528
   22SAPC  H12Y 2949   7.223   2.026   9.073 -0.5132  0.2567  2.2318
   22SAPC  C313 2950   7.084   1.914   8.947 -0.5950 -0.0286  0.6810
   22SAPC  H13X 2951   7.077   2.018   8.908 -0.8631 -0.2906  0.0172
   22SAPC  H13Y 2952   6.982   1.871   8.958  0.3401 -2.9435 -0.8559
   22SAPC  C314 2953   7.166   1.820   8.851  0.2850 -0.1950  0.2339
   22SAPC  H14X 2954   7.200   1.722   8.892  1.5347 -1.0499 -2.6210
   22SAPC  H14Y 2955   7.265   1.867   8.832  0.3247 -0.3560  0.0368
   22SAPC  C315 2956   7.093   1.785   8.722  0.6109  0.3291 -0.3870
   22SAPC  H15X 2957   7.043   1.876   8.682  0.0749 -0.2952 -1.1597
   22SAPC  H15Y 2958   7.013   1.714   8.752 -0.7678  2.1788  0.5592
   22SAPC  C316 2959   7.171   1.701   8.622 -0.2101 -0.2063 -0.0135
   22SAPC  H16X 2960   7.220   1.613   8.669 -0.7100  0.5976  2.1371
   22SAPC  H16Y 2961   7.250   1.765   8.578  0.6270 -0.5082  1.0001
   22SAPC  C317 2962   7.091   1.639   8.505  0.4317 -0.1278 -0.3859
   22SAPC  H17X 2963   7.027   1.560   8.551  0.8806  1.6234  3.6575
   22SAPC  H17Y 2964   7.157   1.593   8.428 -0.8244 -0.1540 -1.4915
   22SAPC  C318 2965   6.992   1.740   8.448 -0.0272  0.3218  0.7927
   22SAPC  H18X 2966   6.916   1.767   8.524 -0.9217  0.9094 -0.2899
   22SAPC  H18Y 2967   6.945   1.688   8.362 -0.5676  0.3300  1.0784
   22SAPC  H18Z 2968   7.024   1.838   8.408  1.1811 -0.3223  0.1054
   23SAPC     N 2969   1.309   4.502  10.628  0.7478 -0.3931 -0.3237
   23SAPC   C12 2970   1.204   4.579  10.708 -0.6822 -0.3245 -0.1456
   23SAPC  H12A 2971   1.251   4.652  10.773  0.8032  0.2916 -1.8432
   23SAPC  H12B 2972   1.151   4.514  10.776  2.0966 -1.9600  0.6109
   23SAPC   C13 2973   1.374   4.590  10.530 -0.5457 -0.0009  0.3907
   23SAPC  H13A 2974   1.448   4.529  10.481  1.3856  1.2304  1.6343
   23SAPC  H13B 2975   1.323   4.628  10.443 -0.5769  0.7666  0.7375
   23SAPC  H13C 2976   1.426   4.675  10.573  0.3942 -1.2350  1.8028
   23SAPC   C14 2977   1.414   4.450  10.728 -0.1325 -0.3049 -0.5102
   23SAPC  H14A 2978   1.459   4.538  10.773 -1.4323  1.5997 -2.6897
   23SAPC  H14B 2979   1.372   4.376  10.794  1.4055 -3.4645 -2.7833
   23SAPC  H14C 2980   1.497   4.405  10.675  0.8058  0.6237  0.1227
   23SAPC   C15 2981   1.247   4.385  10.559  0.0266 -0.5600  0.3470
   23SAPC  H15A 2982   1.325   4.321  10.521 -0.3619 -0.4362 -0.6914
   23SAPC  H15B 2983   1.189   4.333  10.634 -1.0680  2.5037  1.7830
   23SAPC  H15C 2984   1.178   4.410  10.479  0.5238  1.3589  0.4749
   23SAPC   C11 2985   1.107   4.672  10.621 -0.4738 -0.4113 -0.9499
   23SAPC  H11A 2986   1.022   4.703  10.685 -0.6452 -0.3334 -1.2139
   23SAPC  H11B 2987   1.052   4.617  10.541 -1.6473 -1.9136  0.7835
   23SAPC     P 2988   1.129   4.859  10.443 -0.2571 -0.2192 -0.4039
   23SAPC   O13 2989   1.026   4.784  10.361  0.1247 -0.4961  0.3021
   23SAPC   O14 2990   1.091   5.000  10.486 -0.5705  0.0175 -0.2844
   23SAPC   O12 2991   1.179   4.781  10.572 -0.5305 -0.4002  0.2333
   23SAPC   O11 2992   1.263   4.858  10.360  0.2509  0.4502 -0.8490
   23SAPC    C1 2993   1.375   4.936  10.406 -0.3728 -0.1199 -0.4893
   23SAPC    HA 2994   1.386   4.937  10.516 -2.1442  0.6954 -0.2837
   23SAPC    HB 2995   1.470   4.894  10.368 -0.5630  0.4431 -1.6732
   23SAPC    C2 2996   1.367   5.082  10.361  0.4677 -0.5723 -0.3558
   23SAPC    HS 2997   1.269   5.128  10.385  1.0135  1.1850 -1.3024
   23SAPC   O21 2998   1.394   5.089  10.220 -0.3511  0.3872 -0.3362
   23SAPC   C21 2999   1.295   5.105  10.145  1.1403  0.3688  0.1165
   23SAPC   O22 3000   1.176   5.122  10.170  0.0374 -0.0466 -0.0214
   23SAPC   C22 3001   1.335   5.076  10.000  0.5243  0.0211 -0.4279
   23SAPC   H2R 3002   1.441   5.046   9.990  0.5373 -0.4221  0.7920
   23SAPC   H2S 3003   1.266   4.992   9.976  0.2988  0.7622 -2.5585
   23SAPC    C3 3004   1.474   5.176  10.423 -0.1280 -0.4494 -0.9798
   23SAPC    HX 3005   1.501   5.147  10.527 -2.0413  0.5492 -0.1573
   23SAPC    HY 3006   1.422   5.273  10.433  2.0494  0.7891 -0.9956
   23SAPC   O31 3007   1.594   5.191  10.338  0.0797  0.0402  0.2234
   23SAPC   C31 3008   1.682   5.090  10.357  0.7136 -0.0595 -0.2761
   23SAPC   O32 3009   1.673   4.995  10.432  0.3917 -0.2033  0.6102
   23SAPC   C32 3010   1.799   5.105  10.265  0.0929 -0.0538  0.9635
   23SAPC   H2X 3011   1.855   5.192  10.305 -0.6543  1.1721 -0.5724
   23SAPC   H2Y 3012   1.761   5.129  10.164  1.0583 -0.5359  0.4777
   23SAPC   C23 3013   1.304   5.195   9.907  0.3060  0.5584 -0.8907
   23SAPC   H3R 3014   1.377   5.278   9.917  0.5265  0.1814  0.8978
   23SAPC   H3S 3015   1.200   5.230   9.922  0.4849  1.2222 -1.1347
   23SAPC   C24 3016   1.315   5.149   9.762 -0.1051  0.0260  0.2993
   23SAPC   H4R 3017   1.263   5.230   9.707  1.9786  2.0585  1.1435
   23SAPC   H4S 3018   1.246   5.062   9.756 -1.5078  1.0905  0.6669
   23SAPC   C25 3019   1.446   5.111   9.694 -0.2475  0.3100  0.4425
   23SAPC   H5R 3020   1.514   5.046   9.750  0.7031 -1.0210 -2.1091
   23SAPC   C26 3021   1.485   5.148   9.569 -0.0712  0.1595 -0.6719
   23SAPC   H6R 3022   1.588   5.129   9.534 -0.5832  0.7332 -2.6523
   23SAPC   C27 3023   1.416   5.232   9.471  0.6128 -0.5974  0.7996
   23SAPC   H7R 3024   1.351   5.294   9.536  1.3586  1.6789 -0.4816
   23SAPC   H7S 3025   1.355   5.167   9.405 -0.9192  1.7024 -0.2027
   23SAPC   C28 3026   1.513   5.310   9.384 -0.5462 -0.0714  0.2850
   23SAPC   H8R 3027   1.548   5.400   9.436 -0.5332 -0.0231  0.1925
   23SAPC   C29 3028   1.540   5.293   9.254  0.2640  0.0069  0.2779
   23SAPC   H9R 3029   1.593   5.371   9.199 -0.3315  0.0570 -0.2310
   23SAPC  C210 3030   1.475   5.186   9.165  0.6282 -0.8541  0.5286
   23SAPC  H10R 3031   1.377   5.231   9.137  0.8327 -0.5715  0.2622
   23SAPC  H10S 3032   1.440   5.095   9.217 -1.2102  0.2238  1.3001
   23SAPC  C211 3033   1.551   5.129   9.047 -0.8340 -0.2038 -0.5530
   23SAPC  H11R 3034   1.631   5.058   9.075  0.3679 -0.1055 -3.4405
   23SAPC  C212 3035   1.532   5.142   8.915  0.0581  0.6635 -1.3867
   23SAPC  H12R 3036   1.609   5.092   8.853 -0.9908  0.9419 -2.9766
   23SAPC  C213 3037   1.413   5.227   8.863  0.8998 -0.5480 -0.0984
   23SAPC  H13R 3038   1.441   5.327   8.825 -1.4857  0.5562  0.7944
   23SAPC  H13S 3039   1.341   5.240   8.947 -0.6932 -0.2121 -1.4581
   23SAPC  C214 3040   1.329   5.171   8.743 -0.0942  0.2814 -0.4790
   23SAPC  H14R 3041   1.224   5.146   8.763 -0.3288 -0.9944 -2.8876
   23SAPC  C215 3042   1.368   5.173   8.616  0.2636  0.0691 -0.0222
   23SAPC  H15R 3043   1.287   5.171   8.542  0.5940  2.0272 -0.4959
   23SAPC  C216 3044   1.501   5.217   8.568 -0.3028 -0.1983  0.6279
   23SAPC  H16R 3045   1.557   5.279   8.641 -1.0414  1.3672 -0.0835
   23SAPC  H16S 3046   1.474   5.290   8.488 -2.5144 -1.1175  0.4429
   23SAPC  C217 3047   1.584   5.099   8.509 -0.0719 -0.2092 -0.2824
   23SAPC  H17R 3048   1.532   5.053   8.422  0.2355  0.4018 -0.7975
   23SAPC  H17S 3049   1.586   5.026   8.593  1.4949 -0.7221 -0.7352
   23SAPC  C218 3050   1.732   5.130   8.487 -0.1673 -0.3993 -0.1178
   23SAPC  H18R 3051   1.781   5.161   8.582  2.8191  1.8947 -2.1977
   23SAPC  H18S 3052   1.764   5.205   8.412  0.9725 -1.6210 -0.9131
   23SAPC  C219 3053   1.802   4.999   8.445 -0.2538 -0.0648 -0.0653
   23SAPC  H19R 3054   1.779   4.918   8.518  0.7043  1.3965  1.9464
   23SAPC  H19S 3055   1.913   5.006   8.452 -0.0684 -2.9968  3.5057
   23SAPC  C220 3056   1.747   4.955   8.315 -0.0524  0.3457  0.0081
   23SAPC  H20R 3057   1.706   5.035   8.250 -1.8008  0.6690  1.4124
   23SAPC  H20S 3058   1.657   4.891   8.326  0.9191 -0.9225  0.9345
   23SAPC  H20T 3059   1.820   4.895   8.257  1.0210  2.3747 -0.8522
   23SAPC   C33 3060   1.887   4.980  10.283  0.8034  0.4422  1.1989
   23SAPC   H3X 3061   1.901   4.950  10.389  2.1344  2.7839  1.7454
   23SAPC   H3Y 3062   1.981   5.010  10.233 -1.1187  1.1168 -2.4018
   23SAPC   C34 3063   1.828   4.867  10.200 -0.6780 -0.3529 -0.1898
   23SAPC   H4X 3064   1.726   4.841  10.236 -0.0488 -0.1254  1.8828
   23SAPC   H4Y 3065   1.894   4.779  10.207 -1.5191 -0.8795  1.9999
   23SAPC   C35 3066   1.814   4.900  10.052 -0.3882  0.3763  0.1214
   23SAPC   H5X 3067   1.915   4.934  10.020  1.0246  1.2528  4.7526
   23SAPC   H5Y 3068   1.735   4.974  10.027 -1.0256 -0.0587  0.7982
   23SAPC   C36 3069   1.769   4.783   9.969 -0.3720  0.0793  0.2003
   23SAPC   H6X 3070   1.699   4.727  10.033 -0.8733 -1.7003 -1.8026
   23SAPC   H6Y 3071   1.857   4.716   9.967  0.5173  1.1854  0.7359
   23SAPC   C37 3072   1.708   4.813   9.828  0.5656 -0.7278 -0.1573
   23SAPC   H7X 3073   1.774   4.883   9.772 -0.9914  1.6229  0.8282
   23SAPC   H7Y 3074   1.610   4.863   9.839  0.5093 -0.4330 -1.8224
   23SAPC   C38 3075   1.669   4.684   9.746 -0.8507  0.2261 -0.8518
   23SAPC   H8X 3076   1.604   4.630   9.819  1.0191  3.1119  3.3571
   23SAPC   H8Y 3077   1.755   4.617   9.723 -3.0200 -2.1157 -2.8147
   23SAPC   C39 3078   1.616   4.721   9.613  0.4317 -0.7758  0.7375
   23SAPC   H9X 3079   1.683   4.792   9.559  0.4075 -1.4354 -0.1789
   23SAPC   H9Y 3080   1.531   4.786   9.644  1.0933  0.7424 -0.4831
   23SAPC  C310 3081   1.564   4.602   9.532  0.0854  0.2713  0.1797
   23SAPC  H10X 3082   1.473   4.633   9.477 -1.8038 -0.7209  2.5655
   23SAPC  H10Y 3083   1.528   4.527   9.605  0.3223  0.7717  0.8228
   23SAPC  C311 3084   1.673   4.531   9.447  0.3209 -0.2664  0.7452
   23SAPC  H11X 3085   1.747   4.494   9.521 -0.7692 -2.3595  0.8691
   23SAPC  H11Y 3086   1.738   4.601   9.390  2.4862 -1.7829  1.2105
   23SAPC  C312 3087   1.628   4.414   9.360  0.3092 -0.5929  0.2334
   23SAPC  H12X 3088   1.541   4.356   9.398  0.3348 -1.1281 -0.5049
   23SAPC  H12Y 3089   1.720   4.352   9.366  0.7151 -0.0789 -0.4212
   23SAPC  C313 3090   1.617   4.440   9.210  0.1720  0.1412 -0.1193
   23SAPC  H13X 3091   1.577   4.341   9.177 -0.9452 -0.0193  1.5770
   23SAPC  H13Y 3092   1.713   4.469   9.162 -0.3118  0.4403 -0.9372
   23SAPC  C314 3093   1.512   4.545   9.172  1.0093 -0.0515  0.4521
   23SAPC  H14X 3094   1.527   4.644   9.220 -1.1987 -0.7168  2.7325
   23SAPC  H14Y 3095   1.418   4.508   9.216  1.1189 -3.1254 -1.5995
   23SAPC  C315 3096   1.504   4.576   9.017  0.2873  0.1210  0.2279
   23SAPC  H15X 3097   1.405   4.624   9.005 -0.1327 -0.7657  0.0299
   23SAPC  H15Y 3098   1.503   4.482   8.957 -2.8306 -0.7528  1.4117
   23SAPC  C316 3099   1.611   4.683   8.981  0.4692  0.6711  0.4698
   23SAPC  H16X 3100   1.708   4.642   9.017  1.3329  2.1963 -0.0258
   23SAPC  H16Y 3101   1.588   4.767   9.050 -2.0925  0.8071 -0.4670
   23SAPC  C317 3102   1.629   4.730   8.836 -0.2923 -0.5539  0.2328
   23SAPC  H17X 3103   1.677   4.644   8.785  0.9914 -1.2216  2.4748
   23SAPC  H17Y 3104   1.705   4.809   8.853  0.1092 -0.8288 -0.2505
   23SAPC  C318 3105   1.507   4.772   8.756 -0.2226 -0.1798  0.5314
   23SAPC  H18X 3106   1.454   4.865   8.788 -0.1108  0.9268 -2.2181
   23SAPC  H18Y 3107   1.439   4.685   8.758 -0.7154  0.2108  1.5742
   23SAPC  H18Z 3108   1.531   4.789   8.649  0.2040  0.8144  0.7672
   24SAPC     N 3109   4.493   4.551  11.289  0.3988 -0.4062  0.5752
   24SAPC   C12 3110   4.371   4.509  11.198 -0.6904 -1.1227  0.2670
   24SAPC  H12A 3111   4.316   4.594  11.161  1.3937 -0.1634 -0.8155
   24SAPC  H12B 3112   4.306   4.458  11.268 -2.2424 -1.2297 -1.2037
   24SAPC   C13 3113   4.563   4.434  11.332 -0.6023  0.2446 -0.1533
   24SAPC  H13A 3114   4.494   4.366  11.380 -1.3149 -0.4284 -2.0489
   24SAPC  H13B 3115   4.613   4.391  11.246  1.0625 -0.2872  1.0097
   24SAPC  H13C 3116   4.639   4.444  11.409 -1.7741 -0.4403  1.1344
   24SAPC   C14 3117   4.581   4.638  11.213  0.9421  0.2610  0.2792
   24SAPC  H14A 3118   4.597   4.597  11.115 -2.0706  0.1876 -0.2844
   24SAPC  H14B 3119   4.537   4.734  11.190  2.1991  0.6791 -0.4775
   24SAPC  H14C 3120   4.676   4.658  11.259 -0.4997  1.8488  2.8662
   24SAPC   C15 3121   4.455   4.641  11.403  0.2333  0.2696 -0.6462
   24SAPC  H15A 3122   4.403   4.725  11.360 -0.1538 -0.0058 -0.7151
   24SAPC  H15B 3123   4.397   4.581  11.471 -0.6038 -1.4278 -2.7330
   24SAPC  H15C 3124   4.539   4.673  11.464 -1.1953  0.6729  1.2049
   24SAPC   C11 3125   4.392   4.417  11.076  0.0575 -0.1799  0.3381
   24SAPC  H11A 3126   4.290   4.405  11.033 -0.4929  1.1570  1.1658
   24SAPC  H11B 3127   4.434   4.318  11.103 -1.2834 -0.1076  3.0505
   24SAPC     P 3128   4.400   4.590  10.882 -0.2308 -0.2785  0.0579
   24SAPC   O13 3129   4.300   4.669  10.962 -0.2156 -0.0504  0.3404
   24SAPC   O14 3130   4.499   4.666  10.805 -0.3891 -0.2087 -0.2352
   24SAPC   O12 3131   4.473   4.487  10.976  0.5649  0.5045  0.3308
   24SAPC   O11 3132   4.329   4.500  10.780 -0.2922  0.3213  0.2982
   24SAPC    C1 3133   4.390   4.378  10.725 -0.4396  0.4348 -0.1678
   24SAPC    HA 3134   4.383   4.294  10.797  2.6827  1.4449  1.4862
   24SAPC    HB 3135   4.334   4.341  10.636 -0.6324 -0.5190  0.3314
   24SAPC    C2 3136   4.546   4.380  10.703  0.1972  0.1335  0.0586
   24SAPC    HS 3137   4.603   4.410  10.794 -0.6309  2.2282 -0.0413
   24SAPC   O21 3138   4.577   4.454  10.583 -0.5399  0.9926 -0.2674
   24SAPC   C21 3139   4.706   4.480  10.576 -0.8299 -0.2096 -0.4457
   24SAPC   O22 3140   4.793   4.465  10.664  0.2729 -0.4189  0.0235
   24SAPC   C22 3141   4.738   4.522  10.435  0.6509  0.0942 -0.6159
   24SAPC   H2R 3142   4.845   4.501  10.418  0.6838 -0.7538  0.5227
   24SAPC   H2S 3143   4.694   4.444  10.368  0.2060 -1.1894  1.0941
   24SAPC    C3 3144   4.597   4.233  10.670 -0.2095 -0.4009 -0.4567
   24SAPC    HX 3145   4.603   4.176  10.765 -2.6917  1.3642  0.8634
   24SAPC    HY 3146   4.700   4.232  10.629 -0.1207 -0.9518 -0.2225
   24SAPC   O31 3147   4.496   4.162  10.591 -0.8276 -0.5078 -0.1086
   24SAPC   C31 3148   4.542   4.098  10.485 -0.7360  0.0093 -0.1653
   24SAPC   O32 3149   4.660   4.065  10.465  0.7415  0.1825  0.3936
   24SAPC   C32 3150   4.439   4.067  10.390  0.0467  0.3832  0.3455
   24SAPC   H2X 3151   4.340   4.099  10.429  0.3218  1.0775  0.4881
   24SAPC   H2Y 3152   4.439   3.955  10.389 -1.9304  0.3504  0.5825
   24SAPC   C23 3153   4.687   4.665  10.399  0.7434  0.4108 -0.5291
   24SAPC   H3R 3154   4.576   4.669  10.406  0.8680  2.3761  1.4981
   24SAPC   H3S 3155   4.704   4.685  10.291 -2.4022  0.8452 -1.0531
   24SAPC   C24 3156   4.748   4.770  10.498 -0.1448 -0.3824  0.4848
   24SAPC   H4R 3157   4.709   4.763  10.601 -0.9468 -2.2530  0.0999
   24SAPC   H4S 3158   4.705   4.864  10.459  2.5957  1.0921  0.7658
   24SAPC   C25 3159   4.899   4.776  10.497 -0.0296  0.6781 -0.3670
   24SAPC   H5R 3160   4.940   4.769  10.599  0.0920  0.3237 -0.4405
   24SAPC   C26 3161   4.984   4.782  10.394 -0.5649  0.3178  0.5566
   24SAPC   H6R 3162   5.092   4.769  10.408  0.1150  2.4762 -1.9298
   24SAPC   C27 3163   4.957   4.788  10.247  0.3501 -0.2022 -0.4783
   24SAPC   H7R 3164   4.852   4.822  10.235  0.7488  0.3629 -2.8532
   24SAPC   H7S 3165   4.950   4.686  10.203 -1.9714  0.0297 -0.7248
   24SAPC   C28 3166   5.028   4.881  10.154  0.3274  0.5836  0.1023
   24SAPC   H8R 3167   4.987   4.982  10.152 -0.2895  0.3312 -1.5719
   24SAPC   C29 3168   5.136   4.857  10.073  0.7781  0.4297 -0.5161
   24SAPC   H9R 3169   5.183   4.936  10.013  4.1913 -0.4634  0.7673
   24SAPC  C210 3170   5.223   4.733  10.069  0.9800  0.1487  0.0061
   24SAPC  H10R 3171   5.210   4.661  10.152 -1.0813 -0.4834 -0.8050
   24SAPC  H10S 3172   5.323   4.781  10.083  0.4144  0.9428  1.5573
   24SAPC  C211 3173   5.203   4.649   9.944 -0.3304  0.2674  0.4301
   24SAPC  H11R 3174   5.162   4.548   9.957 -0.4622  0.4792  1.8099
   24SAPC  C212 3175   5.252   4.695   9.824 -0.4524  0.3037 -0.1016
   24SAPC  H12R 3176   5.238   4.631   9.736  4.0809 -1.8675  0.5016
   24SAPC  C213 3177   5.317   4.834   9.800 -1.0647  0.7082 -1.1274
   24SAPC  H13R 3178   5.336   4.901   9.886 -0.3200  1.0960 -1.5797
   24SAPC  H13S 3179   5.249   4.901   9.743  0.1422  3.1262  0.1259
   24SAPC  C214 3180   5.445   4.822   9.714  0.4545 -0.4878 -0.0204
   24SAPC  H14R 3181   5.537   4.822   9.775  1.6715  3.3015 -1.5061
   24SAPC  C215 3182   5.443   4.810   9.583 -0.2565  0.2734 -0.0787
   24SAPC  H15R 3183   5.534   4.799   9.521 -1.7842 -2.7385 -2.0153
   24SAPC  C216 3184   5.321   4.808   9.496 -0.6563  0.4995  0.2523
   24SAPC  H16R 3185   5.227   4.786   9.551 -0.4512 -1.5528 -0.1559
   24SAPC  H16S 3186   5.330   4.716   9.435 -1.8058  0.1313  0.6064
   24SAPC  C217 3187   5.319   4.925   9.401 -0.0546  0.8553  0.3211
   24SAPC  H17R 3188   5.419   4.951   9.360 -0.2128 -1.0130 -1.3387
   24SAPC  H17S 3189   5.288   5.017   9.456 -0.4437  1.7377 -1.3366
   24SAPC  C218 3190   5.229   4.904   9.287  0.7116 -0.6275 -0.0628
   24SAPC  H18R 3191   5.240   4.796   9.264 -0.9724 -0.8342 -0.0197
   24SAPC  H18S 3192   5.259   4.961   9.196  1.7280  1.6511  1.5886
   24SAPC  C219 3193   5.082   4.937   9.321  0.0050 -0.1654 -0.3931
   24SAPC  H19R 3194   5.079   5.042   9.357 -1.3237 -0.9751  2.1169
   24SAPC  H19S 3195   5.054   4.870   9.405  0.5425  1.7831  1.4051
   24SAPC  C220 3196   4.993   4.928   9.197 -0.3715  0.0802 -0.9414
   24SAPC  H20R 3197   5.049   4.987   9.122  1.1619 -0.0737  0.0201
   24SAPC  H20S 3198   4.894   4.969   9.226  0.0718 -0.2645  1.2465
   24SAPC  H20T 3199   4.982   4.824   9.160 -0.7983 -0.4412  0.5843
   24SAPC   C33 3200   4.467   4.137  10.254  0.3168  0.6033  0.2273
   24SAPC   H3X 3201   4.436   4.058  10.182  1.7624 -0.1755  0.4037
   24SAPC   H3Y 3202   4.576   4.154  10.243  0.2073  2.2958  1.4158
   24SAPC   C34 3203   4.400   4.272  10.236 -0.2011  0.3669 -0.5253
   24SAPC   H4X 3204   4.379   4.314  10.337  1.7931 -2.4110  1.2003
   24SAPC   H4Y 3205   4.298   4.258  10.196 -0.6502 -0.8534  0.9586
   24SAPC   C35 3206   4.478   4.381  10.155 -0.2646  0.2025 -0.3584
   24SAPC   H5X 3207   4.578   4.397  10.203 -0.0168  1.2645 -1.1970
   24SAPC   H5Y 3208   4.426   4.479  10.162 -2.2275 -0.8368  0.2780
   24SAPC   C36 3209   4.481   4.349  10.008  0.4443  0.0462 -0.8187
   24SAPC   H6X 3210   4.373   4.344   9.980  0.2321 -0.3165  0.0476
   24SAPC   H6Y 3211   4.515   4.244   9.994 -0.5539 -1.1751  4.1276
   24SAPC   C37 3212   4.554   4.453   9.917 -0.0917 -0.1037  0.4440
   24SAPC   H7X 3213   4.495   4.546   9.926  1.5789  1.1443 -0.7694
   24SAPC   H7Y 3214   4.538   4.416   9.813 -3.3216 -0.1710  0.8754
   24SAPC   C38 3215   4.696   4.494   9.957  0.7359  0.3020  0.0185
   24SAPC   H8X 3216   4.763   4.411   9.990  0.6042  0.2217  0.0852
   24SAPC   H8Y 3217   4.689   4.554  10.050  2.2914 -1.2677  1.2105
   24SAPC   C39 3218   4.754   4.594   9.860  0.8399 -0.3310 -0.0042
   24SAPC   H9X 3219   4.832   4.657   9.909  0.9687 -0.8773  0.5054
   24SAPC   H9Y 3220   4.674   4.658   9.819  1.1070 -1.3612 -2.2568
   24SAPC  C310 3221   4.832   4.522   9.744  0.0735 -0.5127 -0.6403
   24SAPC  H10X 3222   4.766   4.441   9.704 -2.7840  0.7355  1.1717
   24SAPC  H10Y 3223   4.924   4.476   9.784 -0.0742 -1.7014 -1.5981
   24SAPC  C311 3224   4.881   4.612   9.630  0.1525 -0.2990  0.4535
   24SAPC  H11X 3225   4.967   4.676   9.658  0.4255 -0.3636 -0.2293
   24SAPC  H11Y 3226   4.799   4.678   9.597  0.3551  0.4042  1.3015
   24SAPC  C312 3227   4.918   4.523   9.512  0.3449  0.3925 -0.4411
   24SAPC  H12X 3228   4.822   4.496   9.464  0.5204 -0.0779 -0.5296
   24SAPC  H12Y 3229   4.962   4.431   9.555  1.8097  0.2790 -2.1084
   24SAPC  C313 3230   5.033   4.576   9.424  0.6438 -0.2125 -0.8871
   24SAPC  H13X 3231   5.134   4.581   9.470  0.2557 -1.5601  0.1818
   24SAPC  H13Y 3232   4.996   4.677   9.395 -0.8638 -0.3431  0.3924
   24SAPC  C314 3233   5.037   4.492   9.296  0.2490  0.2036  0.1859
   24SAPC  H14X 3234   4.939   4.484   9.244  0.0954 -0.7653  0.6061
   24SAPC  H14Y 3235   5.057   4.389   9.332 -0.1054  1.0829  3.2371
   24SAPC  C315 3236   5.140   4.546   9.197  0.8025 -0.6974  0.2624
   24SAPC  H15X 3237   5.232   4.500   9.238  0.4399 -0.7281  1.0580
   24SAPC  H15Y 3238   5.130   4.657   9.197 -2.1927 -0.8647  0.2328
   24SAPC  C316 3239   5.110   4.503   9.046 -0.1566  0.6161  0.1812
   24SAPC  H16X 3240   5.004   4.508   9.015 -0.2333  0.6309  0.4437
   24SAPC  H16Y 3241   5.147   4.398   9.042 -0.8525  0.3532  0.4176
   24SAPC  C317 3242   5.188   4.582   8.937 -0.1135 -0.5944  0.0853
   24SAPC  H17X 3243   5.293   4.596   8.972  1.0133 -3.0795 -1.9396
   24SAPC  H17Y 3244   5.133   4.677   8.921  2.1995  0.7150 -0.5822
   24SAPC  C318 3245   5.202   4.508   8.799  0.5315 -0.6338  0.1128
   24SAPC  H18X 3246   5.249   4.408   8.804 -0.5453 -1.3919 -2.7085
   24SAPC  H18Y 3247   5.251   4.568   8.719 -2.5698 -1.5551 -2.7487
   24SAPC  H18Z 3248   5.100   4.494   8.756  0.6772  1.8412 -1.2484
   25SAPC     N 3249   6.088   2.163   6.064 -0.1166  0.4704 -0.5987
   25SAPC   C12 3250   5.977   2.259   6.107  0.1923  0.0713 -0.0789
   25SAPC  H12A 3251   5.884   2.208   6.125  0.8818 -0.7617  1.3471
   25SAPC  H12B 3252   5.963   2.318   6.018  1.6212 -0.3077 -0.5877
   25SAPC   C13 3253   6.122   2.095   6.192 -0.1528 -0.5460  0.2126
   25SAPC  H13A 3254   6.183   2.007   6.182 -2.2185 -1.9052 -1.2398
   25SAPC  H13B 3255   6.157   2.166   6.265 -1.8335 -0.2446  0.7787
   25SAPC  H13C 3256   6.037   2.054   6.247  1.2786 -0.5107  2.6070
   25SAPC   C14 3257   6.030   2.065   5.970  0.7180 -0.1107 -0.0665
   25SAPC  H14A 3258   5.953   2.013   6.026  0.5270  0.2322 -0.0135
   25SAPC  H14B 3259   5.989   2.110   5.880 -1.5098 -0.7139  0.5627
   25SAPC  H14C 3260   6.108   1.999   5.935 -0.1029  0.5117 -3.5109
   25SAPC   C15 3261   6.197   2.237   6.005  0.0349  0.2250 -0.2308
   25SAPC  H15A 3262   6.289   2.179   5.999  1.0060  1.8170 -1.3652
   25SAPC  H15B 3263   6.182   2.292   5.914 -1.3949  1.3721  0.6660
   25SAPC  H15C 3264   6.220   2.325   6.063  2.7108  0.9392 -2.1661
   25SAPC   C11 3265   5.986   2.365   6.219  0.1234 -0.1129  0.6741
   25SAPC  H11A 3266   5.968   2.312   6.316 -1.5510  3.5481  2.5921
   25SAPC  H11B 3267   5.902   2.435   6.198  0.2109  0.1532  1.1874
   25SAPC     P 3268   6.132   2.567   6.144 -0.1025 -0.1001  0.4436
   25SAPC   O13 3269   6.162   2.549   5.999 -0.2221  0.1094 -0.0048
   25SAPC   O14 3270   6.017   2.656   6.159 -0.1097  0.4350 -0.1475
   25SAPC   O12 3271   6.113   2.431   6.221  0.2444 -0.3280 -0.3107
   25SAPC   O11 3272   6.264   2.622   6.214  0.2663  0.2176  0.5234
   25SAPC    C1 3273   6.310   2.598   6.345  0.1029 -0.1268  1.0762
   25SAPC    HA 3274   6.294   2.492   6.375  0.1260  0.0106  1.5787
   25SAPC    HB 3275   6.418   2.623   6.352  0.5403 -1.7089  0.4136
   25SAPC    C2 3276   6.250   2.697   6.450  0.6964 -0.9206 -0.3503
   25SAPC    HS 3277   6.303   2.691   6.547 -0.8987  0.2630  0.6458
   25SAPC   O21 3278   6.107   2.672   6.464  0.4053  0.1736 -0.1024
   25SAPC   C21 3279   6.078   2.561   6.533  0.5503 -0.3849  0.2822
   25SAPC   O22 3280   6.159   2.481   6.579 -0.3471  0.1986  0.2595
   25SAPC   C22 3281   5.929   2.533   6.532  0.0002 -0.2085  0.3633
   25SAPC   H2R 3282   5.876   2.564   6.440 -0.5759 -2.8737 -0.2884
   25SAPC   H2S 3283   5.918   2.423   6.524 -2.1859 -0.1853  2.0660
   25SAPC    C3 3284   6.251   2.845   6.400 -0.3128  0.2727  0.3993
   25SAPC    HX 3285   6.198   2.837   6.303  3.0573  2.8915 -1.8652
   25SAPC    HY 3286   6.347   2.894   6.375 -0.1849 -0.3968 -0.4472
   25SAPC   O31 3287   6.162   2.920   6.483  0.9474 -0.3248 -0.3165
   25SAPC   C31 3288   6.192   2.936   6.616 -0.2979 -0.2672 -0.5872
   25SAPC   O32 3289   6.299   2.896   6.665  0.1726  1.0558 -0.1953
   25SAPC   C32 3290   6.065   2.993   6.685  0.6495 -0.0054  0.5089
   25SAPC   H2X 3291   5.990   2.918   6.650  1.6686  0.1976 -2.4276
   25SAPC   H2Y 3292   6.029   3.092   6.650 -2.2773 -1.6215 -1.5007
   25SAPC   C23 3293   5.861   2.593   6.660  1.0265 -0.7808  0.4831
   25SAPC   H3R 3294   5.754   2.566   6.649  0.6688  0.0626  1.6227
   25SAPC   H3S 3295   5.881   2.702   6.657  1.2107 -0.8154  0.4321
   25SAPC   C24 3296   5.911   2.526   6.790  0.1932  0.0071 -0.4621
   25SAPC   H4R 3297   6.017   2.491   6.795 -0.3757 -2.0109 -1.3042
   25SAPC   H4S 3298   5.862   2.427   6.803  2.9969 -1.4915 -0.4531
   25SAPC   C25 3299   5.869   2.612   6.909 -0.6198 -0.4719 -0.5900
   25SAPC   H5R 3300   5.832   2.714   6.892 -1.0343 -0.4811  0.2075
   25SAPC   C26 3301   5.876   2.579   7.040  0.2843 -0.1245  0.6801
   25SAPC   H6R 3302   5.851   2.658   7.113  2.3541  0.6180  0.6448
   25SAPC   C27 3303   5.896   2.437   7.096  0.6730 -0.0067 -0.3433
   25SAPC   H7R 3304   5.956   2.446   7.188  1.0606  0.9130 -0.6668
   25SAPC   H7S 3305   5.952   2.378   7.020  1.8495 -0.4478  0.8365
   25SAPC   C28 3306   5.760   2.366   7.131 -0.5503  0.3177 -0.2757
   25SAPC   H8R 3307   5.696   2.333   7.048 -1.0675 -0.5045  0.4400
   25SAPC   C29 3308   5.713   2.347   7.255  0.0622  0.0568 -0.9276
   25SAPC   H9R 3309   5.624   2.283   7.263  1.6935 -2.0995  2.1624
   25SAPC  C210 3310   5.775   2.382   7.386 -0.4928 -0.4084  1.2356
   25SAPC  H10R 3311   5.722   2.473   7.422  1.0368  0.8055  0.5731
   25SAPC  H10S 3312   5.883   2.397   7.367 -0.2081 -1.1340  2.2131
   25SAPC  C211 3313   5.763   2.282   7.491  0.1967 -0.2473 -0.2818
   25SAPC  H11R 3314   5.758   2.180   7.448 -0.4592 -0.3269 -0.0333
   25SAPC  C212 3315   5.759   2.296   7.624 -0.2367  0.2405  0.3806
   25SAPC  H12R 3316   5.750   2.207   7.688  1.0879  1.3098  2.1278
   25SAPC  C213 3317   5.778   2.418   7.709  0.0596  0.7575 -0.2091
   25SAPC  H13R 3318   5.684   2.432   7.766  0.1334 -0.5036  0.2498
   25SAPC  H13S 3319   5.795   2.500   7.636  0.4369  0.1545 -0.8080
   25SAPC  C214 3320   5.900   2.408   7.809  0.6414 -0.3460  0.1837
   25SAPC  H14R 3321   5.968   2.323   7.794  1.9749  1.0192 -2.1515
   25SAPC  C215 3322   5.923   2.481   7.920 -0.1749  0.3812 -0.0958
   25SAPC  H15R 3323   6.010   2.462   7.984  0.7077 -0.4455 -1.5094
   25SAPC  C216 3324   5.826   2.583   7.970 -0.3894  0.4224  0.8509
   25SAPC  H16R 3325   5.719   2.552   7.971 -1.0557  2.3504 -1.6010
   25SAPC  H16S 3326   5.827   2.680   7.916  0.1876  0.3736  0.7695
   25SAPC  C217 3327   5.860   2.616   8.121  0.1282  0.6293 -0.1195
   25SAPC  H17R 3328   5.869   2.519   8.175  0.5515  0.4022 -0.5918
   25SAPC  H17S 3329   5.769   2.659   8.169 -1.8700 -3.8427  0.6690
   25SAPC  C218 3330   5.990   2.687   8.131 -0.3605 -0.2092 -0.4451
   25SAPC  H18R 3331   5.993   2.777   8.066  1.5130  1.5788  1.9297
   25SAPC  H18S 3332   6.075   2.630   8.089  1.0732  0.6650  1.1289
   25SAPC  C219 3333   6.025   2.727   8.279 -0.0748 -0.2942 -0.3568
   25SAPC  H19R 3334   6.132   2.748   8.299 -0.1319 -1.1546  0.9688
   25SAPC  H19S 3335   5.997   2.652   8.355 -0.7072  0.2817 -0.0120
   25SAPC  C220 3336   5.968   2.859   8.327  0.1829  0.3253  0.3278
   25SAPC  H20R 3337   6.000   2.944   8.263  2.7480 -1.8817 -1.5345
   25SAPC  H20S 3338   6.004   2.880   8.430 -2.0947 -2.2466  1.7842
   25SAPC  H20T 3339   5.858   2.856   8.337  0.0468  2.0625 -0.2971
   25SAPC   C33 3340   6.065   3.000   6.835  0.0402  0.5360 -0.3545
   25SAPC   H3X 3341   6.100   2.901   6.872 -1.5556 -0.1082 -0.4635
   25SAPC   H3Y 3342   5.960   3.014   6.871  0.0325 -0.2252 -0.0548
   25SAPC   C34 3343   6.151   3.106   6.894 -0.4257  0.6108  0.0339
   25SAPC   H4X 3344   6.137   3.204   6.842  1.7502 -0.0021 -1.8780
   25SAPC   H4Y 3345   6.257   3.072   6.889  0.3870  2.6588  1.8104
   25SAPC   C35 3346   6.142   3.105   7.046 -0.3651 -0.2292  0.2149
   25SAPC   H5X 3347   6.043   3.069   7.080  0.3246 -1.4258  1.0575
   25SAPC   H5Y 3348   6.169   3.202   7.093  2.5337  0.0973 -1.8168
   25SAPC   C36 3349   6.241   3.011   7.114  0.0892  0.2527 -1.3436
   25SAPC   H6X 3350   6.345   3.036   7.085  1.1450 -1.6831  0.5022
   25SAPC   H6Y 3351   6.231   2.906   7.078  1.3959 -1.3525  2.5006
   25SAPC   C37 3352   6.227   3.010   7.268 -0.0989 -0.1017  0.3257
   25SAPC   H7X 3353   6.254   3.107   7.316 -1.6919  0.9673 -0.7933
   25SAPC   H7Y 3354   6.303   2.940   7.307  0.3546  0.1108 -0.1625
   25SAPC   C38 3355   6.092   2.970   7.314  0.2895  0.3975  0.1665
   25SAPC   H8X 3356   6.051   2.886   7.254  1.3307  1.4673 -2.2097
   25SAPC   H8Y 3357   6.020   3.054   7.303  0.6907  0.7684  0.3060
   25SAPC   C39 3358   6.100   2.923   7.455  0.1799  0.6762 -0.1656
   25SAPC   H9X 3359   6.135   3.010   7.514  1.1465  1.9241 -2.4331
   25SAPC   H9Y 3360   6.172   2.838   7.453 -2.0247 -1.2701 -1.5038
   25SAPC  C310 3361   5.964   2.878   7.501  0.3761 -0.4853  0.4815
   25SAPC  H10X 3362   5.919   2.816   7.420  2.1957  0.7087 -1.5374
   25SAPC  H10Y 3363   5.902   2.968   7.520 -1.6942 -1.7953  0.2497
   25SAPC  C311 3364   5.957   2.809   7.643  0.0316 -0.0291 -0.8400
   25SAPC  H11X 3365   5.993   2.707   7.620  0.5024  0.2196 -1.2443
   25SAPC  H11Y 3366   5.850   2.787   7.661 -0.0750  0.4954 -0.8105
   25SAPC  C312 3367   6.037   2.867   7.766 -0.2948 -0.4589  0.7304
   25SAPC  H12X 3368   6.141   2.872   7.727 -0.4715  0.0883  0.3100
   25SAPC  H12Y 3369   6.038   2.787   7.843  2.8869  0.4705  1.8270
   25SAPC  C313 3370   5.977   2.996   7.820  0.1088  0.2543  0.0518
   25SAPC  H13X 3371   5.868   2.983   7.840  0.2049  1.5495  1.6224
   25SAPC  H13Y 3372   5.989   3.079   7.747  3.3864 -1.3010 -1.3438
   25SAPC  C314 3373   6.040   3.030   7.956 -0.0175  0.4362 -0.7695
   25SAPC  H14X 3374   6.151   3.031   7.944 -0.2868 -0.1937 -4.4193
   25SAPC  H14Y 3375   6.009   2.952   8.030  1.1416 -0.2388 -0.9516
   25SAPC  C315 3376   5.995   3.168   8.012 -0.4746  0.0676  0.5517
   25SAPC  H15X 3377   6.007   3.245   7.933  2.2551 -0.9896 -0.1771
   25SAPC  H15Y 3378   6.065   3.192   8.096  0.6709  2.4689 -0.9662
   25SAPC  C316 3379   5.854   3.166   8.070  0.2881 -0.1683 -0.4858
   25SAPC  H16X 3380   5.859   3.085   8.145 -0.0852 -0.0312 -0.3104
   25SAPC  H16Y 3381   5.779   3.138   7.994  0.3871  0.3087 -0.7653
   25SAPC  C317 3382   5.810   3.293   8.141 -0.1862  0.1307  0.3472
   25SAPC  H17X 3383   5.828   3.373   8.066  3.0140 -1.3985 -0.7234
   25SAPC  H17Y 3384   5.877   3.323   8.224  0.1325  1.3066 -0.3156
   25SAPC  C318 3385   5.662   3.292   8.185 -0.3195 -0.1530 -0.2417
   25SAPC  H18X 3386   5.622   3.218   8.257 -0.5001  2.1828  2.2264
   25SAPC  H18Y 3387   5.600   3.294   8.093  0.6042  2.5219 -0.9045
   25SAPC  H18Z 3388   5.633   3.390   8.229  0.3720 -0.6310  1.3509
   26SAPC     N 3389   0.293   5.140   6.015 -0.4292  0.0974 -0.8125
   26SAPC   C12 3390   0.405   5.065   6.086  0.3706 -0.3659  0.4018
   26SAPC  H12A 3391   0.393   5.067   6.193 -1.5500 -1.0060  0.2294
   26SAPC  H12B 3392   0.503   5.108   6.069 -0.6474  1.3503 -1.5787
   26SAPC   C13 3393   0.154   5.091   6.052  0.1661  0.0103  0.5248
   26SAPC  H13A 3394   0.153   4.983   6.046 -3.5248 -0.0995  1.1521
   26SAPC  H13B 3395   0.118   5.119   6.149  1.8433 -0.7744  1.4197
   26SAPC  H13C 3396   0.077   5.133   5.988 -1.5101 -1.8849  1.2008
   26SAPC   C14 3397   0.303   5.287   6.036 -0.0812  0.2564  0.1341
   26SAPC  H14A 3398   0.398   5.332   6.009  0.6405 -1.0714  0.3864
   26SAPC  H14B 3399   0.229   5.349   5.987  1.2377 -2.0968 -5.5908
   26SAPC  H14C 3400   0.279   5.304   6.140 -1.8433  2.7642 -0.5864
   26SAPC   C15 3401   0.301   5.119   5.867  0.7620 -0.0763 -0.0406
   26SAPC  H15A 3402   0.230   5.175   5.808 -0.1846 -2.3901 -1.2650
   26SAPC  H15B 3403   0.399   5.126   5.822  0.8966 -1.9677 -0.1446
   26SAPC  H15C 3404   0.274   5.015   5.855  0.2101  0.0212  0.3382
   26SAPC   C11 3405   0.413   4.910   6.056  0.0183 -0.0906  0.9534
   26SAPC  H11A 3406   0.500   4.860   6.104 -0.9015 -1.0071  1.7085
   26SAPC  H11B 3407   0.432   4.890   5.948 -1.7173 -0.1993  0.6452
   26SAPC     P 3408   0.299   4.710   6.188  0.4173 -0.2071  0.5411
   26SAPC   O13 3409   0.159   4.675   6.219 -0.8516  0.2306 -0.6387
   26SAPC   O14 3410   0.380   4.606   6.118 -0.1232  0.1999 -1.2213
   26SAPC   O12 3411   0.294   4.841   6.101 -0.2834  0.5294  0.8997
   26SAPC   O11 3412   0.371   4.756   6.309 -0.1791 -0.2454 -0.3336
   26SAPC    C1 3413   0.333   4.870   6.395 -0.1591  0.2925 -0.3997
   26SAPC    HA 3414   0.428   4.910   6.436 -0.3370 -0.4800  0.8225
   26SAPC    HB 3415   0.278   4.949   6.341  2.3762  1.8695 -0.8231
   26SAPC    C2 3416   0.263   4.835   6.525 -0.1218  0.2626  0.4471
   26SAPC    HS 3417   0.162   4.805   6.491  0.8785 -0.6952 -1.9508
   26SAPC   O21 3418   0.254   4.954   6.605 -0.0605  0.6733 -0.9915
   26SAPC   C21 3419   0.166   5.052   6.575  0.2042 -0.2848  0.4246
   26SAPC   O22 3420   0.093   5.056   6.481  0.0279  0.7833  0.1875
   26SAPC   C22 3421   0.150   5.156   6.688 -0.1811  0.6816 -0.3850
   26SAPC   H2R 3422   0.227   5.141   6.767  1.7298  1.5125 -1.9767
   26SAPC   H2S 3423   0.176   5.257   6.650  2.8692 -0.5556 -1.9290
   26SAPC    C3 3424   0.335   4.719   6.603 -0.0198  0.3608 -0.3751
   26SAPC    HX 3425   0.439   4.745   6.634  0.0275  0.6027 -0.7263
   26SAPC    HY 3426   0.350   4.626   6.546  2.5884 -0.2056  1.0540
   26SAPC   O31 3427   0.268   4.679   6.726  0.0530 -0.1693  0.0192
   26SAPC   C31 3428   0.146   4.614   6.708  0.2799  0.5124 -0.0796
   26SAPC   O32 3429   0.081   4.617   6.606  0.1521 -0.3456 -0.0180
   26SAPC   C32 3430   0.111   4.545   6.838 -1.3177 -0.2059 -0.5776
   26SAPC   H2X 3431   0.164   4.448   6.837  0.2969  0.5442  1.9063
   26SAPC   H2Y 3432   0.002   4.525   6.830 -0.8289 -2.5378 -2.2290
   26SAPC   C23 3433   0.008   5.178   6.740 -0.0748 -0.1375  0.4708
   26SAPC   H3R 3434  -0.050   5.232   6.662  0.1736  0.8894  0.9723
   26SAPC   H3S 3435   0.023   5.255   6.819 -2.2504  1.6860 -0.7480
   26SAPC   C24 3436  -0.055   5.047   6.791 -0.1367 -0.1264  0.4269
   26SAPC   H4R 3437  -0.075   4.978   6.707  2.9260 -2.4096  1.3854
   26SAPC   H4S 3438  -0.154   5.068   6.836  0.1077 -1.1970  1.5240
   26SAPC   C25 3439   0.039   4.971   6.882  0.8742  0.5992  0.7377
   26SAPC   H5R 3440   0.110   4.905   6.829 -0.3608  0.9109 -1.4471
   26SAPC   C26 3441   0.040   4.970   7.013  0.7047  0.2365 -0.2284
   26SAPC   H6R 3442   0.123   4.919   7.064 -0.2003 -0.3097  0.7316
   26SAPC   C27 3443  -0.049   5.042   7.115 -0.8070  0.3593  0.5792
   26SAPC   H7R 3444  -0.088   4.966   7.186  0.4877 -2.0273 -1.1154
   26SAPC   H7S 3445  -0.141   5.092   7.077 -0.6121 -0.9347 -1.8407
   26SAPC   C28 3446   0.043   5.132   7.193  0.0376 -0.2255  0.0325
   26SAPC   H8R 3447   0.053   5.230   7.145  0.3293  0.5731  1.6750
   26SAPC   C29 3448   0.106   5.102   7.309 -0.3666 -0.5462  0.1900
   26SAPC   H9R 3449   0.175   5.176   7.351 -0.5113 -0.5924  0.5116
   26SAPC  C210 3450   0.095   4.979   7.403  0.3949 -0.7760  0.5100
   26SAPC  H10R 3451   0.182   4.913   7.384 -0.8391 -2.0294 -1.0291
   26SAPC  H10S 3452   0.021   4.907   7.363  0.7597  0.4987 -2.7033
   26SAPC  C211 3453   0.087   5.022   7.544  0.6643  0.1758 -0.3659
   26SAPC  H11R 3454   0.008   5.097   7.561  0.5112  0.1352 -0.8762
   26SAPC  C212 3455   0.150   4.979   7.653 -0.0457  0.0012 -0.0166
   26SAPC  H12R 3456   0.132   5.019   7.754  1.6664 -2.3017  1.2928
   26SAPC  C213 3457   0.259   4.880   7.653 -0.5382  0.1820 -0.7730
   26SAPC  H13R 3458   0.275   4.827   7.556 -0.3420  1.3592 -1.3962
   26SAPC  H13S 3459   0.233   4.813   7.738  3.6721  1.4678  1.8594
   26SAPC  C214 3460   0.388   4.958   7.682 -0.2280  0.1717 -0.0202
   26SAPC  H14R 3461   0.409   5.041   7.613 -1.0416 -0.2409 -0.7882
   26SAPC  C215 3462   0.479   4.924   7.777  0.5229  0.0909 -0.6943
   26SAPC  H15R 3463   0.549   5.009   7.791  1.1373 -0.0740 -2.4849
   26SAPC  C216 3464   0.474   4.800   7.873 -0.5378 -0.1913  0.1162
   26SAPC  H16R 3465   0.573   4.751   7.863 -1.0464 -1.1090 -0.4629
   26SAPC  H16S 3466   0.396   4.728   7.843 -1.5448  0.7757  0.3329
   26SAPC  C217 3467   0.468   4.819   8.024  0.1647  0.6380  0.2909
   26SAPC  H17R 3468   0.382   4.885   8.049 -0.5900  0.2128 -1.0463
   26SAPC  H17S 3469   0.552   4.869   8.077  0.5437  0.8198 -0.4765
   26SAPC  C218 3470   0.434   4.686   8.092  0.5850 -0.4057  0.3764
   26SAPC  H18R 3471   0.492   4.605   8.042  1.2396  0.9285 -1.0934
   26SAPC  H18S 3472   0.325   4.676   8.075  0.5471 -0.5575  0.6883
   26SAPC  C219 3473   0.462   4.695   8.250 -0.9026 -0.4760 -0.5798
   26SAPC  H19R 3474   0.567   4.732   8.253 -1.3219  0.6967  0.5969
   26SAPC  H19S 3475   0.462   4.591   8.288 -0.5187 -0.0807  0.5483
   26SAPC  C220 3476   0.362   4.784   8.329  0.5105  0.3140  0.1160
   26SAPC  H20R 3477   0.261   4.743   8.309  0.2500  0.9052  0.1887
   26SAPC  H20S 3478   0.372   4.891   8.299  0.3566 -0.1142 -1.5774
   26SAPC  H20T 3479   0.366   4.771   8.439 -0.0696 -2.8456 -0.1389
   26SAPC   C33 3480   0.142   4.618   6.973  0.5921 -0.3432 -0.0174
   26SAPC   H3X 3481   0.069   4.702   6.982  0.7112 -0.3459  1.1980
   26SAPC   H3Y 3482   0.247   4.654   6.971  0.2646  0.6285 -0.3378
   26SAPC   C34 3483   0.116   4.530   7.092 -0.1858  0.7793  0.0610
   26SAPC   H4X 3484   0.158   4.429   7.075 -1.6679  0.2741 -0.7925
   26SAPC   H4Y 3485   0.005   4.522   7.098 -0.1175 -0.3328 -0.0487
   26SAPC   C35 3486   0.173   4.580   7.227 -0.3005 -0.0830  0.8193
   26SAPC   H5X 3487   0.104   4.665   7.248 -1.3862 -0.5277 -0.7668
   26SAPC   H5Y 3488   0.274   4.618   7.202 -0.9463  0.1123 -1.7399
   26SAPC   C36 3489   0.153   4.477   7.341  0.0811  0.8824 -0.5433
   26SAPC   H6X 3490   0.192   4.379   7.306 -0.6523 -1.2495  3.9911
   26SAPC   H6Y 3491   0.045   4.459   7.357  0.9303 -4.0069  1.6530
   26SAPC   C37 3492   0.223   4.516   7.473  0.0546 -0.8063  0.2875
   26SAPC   H7X 3493   0.207   4.622   7.502 -0.3796 -0.6659 -0.4611
   26SAPC   H7Y 3494   0.333   4.509   7.454  0.4307  0.0166  1.9222
   26SAPC   C38 3495   0.190   4.415   7.579 -0.7775  0.4470 -0.2473
   26SAPC   H8X 3496   0.251   4.327   7.551 -3.1380 -1.9475  1.7111
   26SAPC   H8Y 3497   0.082   4.389   7.583 -1.4461  3.0090  1.6625
   26SAPC   C39 3498   0.236   4.467   7.718 -0.5141 -0.6723 -0.2445
   26SAPC   H9X 3499   0.183   4.563   7.739 -0.0553 -0.3754 -0.4345
   26SAPC   H9Y 3500   0.344   4.492   7.721 -0.3917 -1.2173  1.6959
   26SAPC  C310 3501   0.221   4.355   7.821 -0.1441 -0.5597  0.1191
   26SAPC  H10X 3502   0.296   4.275   7.803 -0.9211 -0.9487 -1.6136
   26SAPC  H10Y 3503   0.121   4.308   7.830  0.8157 -3.0994 -1.4747
   26SAPC  C311 3504   0.247   4.402   7.969 -0.3070  0.0084  0.6292
   26SAPC  H11X 3505   0.179   4.490   7.981  2.2627  2.1615  0.3411
   26SAPC  H11Y 3506   0.348   4.445   7.984 -0.2072 -0.1936  0.5425
   26SAPC  C312 3507   0.233   4.293   8.069  0.0152 -0.1663  0.5113
   26SAPC  H12X 3508   0.317   4.221   8.072 -0.9630 -1.3184  1.9286
   26SAPC  H12Y 3509   0.140   4.234   8.051 -0.3168  0.6220 -0.4655
   26SAPC  C313 3510   0.217   4.353   8.210 -0.0133 -0.4789  0.8642
   26SAPC  H13X 3511   0.112   4.388   8.220  0.5671  1.1154  1.7834
   26SAPC  H13Y 3512   0.273   4.445   8.236 -0.6467 -0.3518  1.8231
   26SAPC  C314 3513   0.252   4.250   8.325  0.5729 -0.6024  0.2566
   26SAPC  H14X 3514   0.200   4.158   8.290 -1.5903  1.1044 -1.3218
   26SAPC  H14Y 3515   0.209   4.291   8.418 -2.5472 -4.2586  0.6664
   26SAPC  C315 3516   0.400   4.223   8.347 -0.4576  0.1982 -0.3205
   26SAPC  H15X 3517   0.463   4.312   8.369  0.4492 -0.5773  0.3016
   26SAPC  H15Y 3518   0.449   4.187   8.253  1.3403  0.2338  0.5633
   26SAPC  C316 3519   0.432   4.119   8.456  0.3733  0.5459  0.8159
   26SAPC  H16X 3520   0.391   4.017   8.438  1.7152 -0.1444  1.4593
   26SAPC  H16Y 3521   0.393   4.168   8.548  0.9263  0.2948  1.1896
   26SAPC  C317 3522   0.576   4.073   8.468 -0.1571 -0.6483  0.3770
   26SAPC  H17X 3523   0.586   4.012   8.561 -2.3092 -2.9588 -0.7846
   26SAPC  H17Y 3524   0.641   4.163   8.474 -0.8957 -0.0423 -0.5372
   26SAPC  C318 3525   0.616   3.984   8.357  0.3595 -0.4785 -1.1218
   26SAPC  H18X 3526   0.556   3.892   8.341 -0.7917 -0.1276  0.9365
   26SAPC  H18Y 3527   0.717   3.940   8.364  0.2486 -0.5384  0.3009
   26SAPC  H18Z 3528   0.613   4.035   8.258 -0.4108  0.7306 -0.5047
   27SAPC     N 3529   4.114   6.019   6.516  0.1793  0.2872  0.3960
   27SAPC   C12 3530   4.196   5.979   6.637  0.2399  0.8770 -0.0607
   27SAPC  H12A 3531   4.231   6.066   6.690  0.6334 -0.2002  1.5064
   27SAPC  H12B 3532   4.291   5.937   6.605  0.0510  0.2065  0.2384
   27SAPC   C13 3533   3.994   6.108   6.551  0.3580  0.1061 -0.3777
   27SAPC  H13A 3534   3.935   6.126   6.463 -0.1890  0.0563 -0.0251
   27SAPC  H13B 3535   3.931   6.064   6.627  1.9434 -0.9525  0.3697
   27SAPC  H13C 3536   4.022   6.206   6.589  0.4072 -0.5908  1.4868
   27SAPC   C14 3537   4.201   6.095   6.423 -0.0017 -0.4950  0.4028
   27SAPC  H14A 3538   4.228   6.190   6.466 -2.7150  0.1905  0.7529
   27SAPC  H14B 3539   4.295   6.049   6.396  1.2323  2.1535 -0.1727
   27SAPC  H14C 3540   4.141   6.110   6.335  2.0253 -2.9024 -1.5410
   27SAPC   C15 3541   4.062   5.904   6.440  0.2862 -0.0348  0.4494
   27SAPC  H15A 3542   4.044   5.820   6.505  2.5177 -0.1961  0.9292
   27SAPC  H15B 3543   3.979   5.938   6.379  1.0113  1.9429  0.4792
   27SAPC  H15C 3544   4.136   5.875   6.367 -0.1178  0.8211 -0.3236
   27SAPC   C11 3545   4.130   5.869   6.726 -0.9256 -0.4109 -0.5314
   27SAPC  H11A 3546   4.021   5.886   6.736 -0.7243  0.3268  0.5685
   27SAPC  H11B 3547   4.180   5.875   6.825 -0.3537 -2.3082 -0.6705
   27SAPC     P 3548   4.297   5.670   6.694 -0.3398 -0.0777  0.3943
   27SAPC   O13 3549   4.282   5.550   6.607 -0.6343 -0.5341  0.2831
   27SAPC   O14 3550   4.401   5.768   6.665 -0.2704  0.3909 -0.1462
   27SAPC   O12 3551   4.160   5.743   6.671  0.4831 -0.3390  0.2920
   27SAPC   O11 3552   4.302   5.640   6.847 -0.3569 -0.5553 -0.3408
   27SAPC    C1 3553   4.254   5.522   6.900  0.0119  0.3582 -0.2039
   27SAPC    HA 3554   4.186   5.473   6.828  0.9915 -0.2330 -0.7599
   27SAPC    HB 3555   4.340   5.455   6.924  0.4220  1.0059  0.1574
   27SAPC    C2 3556   4.183   5.537   7.026  0.0610 -0.0978  0.1063
   27SAPC    HS 3557   4.105   5.615   7.012  0.5763  0.1637 -1.5432
   27SAPC   O21 3558   4.282   5.597   7.120  0.0384 -0.4846  0.1702
   27SAPC   C21 3559   4.237   5.623   7.241  0.2110 -0.3021 -0.2873
   27SAPC   O22 3560   4.122   5.630   7.277  0.0460 -0.5259  0.4656
   27SAPC   C22 3561   4.356   5.630   7.336 -0.4689  0.1443 -0.2977
   27SAPC   H2R 3562   4.351   5.543   7.405 -0.7020  0.0555 -0.4242
   27SAPC   H2S 3563   4.446   5.601   7.278 -1.0123 -2.9714  0.2074
   27SAPC    C3 3564   4.115   5.401   7.072  0.5890 -0.4433 -0.5336
   27SAPC    HX 3565   4.048   5.377   6.986 -0.4178  3.5673 -1.0760
   27SAPC    HY 3566   4.051   5.424   7.159  2.1368 -1.1509  0.8561
   27SAPC   O31 3567   4.205   5.298   7.121 -0.1352 -0.0235 -0.1102
   27SAPC   C31 3568   4.217   5.186   7.048 -0.1871 -0.4132 -0.4445
   27SAPC   O32 3569   4.158   5.170   6.942 -0.1069 -0.2298  0.5214
   27SAPC   C32 3570   4.309   5.083   7.108 -0.8119  0.0107  0.4715
   27SAPC   H2X 3571   4.408   5.090   7.058 -0.8121 -3.0692 -0.1074
   27SAPC   H2Y 3572   4.273   4.981   7.084  1.9758 -1.0700  0.5758
   27SAPC   C23 3573   4.372   5.762   7.417  0.8950 -0.2923  0.2227
   27SAPC   H3R 3574   4.321   5.843   7.361 -0.4789 -0.9441  0.4576
   27SAPC   H3S 3575   4.481   5.773   7.433  0.6763 -0.5295  2.2003
   27SAPC   C24 3576   4.329   5.752   7.562  0.4508 -0.3464  0.0977
   27SAPC   H4R 3577   4.354   5.841   7.624 -1.8380 -1.1043  2.2827
   27SAPC   H4S 3578   4.401   5.680   7.608  0.1353 -0.5433  0.2893
   27SAPC   C25 3579   4.189   5.705   7.596 -0.2386  0.7118 -0.0226
   27SAPC   H5R 3580   4.125   5.707   7.507 -0.3699 -0.2529  0.0440
   27SAPC   C26 3581   4.136   5.669   7.716 -0.3823 -0.5954 -0.3566
   27SAPC   H6R 3582   4.032   5.632   7.715 -0.3613 -0.8588 -3.3652
   27SAPC   C27 3583   4.212   5.675   7.846 -0.7255 -0.3694  0.0392
   27SAPC   H7R 3584   4.320   5.657   7.828 -0.8473  0.3064 -1.5436
   27SAPC   H7S 3585   4.178   5.591   7.910 -0.4759  0.4398  1.2789
   27SAPC   C28 3586   4.185   5.798   7.927  0.8496 -0.6178  0.2335
   27SAPC   H8R 3587   4.170   5.882   7.857  2.0587 -1.0489 -0.5670
   27SAPC   C29 3588   4.179   5.815   8.060 -0.7727 -0.4767  0.0825
   27SAPC   H9R 3589   4.156   5.917   8.094  0.1679 -0.4414  0.6525
   27SAPC  C210 3590   4.195   5.711   8.170 -0.7547 -0.0013  0.2607
   27SAPC  H10R 3591   4.165   5.614   8.125  1.8637  0.0890 -1.9257
   27SAPC  H10S 3592   4.125   5.737   8.252 -0.2382  1.7602  0.1774
   27SAPC  C211 3593   4.334   5.711   8.228  0.2834  0.2729 -1.1011
   27SAPC  H11R 3594   4.378   5.812   8.227 -0.6504  0.7595  1.1971
   27SAPC  C212 3595   4.396   5.600   8.280 -0.1095 -0.6731 -0.9071
   27SAPC  H12R 3596   4.503   5.607   8.308 -0.0372  0.6752 -1.4443
   27SAPC  C213 3597   4.336   5.460   8.283 -0.2750  0.1870  0.2192
   27SAPC  H13R 3598   4.397   5.375   8.245 -2.1797 -0.9645 -0.3596
   27SAPC  H13S 3599   4.242   5.451   8.225 -0.5412 -0.7470  0.7787
   27SAPC  C214 3600   4.297   5.438   8.428  0.8243  0.4543 -0.5421
   27SAPC  H14R 3601   4.235   5.516   8.474  0.4170  0.4727 -1.1196
   27SAPC  C215 3602   4.314   5.330   8.506  0.9161  0.2188 -0.1404
   27SAPC  H15R 3603   4.294   5.338   8.614  2.2342  1.4717  0.0450
   27SAPC  C216 3604   4.379   5.201   8.457  0.2343 -0.3317  0.5023
   27SAPC  H16R 3605   4.393   5.206   8.347  2.5922 -0.4089  0.7481
   27SAPC  H16S 3606   4.306   5.121   8.483  0.7048 -1.0437 -0.3160
   27SAPC  C217 3607   4.523   5.182   8.515  0.0043 -0.2724  0.6853
   27SAPC  H17R 3608   4.572   5.277   8.483 -1.5199  0.8528  1.5298
   27SAPC  H17S 3609   4.572   5.096   8.465 -0.4892 -0.7227  0.9748
   27SAPC  C218 3610   4.521   5.164   8.667 -0.4891  0.2391 -0.0081
   27SAPC  H18R 3611   4.452   5.078   8.680  0.8203 -1.0206 -1.0405
   27SAPC  H18S 3612   4.479   5.251   8.722  0.1517  1.7325 -1.8052
   27SAPC  C219 3613   4.651   5.127   8.740  0.3404  0.1427 -0.6738
   27SAPC  H19R 3614   4.729   5.205   8.727  0.1493  0.1496 -1.8858
   27SAPC  H19S 3615   4.702   5.032   8.714  0.7111  0.2297 -0.2824
   27SAPC  C220 3616   4.613   5.109   8.891 -0.2947 -0.0400 -0.9474
   27SAPC  H20R 3617   4.562   5.012   8.907  3.0495 -1.6096  1.3909
   27SAPC  H20S 3618   4.553   5.193   8.930 -1.7330 -1.5838  0.3014
   27SAPC  H20T 3619   4.700   5.110   8.960 -2.1960 -0.0956  1.5841
   27SAPC   C33 3620   4.337   5.097   7.255 -0.1675 -0.3442 -0.1753
   27SAPC   H3X 3621   4.369   5.197   7.290  0.0027 -0.2490 -0.5895
   27SAPC   H3Y 3622   4.421   5.025   7.268  0.0579 -0.1817 -0.6725
   27SAPC   C34 3623   4.230   5.048   7.352  0.5780 -0.8879 -0.1780
   27SAPC   H4X 3624   4.165   4.975   7.299  1.4189 -1.4424 -0.4570
   27SAPC   H4Y 3625   4.179   5.139   7.392 -0.5490 -1.6992  0.2847
   27SAPC   C35 3626   4.268   4.964   7.466 -0.0851 -0.2711 -0.0953
   27SAPC   H5X 3627   4.350   5.019   7.518 -0.7271  1.7339 -1.1260
   27SAPC   H5Y 3628   4.297   4.860   7.438  0.1363  0.3805 -2.4898
   27SAPC   C36 3629   4.152   4.939   7.561  0.2560 -0.0254 -0.2881
   27SAPC   H6X 3630   4.065   4.898   7.505 -0.7341  0.3786  0.9188
   27SAPC   H6Y 3631   4.124   5.039   7.600 -0.1149  1.0247 -2.9888
   27SAPC   C37 3632   4.195   4.838   7.672  0.2133  0.4593 -0.2197
   27SAPC   H7X 3633   4.289   4.878   7.717 -0.1180 -0.8539  1.7904
   27SAPC   H7Y 3634   4.221   4.743   7.620  0.5200  0.9417 -0.9667
   27SAPC   C38 3635   4.075   4.802   7.766 -0.4915 -0.5367  0.1484
   27SAPC   H8X 3636   3.991   4.756   7.710  0.0417 -0.0197 -1.1174
   27SAPC   H8Y 3637   4.048   4.899   7.813 -1.0134  0.2060 -1.6051
   27SAPC   C39 3638   4.106   4.693   7.876  0.2505 -0.5022  1.0278
   27SAPC   H9X 3639   4.173   4.616   7.834 -0.0862 -0.3016  0.1129
   27SAPC   H9Y 3640   4.017   4.632   7.902 -0.1864 -0.1714  0.3176
   27SAPC  C310 3641   4.153   4.759   8.007  0.3910  0.5121  0.0815
   27SAPC  H10X 3642   4.072   4.831   8.032  1.4081  1.4175  0.8611
   27SAPC  H10Y 3643   4.250   4.812   7.997  1.8313 -1.0260  4.0158
   27SAPC  C311 3644   4.163   4.657   8.120  0.3097  0.2270  0.7808
   27SAPC  H11X 3645   4.257   4.598   8.113 -2.3197 -4.2566 -0.6634
   27SAPC  H11Y 3646   4.085   4.579   8.115  0.2034  0.3747 -0.0068
   27SAPC  C312 3647   4.161   4.715   8.257 -0.7248 -0.3048 -0.4217
   27SAPC  H12X 3648   4.082   4.793   8.266 -0.7193 -0.3624  0.1727
   27SAPC  H12Y 3649   4.256   4.771   8.270 -0.1300 -1.5867  1.1308
   27SAPC  C313 3650   4.134   4.604   8.366 -0.0441 -0.0199 -0.7581
   27SAPC  H13X 3651   4.209   4.523   8.353  0.3625  0.4216 -1.2157
   27SAPC  H13Y 3652   4.034   4.562   8.342  0.8937 -1.5264 -2.2777
   27SAPC  C314 3653   4.143   4.665   8.509 -0.3184  0.3128  0.3180
   27SAPC  H14X 3654   4.072   4.750   8.502 -2.0577 -1.2204 -1.7973
   27SAPC  H14Y 3655   4.246   4.700   8.535  0.1984 -1.6152  1.0921
   27SAPC  C315 3656   4.104   4.563   8.614  0.5840 -0.1560  0.4602
   27SAPC  H15X 3657   3.993   4.557   8.612  0.6140 -0.5778 -0.0894
   27SAPC  H15Y 3658   4.133   4.600   8.715 -0.2348  0.1053  0.6093
   27SAPC  C316 3659   4.150   4.415   8.594  0.2639  0.7474  0.1651
   27SAPC  H16X 3660   4.260   4.433   8.592 -0.0086  2.5988  0.5902
   27SAPC  H16Y 3661   4.102   4.369   8.506  4.0826 -0.7063 -1.3836
   27SAPC  C317 3662   4.123   4.330   8.719 -0.3401  0.4884  0.1898
   27SAPC  H17X 3663   4.013   4.334   8.730 -0.2938  2.5746  0.2596
   27SAPC  H17Y 3664   4.165   4.368   8.815 -0.4970  0.6885  0.1794
   27SAPC  C318 3665   4.158   4.181   8.696 -0.1118  0.0802 -0.0221
   27SAPC  H18X 3666   4.267   4.157   8.695 -0.4696 -1.8788 -2.4686
   27SAPC  H18Y 3667   4.119   4.153   8.596  1.5007  2.3952 -1.4058
   27SAPC  H18Z 3668   4.110   4.117   8.773  1.9748 -1.6383 -0.0438
   28SAPC     N 3669   3.403   2.835   5.785 -0.8855 -0.0499 -0.2970
   28SAPC   C12 3670   3.424   2.752   5.908  0.3632 -0.7090  0.2727
   28SAPC  H12A 3671   3.527   2.771   5.935  0.7877  0.7061 -2.0519
   28SAPC  H12B 3672   3.408   2.648   5.884 -2.4892 -0.5590  1.2297
   28SAPC   C13 3673   3.457   2.771   5.662  0.3027  0.4534  0.0496
   28SAPC  H13A 3674   3.390   2.694   5.628  2.2346 -0.7968 -1.1554
   28SAPC  H13B 3675   3.453   2.831   5.572 -0.2507  2.6792  1.4829
   28SAPC  H13C 3676   3.561   2.742   5.663  0.1162 -0.3999 -1.3090
   28SAPC   C14 3677   3.261   2.862   5.755 -0.2745 -0.2809  0.4917
   28SAPC  H14A 3678   3.259   2.917   5.663  0.6191  0.1813  0.7309
   28SAPC  H14B 3679   3.197   2.776   5.741 -2.9825  1.7866 -0.5897
   28SAPC  H14C 3680   3.210   2.919   5.831  1.0260 -0.2911  1.4271
   28SAPC   C15 3681   3.471   2.968   5.802 -0.7469  0.5061  0.5462
   28SAPC  H15A 3682   3.578   2.952   5.809 -0.5066  1.1630 -1.0356
   28SAPC  H15B 3683   3.451   3.025   5.712 -0.5093 -1.6588 -0.9473
   28SAPC  H15C 3684   3.436   3.011   5.895 -0.0493  1.3851  0.4220
   28SAPC   C11 3685   3.340   2.789   6.037  0.1844  0.2271 -0.1471
   28SAPC  H11A 3686   3.365   2.714   6.114 -0.7322  1.5459  1.4902
   28SAPC  H11B 3687   3.238   2.771   5.998  0.3436 -0.0083 -0.4628
   28SAPC     P 3688   3.470   2.989   6.157  0.1791 -0.1453 -0.3338
   28SAPC   O13 3689   3.558   2.878   6.199 -0.3505  0.0559  0.3754
   28SAPC   O14 3690   3.531   3.097   6.079 -0.0054  0.3242 -0.0189
   28SAPC   O12 3691   3.353   2.927   6.073 -0.5451 -0.2074 -0.7146
   28SAPC   O11 3692   3.403   3.056   6.286  0.6882 -0.1750  0.2017
   28SAPC    C1 3693   3.298   2.973   6.332  0.3172  0.0542  0.5185
   28SAPC    HA 3694   3.208   2.987   6.268  0.5648  1.9982  0.5377
   28SAPC    HB 3695   3.319   2.866   6.354  0.1427 -0.5287 -1.8930
   28SAPC    C2 3696   3.233   3.037   6.470 -0.1997 -0.1810 -0.0818
   28SAPC    HS 3697   3.169   3.120   6.433 -0.9614 -0.2703  0.9604
   28SAPC   O21 3698   3.334   3.092   6.562  0.6948 -0.2777  0.1294
   28SAPC   C21 3699   3.288   3.200   6.639 -0.4362  0.5656 -0.0671
   28SAPC   O22 3700   3.172   3.244   6.636  0.7501  0.4928 -0.6890
   28SAPC   C22 3701   3.387   3.239   6.751 -0.0238 -0.5220  0.2701
   28SAPC   H2R 3702   3.359   3.202   6.851 -0.4940 -0.1318  0.2870
   28SAPC   H2S 3703   3.479   3.179   6.734  0.1186 -0.9101  2.2411
   28SAPC    C3 3704   3.138   2.932   6.543 -0.8042 -0.3182 -0.3871
   28SAPC    HX 3705   3.070   2.901   6.461 -0.8236  1.1340 -0.9393
   28SAPC    HY 3706   3.077   2.983   6.620  1.1673  0.5741  0.6647
   28SAPC   O31 3707   3.212   2.820   6.600 -0.6808 -0.1689  0.2073
   28SAPC   C31 3708   3.260   2.827   6.725 -0.1097 -0.3528 -0.5800
   28SAPC   O32 3709   3.239   2.923   6.795  0.3487 -0.0236 -1.1244
   28SAPC   C32 3710   3.339   2.695   6.768  0.3115 -0.0350  0.0896
   28SAPC   H2X 3711   3.418   2.690   6.690  0.4972 -2.8347  0.3463
   28SAPC   H2Y 3712   3.269   2.609   6.762  0.1237 -0.0876  2.2897
   28SAPC   C23 3713   3.431   3.386   6.772 -0.3971  0.2228  0.5484
   28SAPC   H3R 3714   3.346   3.449   6.739 -0.4124  0.6902  1.4319
   28SAPC   H3S 3715   3.513   3.410   6.701 -1.5891 -0.3981 -1.0858
   28SAPC   C24 3716   3.447   3.402   6.922 -0.0160 -0.7486 -0.1284
   28SAPC   H4R 3717   3.479   3.505   6.947  1.4336 -1.1652 -0.1795
   28SAPC   H4S 3718   3.350   3.387   6.974  0.3687 -1.9273  0.2769
   28SAPC   C25 3719   3.561   3.314   6.966 -0.1793 -0.1523 -0.2983
   28SAPC   H5R 3720   3.648   3.330   6.900 -2.4221  2.3179 -2.9360
   28SAPC   C26 3721   3.559   3.234   7.075 -0.0085  0.3390  0.2749
   28SAPC   H6R 3722   3.655   3.183   7.090 -0.8697 -1.1977  0.7841
   28SAPC   C27 3723   3.438   3.196   7.163 -0.1496  0.0773 -0.3369
   28SAPC   H7R 3724   3.346   3.248   7.127 -2.0704 -1.4186  2.0782
   28SAPC   H7S 3725   3.454   3.239   7.264  3.2063  0.2559 -0.8201
   28SAPC   C28 3726   3.410   3.050   7.159 -0.1536 -0.3820  0.3568
   28SAPC   H8R 3727   3.354   3.006   7.075 -0.7218 -0.3260  0.7030
   28SAPC   C29 3728   3.449   2.969   7.261  0.3417 -0.0558 -0.1658
   28SAPC   H9R 3729   3.443   2.859   7.258 -0.1998 -0.1464  2.3792
   28SAPC  C210 3730   3.531   3.016   7.379  0.0885 -0.0236 -0.0439
   28SAPC  H10R 3731   3.589   3.108   7.354 -1.3013  0.3463 -2.2356
   28SAPC  H10S 3732   3.603   2.942   7.418 -0.1077 -0.0160  0.3330
   28SAPC  C211 3733   3.443   3.048   7.498  0.4862  0.8504 -0.0677
   28SAPC  H11R 3734   3.389   3.143   7.505 -1.8714 -0.5460  2.9936
   28SAPC  C212 3735   3.413   2.951   7.590  0.5302 -0.1716  0.1279
   28SAPC  H12R 3736   3.347   2.975   7.675 -0.3555 -1.3534 -0.1886
   28SAPC  C213 3737   3.469   2.806   7.594  0.0136  0.6984 -0.3867
   28SAPC  H13R 3738   3.547   2.785   7.518 -1.4932 -1.1067 -1.5326
   28SAPC  H13S 3739   3.392   2.727   7.579 -0.5690  1.2393 -0.2974
   28SAPC  C214 3740   3.519   2.771   7.734 -0.3085 -0.0297  0.4120
   28SAPC  H14R 3741   3.628   2.752   7.736 -0.3959 -0.6632  2.6946
   28SAPC  C215 3742   3.452   2.750   7.850 -0.2871 -0.4545 -0.1090
   28SAPC  H15R 3743   3.516   2.719   7.934 -0.5198 -0.3656  0.0995
   28SAPC  C216 3744   3.306   2.757   7.861 -0.3352  0.3177  0.3584
   28SAPC  H16R 3745   3.267   2.654   7.871  1.6125 -0.7122 -1.7541
   28SAPC  H16S 3746   3.252   2.804   7.776  1.9419  2.7152  0.0751
   28SAPC  C217 3747   3.254   2.838   7.975  0.3934 -0.6944 -1.2544
   28SAPC  H17R 3748   3.300   2.940   7.978 -0.0430 -0.4375 -2.5377
   28SAPC  H17S 3749   3.282   2.792   8.072 -0.8975 -1.9994 -1.4769
   28SAPC  C218 3750   3.099   2.855   7.979  0.1375  0.2618  0.2956
   28SAPC  H18R 3751   3.049   2.760   8.005 -1.9272  1.1095 -0.3608
   28SAPC  H18S 3752   3.071   2.893   7.878 -0.0545  1.1119  0.6587
   28SAPC  C219 3753   3.051   2.967   8.079  0.1096 -0.3995  0.7799
   28SAPC  H19R 3754   3.097   3.065   8.054  1.9621 -0.8025  2.4094
   28SAPC  H19S 3755   3.083   2.927   8.177 -2.0562 -1.9186  0.9344
   28SAPC  C220 3756   2.903   2.993   8.089  0.7832  0.7569 -0.0426
   28SAPC  H20R 3757   2.901   3.068   8.172  0.6434 -0.8125  1.4336
   28SAPC  H20S 3758   2.851   2.899   8.117 -0.4995  1.4895  0.0913
   28SAPC  H20T 3759   2.868   3.045   7.998 -2.7141  0.8062  1.1733
   28SAPC   C33 3760   3.405   2.696   6.909 -0.6179  0.0868  0.0953
   28SAPC   H3X 3761   3.457   2.794   6.912  1.0322 -0.6729 -1.5263
   28SAPC   H3Y 3762   3.483   2.618   6.923  0.2170  0.8826 -0.0241
   28SAPC   C34 3763   3.309   2.681   7.024  0.3006 -0.2044 -0.1803
   28SAPC   H4X 3764   3.211   2.643   6.988 -0.2237  0.1317  0.8402
   28SAPC   H4Y 3765   3.287   2.780   7.070  1.0283 -0.5574  0.9607
   28SAPC   C35 3766   3.367   2.587   7.133  0.0168  0.2356  0.1432
   28SAPC   H5X 3767   3.465   2.627   7.164  0.5645 -0.9700  0.0128
   28SAPC   H5Y 3768   3.387   2.495   7.074  1.8011 -1.0887  2.6899
   28SAPC   C36 3769   3.263   2.578   7.243  0.1188  0.5780  0.7466
   28SAPC   H6X 3770   3.169   2.544   7.194  0.8170 -0.8109  0.3209
   28SAPC   H6Y 3771   3.251   2.681   7.283  0.3036  0.8634  0.0670
   28SAPC   C37 3772   3.288   2.475   7.364 -0.0859 -0.8272  0.3268
   28SAPC   H7X 3773   3.382   2.509   7.413 -2.3692 -0.2033  4.8168
   28SAPC   H7Y 3774   3.296   2.368   7.334 -2.6803 -1.4609  1.5601
   28SAPC   C38 3775   3.186   2.476   7.473 -0.0922 -0.3762 -0.1984
   28SAPC   H8X 3776   3.083   2.446   7.444 -0.8809 -0.5710  2.5998
   28SAPC   H8Y 3777   3.181   2.581   7.508  1.2937  0.0857 -1.2404
   28SAPC   C39 3778   3.233   2.406   7.602 -0.1862  0.8145  0.2161
   28SAPC   H9X 3779   3.329   2.451   7.637  0.8896 -1.3635  0.2700
   28SAPC   H9Y 3780   3.266   2.302   7.578 -0.2724  0.3953  1.7813
   28SAPC  C310 3781   3.129   2.399   7.709 -0.1873 -0.7028 -0.1408
   28SAPC  H10X 3782   3.032   2.368   7.665  0.1970 -1.6735 -0.3374
   28SAPC  H10Y 3783   3.114   2.498   7.757  2.9506 -0.0285 -0.3319
   28SAPC  C311 3784   3.174   2.310   7.825 -0.0666  0.8220 -1.0309
   28SAPC  H11X 3785   3.277   2.345   7.846 -0.0692  2.0213 -2.8656
   28SAPC  H11Y 3786   3.188   2.209   7.780 -0.1334  1.2620 -2.0558
   28SAPC  C312 3787   3.085   2.308   7.950 -0.2801  0.6158  0.2550
   28SAPC  H12X 3788   2.984   2.278   7.915 -0.8568 -0.3846  2.5661
   28SAPC  H12Y 3789   3.058   2.408   7.989 -2.3769  0.5991 -1.0074
   28SAPC  C313 3790   3.140   2.219   8.060  0.0608  0.0510 -0.2951
   28SAPC  H13X 3791   3.129   2.116   8.021  2.3666  0.3243 -1.8067
   28SAPC  H13Y 3792   3.073   2.219   8.149 -1.0324 -2.3498 -1.0342
   28SAPC  C314 3793   3.284   2.258   8.104  0.2038  0.7533 -0.5276
   28SAPC  H14X 3794   3.280   2.363   8.139  3.6866  0.2151  2.0767
   28SAPC  H14Y 3795   3.358   2.261   8.020  2.5441  1.1894  1.4370
   28SAPC  C315 3796   3.336   2.176   8.225  0.5109 -0.4360 -0.3692
   28SAPC  H15X 3797   3.430   2.226   8.258 -1.4875  2.9900  0.5646
   28SAPC  H15Y 3798   3.375   2.080   8.184  0.5925  0.1948 -1.8291
   28SAPC  C316 3799   3.245   2.169   8.346  0.0173  0.4162 -0.5991
   28SAPC  H16X 3800   3.167   2.094   8.325 -2.0350  0.7728  4.2797
   28SAPC  H16Y 3801   3.190   2.261   8.376 -1.4584  0.2033 -2.5324
   28SAPC  C317 3802   3.328   2.110   8.458  0.1246  0.0760 -1.5118
   28SAPC  H17X 3803   3.409   2.175   8.497 -0.2224 -0.3697  0.0404
   28SAPC  H17Y 3804   3.391   2.023   8.431  0.5515 -1.1915  2.7172
   28SAPC  C318 3805   3.256   2.056   8.580  0.2435  0.7890 -0.6219
   28SAPC  H18X 3806   3.201   2.133   8.639 -0.4065  0.3822 -0.6835
   28SAPC  H18Y 3807   3.334   2.008   8.643  1.1227 -1.5142 -3.2524
   28SAPC  H18Z 3808   3.188   1.973   8.551  2.0306 -0.8064 -0.5113
   29SAPC     N 3809   5.727   5.802   5.905  0.0820  0.2907  0.3043
   29SAPC   C12 3810   5.723   5.862   6.046 -0.3213 -0.8207  0.1650
   29SAPC  H12A 3811   5.735   5.969   6.034  0.3952 -0.9233 -0.0963
   29SAPC  H12B 3812   5.807   5.825   6.104 -0.3938 -1.7924 -0.3433
   29SAPC   C13 3813   5.853   5.852   5.845  0.4515  0.3571  0.0823
   29SAPC  H13A 3814   5.857   5.818   5.742 -0.8431 -2.2704  0.8130
   29SAPC  H13B 3815   5.873   5.958   5.838 -0.9693  0.5550 -2.1425
   29SAPC  H13C 3816   5.940   5.804   5.888  0.7152  1.1431  0.4321
   29SAPC   C14 3817   5.727   5.657   5.917  0.4703  0.4094  0.0219
   29SAPC  H14A 3818   5.693   5.607   5.828 -0.1805  1.0742 -0.1102
   29SAPC  H14B 3819   5.822   5.619   5.951 -0.9245 -1.4443  2.1664
   29SAPC  H14C 3820   5.671   5.627   6.005  0.1607  1.3671  0.1697
   29SAPC   C15 3821   5.614   5.846   5.819  0.5332  0.1363 -0.1822
   29SAPC  H15A 3822   5.521   5.797   5.844  0.8430 -1.7142 -2.3337
   29SAPC  H15B 3823   5.590   5.951   5.822 -0.4904 -0.0029 -1.9946
   29SAPC  H15C 3824   5.618   5.811   5.717 -2.5997 -1.9332  0.2524
   29SAPC   C11 3825   5.597   5.820   6.132  0.4011  0.0379  0.0807
   29SAPC  H11A 3826   5.513   5.828   6.060 -0.4222 -2.0241  0.7341
   29SAPC  H11B 3827   5.573   5.894   6.211 -0.7522 -0.2144 -0.0093
   29SAPC     P 3828   5.505   5.630   6.285  0.0542  0.4533 -0.0203
   29SAPC   O13 3829   5.373   5.625   6.219 -0.7039 -0.3369  0.3132
   29SAPC   O14 3830   5.567   5.502   6.332 -0.3241 -0.3479  0.1918
   29SAPC   O12 3831   5.611   5.692   6.188  0.0559  0.0351 -0.3134
   29SAPC   O11 3832   5.508   5.738   6.408 -0.4379 -0.3267  0.1594
   29SAPC    C1 3833   5.628   5.807   6.460  0.2826  0.0842 -0.4050
   29SAPC    HA 3834   5.698   5.824   6.376  0.6765 -3.2039 -0.8922
   29SAPC    HB 3835   5.593   5.905   6.498  1.0797 -0.8506  3.1228
   29SAPC    C2 3836   5.699   5.731   6.574  0.9225  0.6748 -0.0206
   29SAPC    HS 3837   5.742   5.638   6.531  0.6599  0.5993 -0.1227
   29SAPC   O21 3838   5.592   5.705   6.669  0.8206  0.7778  0.7282
   29SAPC   C21 3839   5.614   5.605   6.752  0.3416 -0.6477  0.0402
   29SAPC   O22 3840   5.704   5.522   6.741 -0.0276  0.3362 -0.0649
   29SAPC   C22 3841   5.522   5.621   6.875 -0.3629 -0.3333  0.4687
   29SAPC   H2R 3842   5.521   5.728   6.904  0.7520 -0.0397 -0.4951
   29SAPC   H2S 3843   5.422   5.588   6.841 -0.1931  0.9266 -1.4176
   29SAPC    C3 3844   5.808   5.817   6.636 -0.4606 -0.3780 -0.0326
   29SAPC    HX 3845   5.759   5.916   6.644 -0.4965 -0.3506 -0.6027
   29SAPC    HY 3846   5.891   5.836   6.565  0.3299  0.5491  1.0920
   29SAPC   O31 3847   5.855   5.776   6.771  0.6741 -0.6583  0.9671
   29SAPC   C31 3848   5.935   5.669   6.758 -0.0246  0.5559 -0.0078
   29SAPC   O32 3849   5.971   5.610   6.660  0.5452  0.0058  0.4429
   29SAPC   C32 3850   5.970   5.608   6.892  0.4050 -0.0964  0.2040
   29SAPC   H2X 3851   5.906   5.519   6.907 -0.3319  0.0244 -1.9246
   29SAPC   H2Y 3852   5.950   5.676   6.977 -1.9872  1.9016 -1.8162
   29SAPC   C23 3853   5.574   5.557   7.004 -0.5512  0.1853  0.1470
   29SAPC   H3R 3854   5.679   5.527   6.982 -0.5093 -0.7146  1.5161
   29SAPC   H3S 3855   5.520   5.460   7.011  0.8041 -0.5945  0.1621
   29SAPC   C24 3856   5.552   5.647   7.135 -0.0567  0.1015  1.0930
   29SAPC   H4R 3857   5.566   5.569   7.213  2.1431  0.8136  1.4645
   29SAPC   H4S 3858   5.449   5.687   7.147  0.1601  0.6036  1.3027
   29SAPC   C25 3859   5.662   5.746   7.145  0.0311  0.0992 -0.6964
   29SAPC   H5R 3860   5.672   5.801   7.050  2.5618  1.0669  0.0409
   29SAPC   C26 3861   5.744   5.760   7.249 -0.8265 -0.5266 -0.4927
   29SAPC   H6R 3862   5.814   5.845   7.253  0.9219 -1.9470  0.0403
   29SAPC   C27 3863   5.737   5.667   7.367 -0.0947 -0.3801 -0.2585
   29SAPC   H7R 3864   5.744   5.559   7.343 -1.6195 -0.4409 -0.5695
   29SAPC   H7S 3865   5.632   5.675   7.404 -0.2240 -0.1797 -0.6586
   29SAPC   C28 3866   5.839   5.691   7.476 -0.0885  0.8199 -0.4821
   29SAPC   H8R 3867   5.936   5.715   7.430 -0.4226 -1.0432 -2.2623
   29SAPC   C29 3868   5.826   5.697   7.609  0.0932 -0.1696  0.3492
   29SAPC   H9R 3869   5.915   5.731   7.664  0.3072  1.2443 -0.8079
   29SAPC  C210 3870   5.701   5.689   7.696  0.1059  0.1046  0.2809
   29SAPC  H10R 3871   5.620   5.640   7.637  1.1633 -0.0545 -1.1079
   29SAPC  H10S 3872   5.672   5.793   7.722 -0.9497 -0.5920  2.0004
   29SAPC  C211 3873   5.719   5.610   7.824 -0.5398  1.3459 -0.6540
   29SAPC  H11R 3874   5.698   5.503   7.811  3.1777  0.5821 -1.6478
   29SAPC  C212 3875   5.769   5.663   7.936  0.6021 -0.8053  0.5439
   29SAPC  H12R 3876   5.775   5.595   8.022  0.4183  0.2418  1.4079
   29SAPC  C213 3877   5.806   5.807   7.976 -0.6390  0.3519  0.2797
   29SAPC  H13R 3878   5.745   5.849   8.059 -0.3522  1.1168  0.1137
   29SAPC  H13S 3879   5.777   5.874   7.892  0.0226 -0.9046 -1.0022
   29SAPC  C214 3880   5.949   5.819   8.022  0.3807  0.3375  0.2406
   29SAPC  H14R 3881   6.020   5.761   7.962 -0.2139 -0.9697  0.7564
   29SAPC  C215 3882   5.993   5.868   8.139 -0.7079 -1.1979 -0.6702
   29SAPC  H15R 3883   6.100   5.877   8.159 -1.1505 -0.6932  1.7341
   29SAPC  C216 3884   5.917   5.931   8.256 -0.1398  0.2574  0.2711
   29SAPC  H16R 3885   5.809   5.914   8.241  0.1876 -0.5070 -1.4954
   29SAPC  H16S 3886   5.941   6.040   8.259  2.7843 -0.2590 -0.6446
   29SAPC  C217 3887   5.970   5.874   8.382 -0.3260  0.5801  0.0043
   29SAPC  H17R 3888   5.918   5.932   8.461  1.5694  4.0419 -1.0436
   29SAPC  H17S 3889   6.076   5.899   8.407 -0.3670 -1.0223  2.0499
   29SAPC  C218 3890   5.950   5.729   8.409 -0.0673  0.1591  0.2350
   29SAPC  H18R 3891   5.956   5.711   8.518  1.0180  1.2673  0.3770
   29SAPC  H18S 3892   6.017   5.660   8.354 -2.1152 -0.9534 -0.9988
   29SAPC  C219 3893   5.803   5.680   8.376  0.0397 -0.1041  0.2352
   29SAPC  H19R 3894   5.783   5.691   8.267  0.5482  0.6806  0.2195
   29SAPC  H19S 3895   5.741   5.757   8.427 -0.8795 -0.7749  0.1577
   29SAPC  C220 3896   5.776   5.530   8.404  0.1221  0.1042 -0.8899
   29SAPC  H20R 3897   5.809   5.508   8.508  0.4103 -3.5395 -1.6134
   29SAPC  H20S 3898   5.845   5.463   8.349  3.4099  2.9318 -0.5656
   29SAPC  H20T 3899   5.673   5.492   8.386  0.1251  0.9877 -3.0585
   29SAPC   C33 3900   6.119   5.555   6.906  0.0076  0.6923  0.3399
   29SAPC   H3X 3901   6.196   5.634   6.895  2.0329 -1.4182 -1.9156
   29SAPC   H3Y 3902   6.150   5.503   6.813 -0.2756  3.1129 -1.1716
   29SAPC   C34 3903   6.145   5.469   7.026 -0.1934  0.0212  0.1976
   29SAPC   H4X 3904   6.230   5.398   7.019 -0.4392 -0.3507  0.9433
   29SAPC   H4Y 3905   6.056   5.403   7.037  2.1906 -3.4618  0.4094
   29SAPC   C35 3906   6.167   5.540   7.161  0.3932 -0.5334  0.3095
   29SAPC   H5X 3907   6.097   5.627   7.164  1.5822  0.4572  0.1616
   29SAPC   H5Y 3908   6.276   5.561   7.154  0.3217 -0.2537 -0.0167
   29SAPC   C36 3909   6.142   5.449   7.279  0.0888 -0.3351  0.0855
   29SAPC   H6X 3910   6.177   5.350   7.242  0.1804  0.1915 -1.3021
   29SAPC   H6Y 3911   6.034   5.449   7.304  0.0038  0.1051 -0.2750
   29SAPC   C37 3912   6.213   5.509   7.400 -0.0794 -0.0390 -0.2730
   29SAPC   H7X 3913   6.202   5.620   7.394  0.3819  0.0604  0.5087
   29SAPC   H7Y 3914   6.322   5.494   7.384 -0.2888  1.2294 -3.6098
   29SAPC   C38 3915   6.186   5.439   7.535 -0.0625  0.0320  0.1389
   29SAPC   H8X 3916   6.223   5.334   7.542 -1.2815 -0.4621 -0.5342
   29SAPC   H8Y 3917   6.077   5.419   7.544  0.3410 -2.0779  0.8866
   29SAPC   C39 3918   6.223   5.524   7.657  0.0827  0.0155  0.7497
   29SAPC   H9X 3919   6.158   5.614   7.658 -1.1145 -0.8345  1.7080
   29SAPC   H9Y 3920   6.329   5.560   7.656  0.2647 -0.4858  1.4587
   29SAPC  C310 3921   6.204   5.465   7.795  0.1148  0.2743  0.0479
   29SAPC  H10X 3922   6.269   5.376   7.805 -0.6434 -0.1108  1.9241
   29SAPC  H10Y 3923   6.103   5.420   7.807  1.1743 -2.3669 -0.1841
   29SAPC  C311 3924   6.237   5.563   7.913  0.4884  0.5706 -0.0235
   29SAPC  H11X 3925   6.177   5.654   7.893 -0.9879 -0.2805  0.3542
   29SAPC  H11Y 3926   6.341   5.599   7.899  0.0580  1.5063 -0.9054
   29SAPC  C312 3927   6.209   5.496   8.047 -0.6599 -0.0575 -0.4782
   29SAPC  H12X 3928   6.106   5.456   8.059 -0.7580  0.8350  2.4365
   29SAPC  H12Y 3929   6.205   5.590   8.106  1.0434  1.0745 -2.0460
   29SAPC  C313 3930   6.315   5.400   8.097 -0.3342  0.0286 -0.4418
   29SAPC  H13X 3931   6.396   5.410   8.022 -0.1478  1.5359 -0.0701
   29SAPC  H13Y 3932   6.285   5.293   8.087  0.7991 -0.3784  0.2492
   29SAPC  C314 3933   6.372   5.430   8.233 -0.0749 -0.2085 -0.3722
   29SAPC  H14X 3934   6.407   5.534   8.247 -0.7465 -0.1182  0.8318
   29SAPC  H14Y 3935   6.449   5.351   8.249 -1.7344 -1.8807 -0.3829
   29SAPC  C315 3936   6.269   5.412   8.353 -1.1018  0.4971  0.1459
   29SAPC  H15X 3937   6.192   5.490   8.334 -0.6933  0.8323 -0.1334
   29SAPC  H15Y 3938   6.312   5.431   8.453  0.3438 -1.2009 -0.0909
   29SAPC  C316 3939   6.211   5.267   8.350 -0.2834 -0.0497  0.5499
   29SAPC  H16X 3940   6.287   5.186   8.361  0.3184  0.6235  1.5824
   29SAPC  H16Y 3941   6.164   5.247   8.252  2.1956  2.0372 -1.1996
   29SAPC  C317 3942   6.097   5.253   8.446  0.3289  0.1253 -0.8049
   29SAPC  H17X 3943   6.057   5.357   8.453 -0.4486 -0.2769  1.7209
   29SAPC  H17Y 3944   6.140   5.222   8.543 -2.4615 -3.8882 -0.6114
   29SAPC  C318 3945   5.981   5.145   8.424 -0.6800  0.6056  0.1922
   29SAPC  H18X 3946   5.929   5.139   8.522  0.6917  0.3340  0.9259
   29SAPC  H18Y 3947   6.027   5.049   8.395  2.7653  2.1307  0.1104
   29SAPC  H18Z 3948   5.916   5.182   8.341 -0.0208 -1.1209 -1.1702
   30SAPC     N 3949   0.172   5.803   6.009 -0.1221 -0.1562 -1.0418
   30SAPC   C12 3950   0.128   5.919   6.104  0.4087  0.3296 -0.0422
   30SAPC  H12A 3951   0.035   5.891   6.152  0.5635 -0.4933 -0.2013
   30SAPC  H12B 3952   0.124   6.010   6.046  0.8648 -0.4993 -1.4468
   30SAPC   C13 3953   0.190   5.680   6.094 -0.3129  0.0466  0.5643
   30SAPC  H13A 3954   0.276   5.677   6.159  0.5605 -0.8323 -0.5951
   30SAPC  H13B 3955   0.102   5.660   6.154 -1.5132  0.7107 -0.9048
   30SAPC  H13C 3956   0.208   5.591   6.036  1.0154 -0.4175  1.6391
   30SAPC   C14 3957   0.074   5.799   5.900  0.4475  0.4419 -0.0765
   30SAPC  H14A 3958   0.101   5.717   5.835  1.1374 -0.5461  1.4005
   30SAPC  H14B 3959  -0.023   5.777   5.941  1.2844  1.0346  2.4194
   30SAPC  H14C 3960   0.074   5.892   5.844 -0.0315  0.8518  0.5956
   30SAPC   C15 3961   0.307   5.838   5.954  0.3337 -0.3264  0.0984
   30SAPC  H15A 3962   0.328   5.764   5.878 -2.4132 -0.6988 -0.3890
   30SAPC  H15B 3963   0.319   5.936   5.909  2.4850 -1.0498 -1.0617
   30SAPC  H15C 3964   0.382   5.829   6.031  1.1135 -1.8415 -0.8100
   30SAPC   C11 3965   0.226   5.959   6.219  0.0088  0.0955 -0.2745
   30SAPC  H11A 3966   0.264   5.868   6.270 -0.5104  0.3826  0.6612
   30SAPC  H11B 3967   0.161   6.004   6.298  0.8478 -0.0416  0.5077
   30SAPC     P 3968   0.316   6.198   6.140  0.7313 -0.2312  0.2238
   30SAPC   O13 3969   0.400   6.228   6.025  0.5382 -0.4107 -0.6488
   30SAPC   O14 3970   0.172   6.225   6.131 -0.1588 -0.3663 -0.2126
   30SAPC   O12 3971   0.319   6.048   6.169 -0.2527 -0.0485  0.4464
   30SAPC   O11 3972   0.380   6.261   6.269  1.2270 -0.2143 -0.0235
   30SAPC    C1 3973   0.524   6.271   6.268 -0.4822 -0.4320  0.5479
   30SAPC    HA 3974   0.579   6.181   6.234 -0.7976  0.2182 -1.8760
   30SAPC    HB 3975   0.564   6.350   6.201 -0.8772  0.1163  0.9479
   30SAPC    C2 3976   0.586   6.299   6.408  0.6871  0.8337  0.5072
   30SAPC    HS 3977   0.688   6.255   6.409 -0.5279 -2.5037 -1.9306
   30SAPC   O21 3978   0.507   6.239   6.517 -0.5304 -0.7601 -0.0731
   30SAPC   C21 3979   0.522   6.106   6.528  0.4474  0.1619  0.5662
   30SAPC   O22 3980   0.595   6.036   6.454 -0.1785 -0.0737 -0.3194
   30SAPC   C22 3981   0.455   6.054   6.648 -1.0116  0.4970 -0.0878
   30SAPC   H2R 3982   0.352   6.018   6.625 -0.5685 -2.0497  1.5210
   30SAPC   H2S 3983   0.517   5.964   6.669  0.6693  1.2048 -1.7242
   30SAPC    C3 3984   0.590   6.449   6.445 -0.5478  0.0954 -0.4888
   30SAPC    HX 3985   0.486   6.487   6.440 -0.6881 -0.3524 -1.3541
   30SAPC    HY 3986   0.643   6.494   6.358 -1.6421  1.0419 -0.6875
   30SAPC   O31 3987   0.660   6.477   6.573  0.0446  0.7193 -0.5266
   30SAPC   C31 3988   0.582   6.508   6.672 -0.2477  0.2170 -0.5467
   30SAPC   O32 3989   0.463   6.504   6.660 -0.2045 -0.7573  0.3395
   30SAPC   C32 3990   0.659   6.536   6.803 -0.5613 -0.3652  0.0333
   30SAPC   H2X 3991   0.658   6.647   6.804 -1.1164 -0.3313 -1.5610
   30SAPC   H2Y 3992   0.757   6.483   6.810 -0.8414 -0.9193 -0.1155
   30SAPC   C23 3993   0.442   6.140   6.777 -0.8165 -0.5448 -0.0668
   30SAPC   H3R 3994   0.382   6.232   6.760 -1.8366 -1.1476  0.1623
   30SAPC   H3S 3995   0.543   6.167   6.814  0.0692 -2.6060 -0.8273
   30SAPC   C24 3996   0.369   6.046   6.884  0.0444 -0.1211  0.6886
   30SAPC   H4R 3997   0.278   6.004   6.835 -0.1468  1.9893 -0.9226
   30SAPC   H4S 3998   0.337   6.113   6.967 -0.7146 -0.0006  0.3117
   30SAPC   C25 3999   0.455   5.939   6.931 -0.1383 -0.0880 -0.0937
   30SAPC   H5R 4000   0.520   5.890   6.857  1.3538 -0.1835  1.2242
   30SAPC   C26 4001   0.453   5.887   7.054  0.2108  0.2451 -0.0851
   30SAPC   H6R 4002   0.519   5.801   7.069  0.7518  0.5336 -0.7757
   30SAPC   C27 4003   0.376   5.935   7.170  0.0517  0.2589  0.2955
   30SAPC   H7R 4004   0.358   5.844   7.231 -2.9185  0.3021 -0.3597
   30SAPC   H7S 4005   0.274   5.955   7.131  0.1509 -1.0041 -0.6682
   30SAPC   C28 4006   0.453   6.052   7.229 -0.6625  1.0091  0.1906
   30SAPC   H8R 4007   0.476   6.117   7.142 -1.1419 -2.2209 -2.5434
   30SAPC   C29 4008   0.465   6.086   7.356  0.3613  0.2663 -0.1871
   30SAPC   H9R 4009   0.529   6.172   7.380 -1.4986  1.5556  0.3670
   30SAPC  C210 4010   0.408   6.006   7.470  0.0343 -0.6510 -0.0924
   30SAPC  H10R 4011   0.298   5.995   7.457  0.2522 -0.7069 -2.2661
   30SAPC  H10S 4012   0.418   6.068   7.562 -0.0739 -0.6302 -0.0944
   30SAPC  C211 4013   0.467   5.864   7.490 -0.3144  0.5629 -0.0161
   30SAPC  H11R 4014   0.512   5.827   7.396 -2.3000  1.5539 -1.4252
   30SAPC  C212 4015   0.454   5.782   7.599 -0.4489 -0.0838  0.8684
   30SAPC  H12R 4016   0.506   5.685   7.599 -0.0842  0.0496 -1.3902
   30SAPC  C213 4017   0.378   5.826   7.719 -0.1308 -0.3915 -0.7648
   30SAPC  H13R 4018   0.320   5.744   7.764  1.5674 -1.5846 -0.6368
   30SAPC  H13S 4019   0.295   5.893   7.688 -0.4770 -0.7119 -0.5383
   30SAPC  C214 4020   0.465   5.901   7.823 -0.1584 -1.0581 -0.4026
   30SAPC  H14R 4021   0.550   5.950   7.773 -0.3847 -1.4998 -1.2417
   30SAPC  C215 4022   0.472   5.885   7.957  0.9176 -0.2698  0.0931
   30SAPC  H15R 4023   0.538   5.947   8.020 -1.2428  0.6369  1.5441
   30SAPC  C216 4024   0.378   5.810   8.039 -0.1314 -0.3619  0.0836
   30SAPC  H16R 4025   0.298   5.763   7.978  1.8327 -4.0864  0.0635
   30SAPC  H16S 4026   0.342   5.877   8.120  0.5311  0.3071 -0.1694
   30SAPC  C217 4027   0.444   5.682   8.103  0.7802 -0.3420  0.2360
   30SAPC  H17R 4028   0.527   5.708   8.172  1.7046  0.1538 -1.0323
   30SAPC  H17S 4029   0.488   5.622   8.020  2.6601 -0.5384  1.3093
   30SAPC  C218 4030   0.340   5.598   8.180 -0.3229  0.7247  0.2449
   30SAPC  H18R 4031   0.394   5.501   8.190 -0.0914  0.5805 -1.8522
   30SAPC  H18S 4032   0.249   5.578   8.118 -0.3130 -0.4980  0.5930
   30SAPC  C219 4033   0.297   5.654   8.322 -0.4227  0.0228 -0.5923
   30SAPC  H19R 4034   0.212   5.588   8.352  1.1442 -1.2196  1.3949
   30SAPC  H19S 4035   0.262   5.756   8.293  0.1457 -0.0994 -1.7625
   30SAPC  C220 4036   0.407   5.647   8.430  0.0265  0.3802 -0.5859
   30SAPC  H20R 4037   0.496   5.702   8.391  1.4074 -1.8849 -0.8297
   30SAPC  H20S 4038   0.442   5.543   8.450  0.8531  1.1309  2.4570
   30SAPC  H20T 4039   0.374   5.681   8.530  1.0138 -2.5684  0.8617
   30SAPC   C33 4040   0.591   6.501   6.939  0.0083 -0.3564 -0.4077
   30SAPC   H3X 4041   0.576   6.391   6.938  0.3135 -0.4023 -1.2464
   30SAPC   H3Y 4042   0.490   6.547   6.948 -0.1816 -0.2701 -2.3761
   30SAPC   C34 4043   0.681   6.545   7.052 -0.4054  0.1770 -0.2531
   30SAPC   H4X 4044   0.699   6.655   7.063  0.6488 -0.1575  1.8774
   30SAPC   H4Y 4045   0.786   6.513   7.035  1.3344  3.4881  2.7087
   30SAPC   C35 4046   0.637   6.511   7.196 -0.1949  0.4759 -0.3404
   30SAPC   H5X 4047   0.703   6.540   7.280 -0.5800  1.0903 -0.2441
   30SAPC   H5Y 4048   0.612   6.403   7.209 -2.2841  0.7769 -1.3360
   30SAPC   C36 4049   0.504   6.576   7.231  0.4826  0.1430  0.1172
   30SAPC   H6X 4050   0.430   6.535   7.160  1.6386  0.5814 -1.3882
   30SAPC   H6Y 4051   0.498   6.682   7.199  2.6213  0.2323 -0.1884
   30SAPC   C37 4052   0.459   6.554   7.379  0.1052 -0.3338  0.3027
   30SAPC   H7X 4053   0.511   6.460   7.409 -1.4249 -0.7953  1.7070
   30SAPC   H7Y 4054   0.350   6.536   7.370 -0.3851  2.4387 -0.2056
   30SAPC   C38 4055   0.496   6.682   7.457 -0.2588 -0.2206  0.4382
   30SAPC   H8X 4056   0.456   6.773   7.409  1.9039  1.0589  0.9308
   30SAPC   H8Y 4057   0.606   6.697   7.448 -0.1795 -0.9221  0.1218
   30SAPC   C39 4058   0.453   6.663   7.597  0.2166 -0.3785  0.5091
   30SAPC   H9X 4059   0.345   6.639   7.591  0.0345  0.2878  1.0990
   30SAPC   H9Y 4060   0.465   6.754   7.659  0.8979  0.1923 -0.4386
   30SAPC  C310 4061   0.533   6.553   7.676 -0.1622 -0.0895 -0.6872
   30SAPC  H10X 4062   0.642   6.559   7.652 -0.0767 -3.0418 -1.4117
   30SAPC  H10Y 4063   0.497   6.450   7.657  2.0233 -1.1381  0.5055
   30SAPC  C311 4064   0.518   6.586   7.833  0.0208  0.6888  0.2938
   30SAPC  H11X 4065   0.418   6.549   7.862 -0.1606  1.4831  0.7034
   30SAPC  H11Y 4066   0.533   6.695   7.845  1.0960  0.7519 -1.2765
   30SAPC  C312 4067   0.612   6.509   7.923 -0.1728 -0.2469  0.1919
   30SAPC  H12X 4068   0.708   6.524   7.870 -1.3721 -1.2425 -2.4591
   30SAPC  H12Y 4069   0.584   6.402   7.921  0.0077 -0.2894 -0.2050
   30SAPC  C313 4070   0.619   6.555   8.071 -0.5865  0.2569 -0.4960
   30SAPC  H13X 4071   0.634   6.665   8.071 -2.0155  0.5115  1.6101
   30SAPC  H13Y 4072   0.706   6.496   8.107 -0.6385 -0.4480 -1.4780
   30SAPC  C314 4073   0.486   6.513   8.146 -0.6234  0.3238 -0.1961
   30SAPC  H14X 4074   0.441   6.421   8.102  0.1523 -0.3508  0.3849
   30SAPC  H14Y 4075   0.409   6.593   8.141 -0.4521  0.4833 -0.2929
   30SAPC  C315 4076   0.508   6.484   8.296  0.0304  0.1012  0.0612
   30SAPC  H15X 4077   0.548   6.582   8.331 -2.6869  1.0799  0.6213
   30SAPC  H15Y 4078   0.588   6.407   8.302 -0.4578 -0.3422  1.0495
   30SAPC  C316 4079   0.384   6.440   8.382  0.2312  0.5905 -0.5521
   30SAPC  H16X 4080   0.424   6.392   8.474  0.9563 -0.2675 -1.2962
   30SAPC  H16Y 4081   0.330   6.364   8.320 -2.4057  3.0468 -1.5130
   30SAPC  C317 4082   0.275   6.552   8.404 -0.6141  0.0052  0.1469
   30SAPC  H17X 4083   0.203   6.550   8.319  0.0114 -0.9768 -0.3796
   30SAPC  H17Y 4084   0.318   6.654   8.408 -0.4882 -0.0933  2.9614
   30SAPC  C318 4085   0.203   6.526   8.540  0.1821  0.0974  0.2273
   30SAPC  H18X 4086   0.109   6.586   8.543  0.7460  1.2124 -1.8771
   30SAPC  H18Y 4087   0.266   6.546   8.629  0.5504 -0.6340  0.1423
   30SAPC  H18Z 4088   0.168   6.421   8.548  1.4744 -0.2807  1.4042
   31SAPC     N 4089   1.702   6.265   6.013 -0.8759 -0.5184  0.1176
   31SAPC   C12 4090   1.820   6.202   6.090 -0.4068 -0.5448 -0.1737
   31SAPC  H12A 4091   1.849   6.268   6.171  0.1102 -1.2997  0.2765
   31SAPC  H12B 4092   1.901   6.200   6.018 -0.6910  1.4144 -0.5803
   31SAPC   C13 4093   1.668   6.173   5.906 -0.4233  0.2794  0.1449
   31SAPC  H13A 4094   1.625   6.082   5.947 -3.3678  1.6772  0.3930
   31SAPC  H13B 4095   1.591   6.203   5.837  0.7872  0.8472 -0.9804
   31SAPC  H13C 4096   1.757   6.145   5.851  0.3623  2.4098  0.2490
   31SAPC   C14 4097   1.583   6.277   6.100 -0.9065 -0.6172 -0.4487
   31SAPC  H14A 4098   1.545   6.181   6.131 -0.5649 -0.5293  0.2560
   31SAPC  H14B 4099   1.626   6.320   6.189 -0.0635  1.5271 -1.7952
   31SAPC  H14C 4100   1.513   6.346   6.055 -1.0386 -0.2389  0.3315
   31SAPC   C15 4101   1.738   6.393   5.943  0.0459 -0.2056  0.3602
   31SAPC  H15A 4102   1.652   6.433   5.892 -0.6668  0.3894  1.9684
   31SAPC  H15B 4103   1.762   6.474   6.011  0.5861  0.4154 -0.5399
   31SAPC  H15C 4104   1.811   6.387   5.864 -0.2186 -2.0390  0.2330
   31SAPC   C11 4105   1.808   6.056   6.141 -0.0636 -0.3184  0.0828
   31SAPC  H11A 4106   1.903   6.027   6.191 -1.0131 -2.1961  0.8702
   31SAPC  H11B 4107   1.810   5.989   6.053 -0.2967 -1.2418  0.7690
   31SAPC     P 4108   1.596   5.920   6.200  0.2998  0.1742 -0.2501
   31SAPC   O13 4109   1.516   5.957   6.088 -0.0161  0.1210  0.2831
   31SAPC   O14 4110   1.667   5.792   6.186  0.4327 -0.0100 -0.1669
   31SAPC   O12 4111   1.693   6.043   6.225 -0.0636 -0.2570 -0.9244
   31SAPC   O11 4112   1.505   5.917   6.326  0.0059  0.1689 -0.1545
   31SAPC    C1 4113   1.546   5.876   6.453 -0.3107  0.1540 -1.0206
   31SAPC    HA 4114   1.469   5.820   6.510 -0.8976  1.1100 -0.8500
   31SAPC    HB 4115   1.643   5.821   6.450  0.2384  1.0080 -0.0325
   31SAPC    C2 4116   1.549   6.011   6.525 -0.1897 -0.6242 -0.2701
   31SAPC    HS 4117   1.611   6.081   6.466  0.5919  0.1068  1.3496
   31SAPC   O21 4118   1.597   5.992   6.659 -0.0896 -0.4626  0.5382
   31SAPC   C21 4119   1.655   6.099   6.707  0.3325 -0.6138 -0.0713
   31SAPC   O22 4120   1.661   6.209   6.647  0.1099 -0.1616 -0.8385
   31SAPC   C22 4121   1.698   6.088   6.849  0.3410 -0.1269 -0.3284
   31SAPC   H2R 4122   1.650   5.997   6.890 -2.0119  0.6502 -1.2063
   31SAPC   H2S 4123   1.807   6.075   6.865  1.1192  4.1811 -0.8823
   31SAPC    C3 4124   1.403   6.074   6.546  0.8289  0.1541 -0.3066
   31SAPC    HX 4125   1.360   6.099   6.447  1.4088 -1.0861 -0.8889
   31SAPC    HY 4126   1.405   6.165   6.610 -0.4132 -0.2796  0.3951
   31SAPC   O31 4127   1.316   5.977   6.613  0.8179 -0.5657 -0.1382
   31SAPC   C31 4128   1.308   5.981   6.748  0.5377  0.8611 -0.0390
   31SAPC   O32 4129   1.345   6.074   6.817  1.0240 -0.5707 -0.0998
   31SAPC   C32 4130   1.223   5.863   6.794 -0.8049  0.1342  0.5840
   31SAPC   H2X 4131   1.253   5.784   6.722  1.1188  1.0308  0.3451
   31SAPC   H2Y 4132   1.120   5.899   6.774 -0.1209  2.8460  1.5400
   31SAPC   C23 4133   1.664   6.200   6.954  0.2949 -0.2513 -0.0163
   31SAPC   H3R 4134   1.554   6.205   6.968  0.1228 -0.5268 -1.1729
   31SAPC   H3S 4135   1.689   6.299   6.910 -3.4570  0.6187 -0.5533
   31SAPC   C24 4136   1.747   6.199   7.079 -0.9199 -0.3106  0.0321
   31SAPC   H4R 4137   1.750   6.297   7.130 -0.0033 -0.3437  0.0728
   31SAPC   H4S 4138   1.854   6.186   7.051 -1.0861 -1.1302 -0.2651
   31SAPC   C25 4139   1.694   6.087   7.164  0.0087 -0.1732  0.6530
   31SAPC   H5R 4140   1.628   6.022   7.105  0.8434 -0.1107 -0.3880
   31SAPC   C26 4141   1.730   6.044   7.294 -0.1748 -0.9865  0.0169
   31SAPC   H6R 4142   1.693   5.952   7.342 -0.7346 -1.5974 -1.4890
   31SAPC   C27 4143   1.824   6.126   7.377 -0.2452 -0.4188 -0.2383
   31SAPC   H7R 4144   1.881   6.200   7.318 -0.7591 -0.0803 -0.3180
   31SAPC   H7S 4145   1.912   6.068   7.413  0.7393  1.1805  0.0343
   31SAPC   C28 4146   1.751   6.212   7.482 -0.4803 -0.3467  0.5014
   31SAPC   H8R 4147   1.695   6.296   7.439 -1.1298  0.0866  2.1284
   31SAPC   C29 4148   1.759   6.194   7.616 -0.6014  0.8912  0.1923
   31SAPC   H9R 4149   1.712   6.257   7.693 -1.3190 -2.5012  2.7972
   31SAPC  C210 4150   1.828   6.082   7.686  0.0375  0.8953 -0.3025
   31SAPC  H10R 4151   1.844   5.991   7.625 -1.3585  1.7874 -2.1092
   31SAPC  H10S 4152   1.754   6.055   7.765 -0.2810  1.8782 -0.2478
   31SAPC  C211 4153   1.950   6.133   7.755  0.0529  0.1859 -0.4242
   31SAPC  H11R 4154   2.018   6.194   7.694  0.3930  1.4219  1.0950
   31SAPC  C212 4155   1.995   6.114   7.882  0.0435 -0.3158 -0.4702
   31SAPC  H12R 4156   2.077   6.178   7.918  1.2071 -2.0819  0.1884
   31SAPC  C213 4157   1.936   6.022   7.992  0.1838  0.1790  0.5782
   31SAPC  H13R 4158   1.885   5.934   7.949 -0.0988 -0.3988  2.0370
   31SAPC  H13S 4159   1.859   6.081   8.047  0.7756  1.1466  0.4047
   31SAPC  C214 4160   2.046   5.977   8.080  0.2694  0.0747  0.2241
   31SAPC  H14R 4161   2.152   5.985   8.051 -0.2974  1.5247 -1.6076
   31SAPC  C215 4162   2.028   5.912   8.200 -0.0594 -0.1797  0.2172
   31SAPC  H15R 4163   2.112   5.860   8.248  0.1294 -1.5847 -1.5017
   31SAPC  C216 4164   1.890   5.880   8.265  0.1322 -0.4531  0.6669
   31SAPC  H16R 4165   1.883   5.772   8.288  2.2234 -1.0626 -1.1426
   31SAPC  H16S 4166   1.810   5.923   8.200  0.1114  0.3392  1.2069
   31SAPC  C217 4167   1.881   5.952   8.392 -1.0225  0.4851  0.2571
   31SAPC  H17R 4168   1.776   5.941   8.424 -1.8304  0.5706 -2.1277
   31SAPC  H17S 4169   1.898   6.062   8.388  0.8827  0.2012 -1.3671
   31SAPC  C218 4170   1.980   5.904   8.498 -0.6134  0.2517 -0.0110
   31SAPC  H18R 4171   2.075   5.892   8.442 -1.6435 -3.0933 -1.2689
   31SAPC  H18S 4172   1.961   5.801   8.533  2.2327 -0.4967 -0.4285
   31SAPC  C219 4173   2.002   5.994   8.623 -0.6955 -0.1148  0.6087
   31SAPC  H19R 4174   2.010   6.098   8.585  1.4122  0.7991  3.2559
   31SAPC  H19S 4175   2.103   5.971   8.662  0.3027  0.4299 -1.5181
   31SAPC  C220 4176   1.888   5.999   8.719 -0.4959  0.0120 -0.5755
   31SAPC  H20R 4177   1.805   6.063   8.681 -1.9190 -0.4118  1.6546
   31SAPC  H20S 4178   1.923   6.046   8.813 -1.2395 -4.1531  2.0455
   31SAPC  H20T 4179   1.846   5.897   8.732 -1.3518  0.4710  0.3870
   31SAPC   C33 4180   1.278   5.805   6.932  0.2880  0.0163  0.2381
   31SAPC   H3X 4181   1.388   5.802   6.943  0.3430  0.1405 -0.2449
   31SAPC   H3Y 4182   1.249   5.698   6.934 -0.6709  0.2775  2.5202
   31SAPC   C34 4183   1.221   5.881   7.048  0.7042  0.3587 -0.7267
   31SAPC   H4X 4184   1.110   5.876   7.052  0.5632  1.1241 -2.7247
   31SAPC   H4Y 4185   1.238   5.990   7.038 -0.9848  0.6901 -0.2264
   31SAPC   C35 4186   1.277   5.831   7.181  1.2134  0.1622 -1.1293
   31SAPC   H5X 4187   1.380   5.871   7.193  1.9671 -1.7832 -0.8230
   31SAPC   H5Y 4188   1.294   5.722   7.188 -1.1351 -0.1668  1.3124
   31SAPC   C36 4189   1.189   5.874   7.307  0.5535 -0.3999  0.5957
   31SAPC   H6X 4190   1.117   5.796   7.338 -1.5552  1.0591 -0.3916
   31SAPC   H6Y 4191   1.124   5.960   7.281  2.7983  1.2288  0.0035
   31SAPC   C37 4192   1.277   5.910   7.420 -0.9745 -1.5574 -0.0581
   31SAPC   H7X 4193   1.344   5.994   7.394 -2.9918  0.1616 -0.0320
   31SAPC   H7Y 4194   1.336   5.823   7.455  1.4619 -1.2408 -3.0055
   31SAPC   C38 4195   1.184   5.966   7.531  0.3048  0.2010 -0.2799
   31SAPC   H8X 4196   1.109   5.895   7.570  1.1049  0.7570  2.5879
   31SAPC   H8Y 4197   1.128   6.054   7.494  2.4664  1.6912 -0.2273
   31SAPC   C39 4198   1.272   6.014   7.649  0.4627 -0.5773 -0.1878
   31SAPC   H9X 4199   1.378   6.011   7.614 -0.3600 -0.4658 -2.9266
   31SAPC   H9Y 4200   1.266   5.937   7.729 -3.1631  0.2227  0.4532
   31SAPC  C310 4201   1.241   6.154   7.720 -0.2147  0.5832  0.2356
   31SAPC  H10X 4202   1.148   6.157   7.781  0.7605  2.5166  1.7784
   31SAPC  H10Y 4203   1.224   6.222   7.634 -0.0136  1.3552  0.7975
   31SAPC  C311 4204   1.361   6.208   7.793 -0.7448 -0.5664 -0.0894
   31SAPC  H11X 4205   1.348   6.316   7.818  0.6812 -0.5976  0.8953
   31SAPC  H11Y 4206   1.445   6.208   7.721  1.6298  2.6477  2.3890
   31SAPC  C312 4207   1.380   6.136   7.933 -0.8074  0.0547  0.4813
   31SAPC  H12X 4208   1.384   6.026   7.915  2.6827  0.2126 -0.2088
   31SAPC  H12Y 4209   1.293   6.152   8.001 -1.7688 -1.3881 -0.3444
   31SAPC  C313 4210   1.509   6.166   8.007 -0.8229 -0.6586 -0.2081
   31SAPC  H13X 4211   1.504   6.270   8.044  0.7047  0.0054 -1.7792
   31SAPC  H13Y 4212   1.595   6.169   7.938 -0.5435  0.8828  0.1711
   31SAPC  C314 4213   1.559   6.063   8.108  0.0508 -0.2278 -0.6750
   31SAPC  H14X 4214   1.652   6.100   8.156  0.3024 -0.1817 -1.1830
   31SAPC  H14Y 4215   1.581   5.971   8.050 -1.7395  0.3100 -2.2882
   31SAPC  C315 4216   1.464   6.046   8.232 -0.6475  0.3931  1.0465
   31SAPC  H15X 4217   1.366   6.030   8.181  0.1707 -0.0867 -0.4367
   31SAPC  H15Y 4218   1.462   6.139   8.291  0.9176  1.8786 -1.0662
   31SAPC  C316 4219   1.488   5.912   8.316  0.3346  0.0391 -0.0559
   31SAPC  H16X 4220   1.595   5.893   8.336 -0.3680 -2.9014  1.4098
   31SAPC  H16Y 4221   1.444   5.828   8.257  0.2629 -0.4380  0.6741
   31SAPC  C317 4222   1.411   5.914   8.447  0.3141 -0.1007  0.0152
   31SAPC  H17X 4223   1.462   5.979   8.522  1.1940  0.6759 -1.2211
   31SAPC  H17Y 4224   1.425   5.815   8.495  1.4625 -0.2597 -0.6141
   31SAPC  C318 4225   1.261   5.936   8.445 -0.2554  0.4726 -1.1928
   31SAPC  H18X 4226   1.219   5.848   8.391 -0.1067 -0.5501  0.2873
   31SAPC  H18Y 4227   1.239   6.036   8.404  1.6080  1.9186  1.0786
   31SAPC  H18Z 4228   1.224   5.935   8.550  0.4325 -0.5357 -0.9394
   32SAPC     N 4229   3.163   1.450   5.850 -0.2717  0.9824 -0.0648
   32SAPC   C12 4230   3.218   1.409   5.981  0.2437  0.0702 -0.2702
   32SAPC  H12A 4231   3.260   1.498   6.025 -0.3042  1.0063 -1.5838
   32SAPC  H12B 4232   3.304   1.346   5.966 -0.9941 -2.1047  1.2068
   32SAPC   C13 4233   3.268   1.536   5.779  0.1068 -0.2631 -0.0357
   32SAPC  H13A 4234   3.282   1.621   5.844 -0.1624 -0.5101  0.3452
   32SAPC  H13B 4235   3.356   1.479   5.755  0.0363 -0.8374  1.0351
   32SAPC  H13C 4236   3.226   1.577   5.688  0.4930  0.6245  0.1731
   32SAPC   C14 4237   3.140   1.324   5.768  0.0409 -0.3002 -0.7277
   32SAPC  H14A 4238   3.073   1.259   5.822 -0.0658  1.6472  1.6588
   32SAPC  H14B 4239   3.085   1.355   5.680 -0.3693  1.0539 -0.0335
   32SAPC  H14C 4240   3.236   1.282   5.744  1.1842  0.9127  1.4422
   32SAPC   C15 4241   3.043   1.528   5.869 -0.2852 -0.0488  0.2275
   32SAPC  H15A 4242   2.970   1.468   5.921  1.3170 -1.1260  1.3065
   32SAPC  H15B 4243   3.059   1.616   5.929  3.5101 -1.0665  0.9666
   32SAPC  H15C 4244   3.003   1.562   5.774 -0.9433 -0.3793  0.3826
   32SAPC   C11 4245   3.126   1.337   6.091 -0.3257  0.2966  0.3171
   32SAPC  H11A 4246   3.043   1.408   6.106 -0.4833  0.0607  0.5694
   32SAPC  H11B 4247   3.186   1.327   6.184  0.1923 -1.6095 -0.1557
   32SAPC     P 4248   3.196   1.082   6.050 -0.0268 -0.4323  0.1873
   32SAPC   O13 4249   3.130   0.955   6.011  0.7449  0.3111  0.0191
   32SAPC   O14 4250   3.322   1.118   5.971  0.9215  0.1229  0.3037
   32SAPC   O12 4251   3.090   1.202   6.044  0.4115 -0.7827 -0.0878
   32SAPC   O11 4252   3.238   1.070   6.205  0.4102  0.5217 -0.1544
   32SAPC    C1 4253   3.169   0.995   6.307  0.1898 -0.5385 -0.1775
   32SAPC    HA 4254   3.059   1.016   6.302  0.3888  1.1220  1.2358
   32SAPC    HB 4255   3.188   0.886   6.297 -0.2676 -0.7097  0.7278
   32SAPC    C2 4256   3.215   1.045   6.447  0.2430 -0.7807  0.2319
   32SAPC    HS 4257   3.151   1.000   6.525  0.6597  0.2532  1.1984
   32SAPC   O21 4258   3.197   1.190   6.452 -0.1889 -0.1096  0.1612
   32SAPC   C21 4259   3.077   1.226   6.488  0.0010 -0.3757  0.2870
   32SAPC   O22 4260   2.988   1.154   6.516  0.4088 -0.1052 -0.1278
   32SAPC   C22 4261   3.062   1.374   6.508  0.0574  0.1233 -0.1261
   32SAPC   H2R 4262   3.159   1.427   6.496  0.3423  0.6912  3.5104
   32SAPC   H2S 4263   2.990   1.416   6.434 -0.5263  0.3316  0.5550
   32SAPC    C3 4264   3.368   1.012   6.489  0.0547 -0.2607  0.4254
   32SAPC    HX 4265   3.440   1.080   6.439  1.2099 -2.2179 -0.7219
   32SAPC    HY 4266   3.396   0.909   6.458 -0.4466  0.1079 -1.3807
   32SAPC   O31 4267   3.381   1.019   6.634 -0.7381  0.0555 -0.4936
   32SAPC   C31 4268   3.505   1.016   6.673  0.2614 -0.3344  0.3411
   32SAPC   O32 4269   3.601   1.011   6.601 -0.1934 -0.3900  0.2857
   32SAPC   C32 4270   3.508   1.015   6.824 -0.0901  0.3430 -0.0305
   32SAPC   H2X 4271   3.409   0.996   6.871  0.5474 -0.6008  0.9865
   32SAPC   H2Y 4272   3.548   1.113   6.857  3.2855 -1.2996  1.3456
   32SAPC   C23 4273   3.019   1.404   6.656  0.1701  0.2911  0.5194
   32SAPC   H3R 4274   2.927   1.346   6.680  1.2534 -1.4934  0.5915
   32SAPC   H3S 4275   2.992   1.511   6.666  1.0257  0.6756 -1.0480
   32SAPC   C24 4276   3.120   1.366   6.766  0.3659 -0.1931  0.5203
   32SAPC   H4R 4277   3.078   1.405   6.860  1.3939  1.0576  0.4888
   32SAPC   H4S 4278   3.206   1.433   6.744 -0.4513  0.2559 -1.6256
   32SAPC   C25 4279   3.171   1.223   6.775  0.1003 -0.1428  0.0012
   32SAPC   H5R 4280   3.261   1.209   6.714 -0.0002  1.2388 -0.5097
   32SAPC   C26 4281   3.131   1.142   6.869  0.1327  0.8652 -1.0289
   32SAPC   H6R 4282   3.171   1.040   6.861  0.5012  0.8088  0.8794
   32SAPC   C27 4283   3.036   1.177   6.981  0.8700  0.4294  0.5524
   32SAPC   H7R 4284   2.951   1.231   6.934 -1.4424 -2.7284  0.8063
   32SAPC   H7S 4285   3.089   1.246   7.051  2.0668 -0.0147  0.1024
   32SAPC   C28 4286   2.977   1.057   7.054 -0.3496 -0.2818  0.2654
   32SAPC   H8R 4287   2.868   1.066   7.062 -0.2614  0.4563  0.6771
   32SAPC   C29 4288   3.039   0.950   7.113 -0.0230 -0.1087 -0.0279
   32SAPC   H9R 4289   2.980   0.865   7.151  0.8152  0.1106  1.8544
   32SAPC  C210 4290   3.189   0.928   7.112  0.0778 -0.4308 -1.0419
   32SAPC  H10R 4291   3.230   1.030   7.130 -1.2443  0.0302 -0.5065
   32SAPC  H10S 4292   3.223   0.902   7.010  2.2592 -0.2637 -0.3962
   32SAPC  C211 4293   3.239   0.838   7.228 -0.0314 -0.3142 -0.6717
   32SAPC  H11R 4294   3.269   0.739   7.194  0.6663  0.2831 -1.8491
   32SAPC  C212 4295   3.236   0.861   7.367 -0.0234 -0.2252 -0.4496
   32SAPC  H12R 4296   3.277   0.787   7.437  1.7011  0.4668 -0.6844
   32SAPC  C213 4297   3.174   0.980   7.433  0.1881  0.0221  0.3359
   32SAPC  H13R 4298   3.119   1.054   7.372  1.1589 -0.8368 -1.6759
   32SAPC  H13S 4299   3.264   1.038   7.463  1.2472 -1.7572  0.7694
   32SAPC  C214 4300   3.102   0.942   7.557  0.3523 -0.4917 -0.0799
   32SAPC  H14R 4301   2.995   0.924   7.539 -0.3731  2.5039  0.6805
   32SAPC  C215 4302   3.133   0.948   7.683 -0.4034  0.8356  0.2978
   32SAPC  H15R 4303   3.050   0.919   7.749 -2.8779  1.3103 -2.3977
   32SAPC  C216 4304   3.266   0.997   7.729 -0.3247  0.7209 -0.5349
   32SAPC  H16R 4305   3.274   1.102   7.693 -2.2388  0.1189 -2.9329
   32SAPC  H16S 4306   3.349   0.938   7.684  1.2011  0.1199  2.7368
   32SAPC  C217 4307   3.281   0.982   7.880  0.2269  0.2754 -0.7042
   32SAPC  H17R 4308   3.291   0.873   7.900 -0.9397  0.1318 -0.7872
   32SAPC  H17S 4309   3.192   1.017   7.937  0.3269  0.1009 -0.4382
   32SAPC  C218 4310   3.401   1.059   7.942 -0.4337 -0.0284  0.3361
   32SAPC  H18R 4311   3.391   1.168   7.925 -2.1750 -0.3039 -0.6247
   32SAPC  H18S 4312   3.492   1.011   7.901 -1.7550 -2.9114  0.5613
   32SAPC  C219 4313   3.405   1.042   8.095  0.9172  0.1816 -0.6482
   32SAPC  H19R 4314   3.391   0.934   8.114  0.9293  0.3678  0.4802
   32SAPC  H19S 4315   3.322   1.100   8.141  0.8941 -0.0699 -0.3693
   32SAPC  C220 4316   3.536   1.077   8.167  0.2132  0.5268  0.4603
   32SAPC  H20R 4317   3.608   0.993   8.157  0.4161  0.8392 -0.8651
   32SAPC  H20S 4318   3.523   1.085   8.277 -1.0069 -3.1515  0.7354
   32SAPC  H20T 4319   3.584   1.164   8.117  0.9324 -0.1608 -0.0737
   32SAPC   C33 4320   3.600   0.908   6.877  0.0081  0.0869  0.0396
   32SAPC   H3X 4321   3.697   0.923   6.825  0.7721 -0.5007  1.2347
   32SAPC   H3Y 4322   3.556   0.807   6.868  0.7685 -0.2752  0.2680
   32SAPC   C34 4323   3.633   0.924   7.025 -0.4783 -0.0668  0.0850
   32SAPC   H4X 4324   3.537   0.902   7.077 -0.6491  2.2976  0.8859
   32SAPC   H4Y 4325   3.669   1.024   7.057 -3.5753  0.8084  1.1887
   32SAPC   C35 4326   3.747   0.827   7.076  0.3785 -0.6126 -0.2733
   32SAPC   H5X 4327   3.845   0.847   7.028 -0.0535 -0.6277 -1.1893
   32SAPC   H5Y 4328   3.707   0.727   7.047 -1.1961  0.2306 -1.1767
   32SAPC   C36 4329   3.764   0.826   7.229 -0.2844  0.0297  1.0620
   32SAPC   H6X 4330   3.777   0.927   7.272  0.9301  0.5539 -0.4587
   32SAPC   H6Y 4331   3.852   0.761   7.247 -0.4671 -0.1556  1.2867
   32SAPC   C37 4332   3.647   0.759   7.311  0.2834 -0.1236 -0.6356
   32SAPC   H7X 4333   3.638   0.657   7.269  0.0935 -0.2301 -0.3352
   32SAPC   H7Y 4334   3.553   0.818   7.300  0.7165  1.5100  3.0546
   32SAPC   C38 4335   3.683   0.755   7.457  0.3606 -0.4733  0.0965
   32SAPC   H8X 4336   3.701   0.853   7.505 -2.4794 -1.0524  2.7248
   32SAPC   H8Y 4337   3.776   0.696   7.470 -0.1703 -1.2711  0.3555
   32SAPC   C39 4338   3.553   0.713   7.541 -0.9813  0.2671  0.0214
   32SAPC   H9X 4339   3.461   0.747   7.489 -1.9952 -1.8866  0.3134
   32SAPC   H9Y 4340   3.559   0.761   7.641  0.6390 -1.2443  0.7113
   32SAPC  C310 4341   3.541   0.563   7.562 -0.1100  0.5942 -0.0705
   32SAPC  H10X 4342   3.633   0.529   7.614  0.4261  0.7243 -0.9113
   32SAPC  H10Y 4343   3.557   0.513   7.464  1.2580  1.5457 -0.3629
   32SAPC  C311 4344   3.436   0.518   7.657 -0.6873  0.4096  0.0901
   32SAPC  H11X 4345   3.449   0.572   7.753 -0.1578  0.0384  0.2335
   32SAPC  H11Y 4346   3.444   0.408   7.669 -0.1176  0.5818  1.4247
   32SAPC  C312 4347   3.295   0.557   7.609  0.7070 -0.2015  0.5897
   32SAPC  H12X 4348   3.255   0.524   7.511  0.5463 -0.1523  0.6398
   32SAPC  H12Y 4349   3.294   0.667   7.596 -2.1250 -0.1110  1.0959
   32SAPC  C313 4350   3.189   0.519   7.720 -0.4729  0.1085 -0.2087
   32SAPC  H13X 4351   3.102   0.588   7.708 -2.0186 -1.7491 -0.1864
   32SAPC  H13Y 4352   3.224   0.533   7.825 -2.6836 -1.5554  0.8353
   32SAPC  C314 4353   3.136   0.378   7.707 -0.0438 -0.1268 -0.5008
   32SAPC  H14X 4354   3.205   0.302   7.750  0.5493  0.8788  0.3838
   32SAPC  H14Y 4355   3.120   0.360   7.598 -1.4242 -0.3925 -0.2766
   32SAPC  C315 4356   2.996   0.368   7.786  0.3672 -0.0835  0.0125
   32SAPC  H15X 4357   2.927   0.440   7.737 -2.6572 -2.0675  1.0877
   32SAPC  H15Y 4358   3.017   0.394   7.892 -0.6591 -0.2947  0.2767
   32SAPC  C316 4359   2.945   0.219   7.778  0.2499 -0.2306  0.1801
   32SAPC  H16X 4360   3.029   0.152   7.805  1.5402  1.2679  0.0141
   32SAPC  H16Y 4361   2.912   0.190   7.676  1.0749 -1.3558  0.2119
   32SAPC  C317 4362   2.820   0.207   7.866  0.0988 -0.3776  0.2230
   32SAPC  H17X 4363   2.792   0.099   7.871 -0.9540 -0.0953  0.6285
   32SAPC  H17Y 4364   2.738   0.263   7.816  2.4864  2.3428 -0.8669
   32SAPC  C318 4365   2.844   0.260   8.005 -0.1478  1.0062 -0.6685
   32SAPC  H18X 4366   2.759   0.238   8.074  1.5993 -2.1256  0.7196
   32SAPC  H18Y 4367   2.867   0.368   8.004  0.1482  1.0873  2.7600
   32SAPC  H18Z 4368   2.933   0.207   8.046 -0.0489  2.3610  0.9850
   33POPC     N 4369   0.288   6.596  10.712  0.5436 -0.0687  0.4370
   33POPC   C12 4370   0.194   6.586  10.595  0.2901 -0.2920  0.5653
   33POPC  H12A 4371   0.092   6.562  10.621 -0.1604  0.0132 -0.8596
   33POPC  H12B 4372   0.224   6.500  10.538 -0.1098  0.3758 -0.7006
   33POPC   C13 4373   0.423   6.647  10.671 -0.2549 -0.3986  0.0352
   33POPC  H13A 4374   0.399   6.740  10.622  1.5049 -0.1692 -0.4514
   33POPC  H13B 4375   0.490   6.650  10.755 -1.5730  1.0449  1.0979
   33POPC  H13C 4376   0.478   6.582  10.605  0.8652 -2.0267  2.4179
   33POPC   C14 4377   0.239   6.702  10.811  0.6529 -0.2113  0.5463
   33POPC  H14A 4378   0.305   6.723  10.894  1.9095 -3.0072  0.3582
   33POPC  H14B 4379   0.204   6.790  10.760  1.2398 -0.5766 -0.5154
   33POPC  H14C 4380   0.150   6.658  10.855 -1.0833  0.6293 -1.8727
   33POPC   C15 4381   0.308   6.467  10.780  0.4831  0.2521 -0.7522
   33POPC  H15A 4382   0.371   6.405  10.718  0.2524  0.4367 -1.1769
   33POPC  H15B 4383   0.210   6.428  10.806  0.4183 -0.3404 -1.8437
   33POPC  H15C 4384   0.368   6.489  10.867  1.0636  0.9919 -1.3349
   33POPC   C11 4385   0.185   6.707  10.494  0.2322 -0.3796 -0.1134
   33POPC  H11A 4386   0.133   6.683  10.399 -4.7670  0.1516  2.1574
   33POPC  H11B 4387   0.289   6.734  10.467  0.0542  1.3035  0.8058
   33POPC     P 4388  -0.031   6.849  10.540 -0.0778  0.0296  0.7940
   33POPC   O13 4389  -0.059   6.942  10.649  0.1934  0.2014 -0.3813
   33POPC   O14 4390  -0.115   6.730  10.537 -0.2145 -0.2176 -0.0828
   33POPC   O12 4391   0.122   6.816  10.559  0.4430 -0.1154 -0.5715
   33POPC   O11 4392  -0.035   6.920  10.400 -0.2569  0.2666 -0.2811
   33POPC    C1 4393   0.058   7.026  10.369 -0.2841  0.1036 -0.1124
   33POPC    HA 4394   0.059   7.100  10.453 -0.6307  1.2672 -1.1045
   33POPC    HB 4395   0.161   6.985  10.362 -0.4988 -1.0669  2.3605
   33POPC    C2 4396   0.039   7.105  10.238  0.4865 -0.8007 -0.3496
   33POPC    HS 4397  -0.067   7.134  10.221  0.6836 -1.0313 -2.2576
   33POPC   O21 4398   0.071   7.029  10.121 -0.6732  0.0338  0.4647
   33POPC   C21 4399  -0.020   6.959  10.057  0.5344  0.2917 -0.2990
   33POPC   O22 4400  -0.139   6.980  10.060  0.0279  0.0862  0.1505
   33POPC   C22 4401   0.044   6.848   9.972  0.1089 -1.1224 -0.0771
   33POPC   H2R 4402   0.059   6.766  10.046  0.9839  1.3674  2.6992
   33POPC   H2S 4403   0.143   6.888   9.941 -0.9326  0.7398 -1.1562
   33POPC    C3 4404   0.131   7.234  10.248  0.2380 -0.2973 -0.1845
   33POPC    HX 4405   0.238   7.205  10.246  0.7802  1.5758 -0.1381
   33POPC    HY 4406   0.121   7.283  10.347 -0.2203  3.1288 -1.8038
   33POPC   O31 4407   0.114   7.320  10.138 -0.3905 -0.1770  0.0336
   33POPC   C31 4408  -0.002   7.392  10.154  0.8402  0.4230 -0.8704
   33POPC   O32 4409  -0.071   7.373  10.253  0.1938 -0.6952  0.0572
   33POPC   C32 4410  -0.036   7.478  10.038  0.4621  0.3485  0.5568
   33POPC   H2X 4411   0.056   7.497   9.978  0.3145 -0.6538 -0.0168
   33POPC   H2Y 4412  -0.071   7.572  10.087 -3.0438 -0.0341 -0.9140
   33POPC   C23 4413  -0.026   6.818   9.842 -0.0771  0.0904 -0.2180
   33POPC   H3R 4414  -0.135   6.838   9.842 -0.3796 -1.3527 -1.7291
   33POPC   H3S 4415  -0.012   6.709   9.821  0.4439  0.3015 -0.9882
   33POPC   C24 4416   0.030   6.887   9.721 -0.6932 -0.4215  0.2581
   33POPC   H4R 4417   0.140   6.894   9.709 -0.7358 -0.0322  0.0560
   33POPC   H4S 4418   0.006   6.995   9.729  1.0950  0.1505 -1.3635
   33POPC   C25 4419  -0.041   6.842   9.594  0.8537  0.0389  0.1835
   33POPC   H5R 4420  -0.145   6.832   9.631  1.2623 -0.8814  1.1086
   33POPC   H5S 4421  -0.024   6.739   9.556  1.8052  0.1786  0.2013
   33POPC   C26 4422  -0.049   6.923   9.467 -0.3038 -0.4626  0.1092
   33POPC   H6R 4423   0.054   6.923   9.424 -0.9187 -1.3022 -1.4174
   33POPC   H6S 4424  -0.078   7.028   9.490  1.6717 -0.1016  1.2201
   33POPC   C27 4425  -0.132   6.858   9.355 -0.0405 -0.8790 -0.1893
   33POPC   H7R 4426  -0.223   6.808   9.394 -0.4921 -0.7751 -1.0755
   33POPC   H7S 4427  -0.070   6.786   9.297  0.4773  0.8031 -1.8390
   33POPC   C28 4428  -0.189   6.954   9.251  0.1521 -0.6469 -0.7636
   33POPC   H8R 4429  -0.232   7.046   9.297  4.0235  1.3876 -0.8139
   33POPC   H8S 4430  -0.277   6.900   9.211 -1.4077  0.0553  1.5176
   33POPC   C29 4431  -0.097   6.998   9.137  0.4387  0.3152  0.3715
   33POPC   H91 4432   0.009   6.979   9.158  0.3784 -1.5818 -0.8191
   33POPC  C210 4433  -0.136   7.049   9.021  0.3309 -0.2003 -0.2820
   33POPC  H101 4434  -0.054   7.064   8.949 -1.7991 -1.2590 -3.1315
   33POPC  C211 4435  -0.277   7.073   8.971 -0.1713  0.3089 -0.3548
   33POPC  H11R 4436  -0.317   7.161   9.026  2.3671  0.6164  1.1170
   33POPC  H11S 4437  -0.351   6.993   8.994 -0.3144  0.2830 -0.8700
   33POPC  C212 4438  -0.285   7.101   8.818 -0.7319 -0.7761  0.2854
   33POPC  H12R 4439  -0.385   7.120   8.773 -0.5342 -1.4720 -0.4603
   33POPC  H12S 4440  -0.236   7.008   8.782  1.8501  1.2188 -1.7941
   33POPC  C213 4441  -0.202   7.231   8.776  0.1982  0.4806 -0.0028
   33POPC  H13R 4442  -0.097   7.208   8.806  0.2250  0.9861  0.2957
   33POPC  H13S 4443  -0.228   7.314   8.845 -1.5453 -0.2403  0.2592
   33POPC  C214 4444  -0.226   7.242   8.622 -0.2517 -1.0677 -0.1320
   33POPC  H14R 4445  -0.256   7.347   8.601 -0.3170 -0.7889  1.2754
   33POPC  H14S 4446  -0.303   7.167   8.592 -1.2788 -1.8910  3.9676
   33POPC  C215 4447  -0.101   7.208   8.544 -0.4892  0.5514  0.3172
   33POPC  H15R 4448  -0.092   7.098   8.552  0.1451  0.6529  1.2717
   33POPC  H15S 4449  -0.002   7.246   8.578  0.7939 -0.0492 -2.4680
   33POPC  C216 4450  -0.096   7.269   8.401 -0.1559 -0.2157 -0.2299
   33POPC  H16R 4451  -0.138   7.372   8.396 -1.5146 -0.8030 -3.0479
   33POPC  H16S 4452  -0.162   7.213   8.331  2.0074 -0.6541 -2.0607
   33POPC  C217 4453   0.048   7.261   8.340  0.2540 -0.4624  0.3453
   33POPC  H17R 4454   0.090   7.161   8.364  0.8822 -0.6530 -1.4343
   33POPC  H17S 4455   0.112   7.341   8.384 -0.1217  0.1456 -0.1933
   33POPC  C218 4456   0.046   7.289   8.188 -0.3066  0.1522  0.3797
   33POPC  H18R 4457  -0.029   7.233   8.129 -3.3079  3.8948  0.2687
   33POPC  H18S 4458   0.147   7.258   8.154  0.4132  1.7644  0.9399
   33POPC  H18T 4459   0.044   7.398   8.166  0.8804 -0.3354 -2.5201
   33POPC   C33 4460  -0.148   7.413   9.958 -0.2960  0.0550 -0.1134
   33POPC   H3X 4461  -0.188   7.484   9.882  0.3986  3.2711  2.2612
   33POPC   H3Y 4462  -0.227   7.374  10.026  0.5725 -1.1185  0.2515
   33POPC   C34 4463  -0.100   7.278   9.898 -0.1955  0.4961  0.4028
   33POPC   H4X 4464  -0.189   7.216   9.872 -0.1696  0.7614 -0.3475
   33POPC   H4Y 4465  -0.042   7.211   9.965  2.5900  0.1742 -2.0994
   33POPC   C35 4466  -0.002   7.288   9.778 -0.5614  0.8593  0.0047
   33POPC   H5X 4467  -0.006   7.390   9.734  0.2128  1.1328  0.5482
   33POPC   H5Y 4468  -0.039   7.221   9.697 -1.2154  0.6665  0.4506
   33POPC   C36 4469   0.144   7.248   9.804 -0.3747  0.5794 -0.1935
   33POPC   H6X 4470   0.158   7.139   9.819  3.1923  0.5049 -2.7554
   33POPC   H6Y 4471   0.174   7.308   9.893  0.5121 -1.5348  1.0124
   33POPC   C37 4472   0.246   7.290   9.697 -0.2264  0.5664  0.2025
   33POPC   H7X 4473   0.347   7.278   9.741  1.4085  0.3385 -3.2548
   33POPC   H7Y 4474   0.236   7.401   9.697 -0.4062  0.5513 -0.0419
   33POPC   C38 4475   0.222   7.204   9.568  0.1208 -0.2613 -0.2491
   33POPC   H8X 4476   0.113   7.188   9.559  0.0237  0.3151 -0.1120
   33POPC   H8Y 4477   0.272   7.105   9.578  0.3860 -0.0860  0.2197
   33POPC   C39 4478   0.266   7.283   9.439 -0.6877 -0.2322  0.9549
   33POPC   H9X 4479   0.377   7.289   9.446 -0.7933  1.1359  1.7952
   33POPC   H9Y 4480   0.226   7.386   9.450 -2.2796 -0.9350  2.2811
   33POPC  C310 4481   0.221   7.221   9.316  0.2915 -0.4822  0.2949
   33POPC  H10X 4482   0.110   7.217   9.320  0.0537  2.6628 -0.2054
   33POPC  H10Y 4483   0.256   7.118   9.299 -1.5163 -0.8135 -1.8030
   33POPC  C311 4484   0.264   7.301   9.195 -0.4994 -0.0499 -0.1700
   33POPC  H11X 4485   0.374   7.316   9.195 -0.5010  0.9731  3.7920
   33POPC  H11Y 4486   0.216   7.401   9.199 -0.8857 -0.2735  3.0690
   33POPC  C312 4487   0.216   7.239   9.059 -0.0009  0.3037  0.4856
   33POPC  H12X 4488   0.107   7.219   9.070  0.2289 -1.6148 -0.2816
   33POPC  H12Y 4489   0.253   7.139   9.028  0.4568  0.4379  0.5951
   33POPC  C313 4490   0.246   7.330   8.939 -0.2718  0.0837 -0.4138
   33POPC  H13X 4491   0.354   7.346   8.920 -0.7411  1.2678 -2.3626
   33POPC  H13Y 4492   0.190   7.425   8.955 -0.5132 -0.2945  1.1753
   33POPC  C314 4493   0.200   7.275   8.802 -0.1288 -0.4033 -0.4499
   33POPC  H14X 4494   0.091   7.290   8.791  0.1816  2.3998 -0.4200
   33POPC  H14Y 4495   0.207   7.165   8.786 -0.7610 -0.8788  2.0920
   33POPC  C315 4496   0.260   7.351   8.677 -0.1293  0.6844 -0.8814
   33POPC  H15X 4497   0.207   7.294   8.597 -1.5163 -0.8020  1.0019
   33POPC  H15Y 4498   0.370   7.333   8.677 -0.2584 -0.1737 -1.0778
   33POPC  C316 4499   0.224   7.495   8.665  0.1481 -0.0780  0.5896
   33POPC  H16X 4500   0.215   7.526   8.558  1.2120 -3.0417 -0.4689
   33POPC  H16Y 4501   0.295   7.561   8.719  1.2627 -0.0671 -0.8324
   33POPC  H16Z 4502   0.122   7.518   8.705  0.0756  1.4342 -0.3733
   34POPC     N 4503   4.361   1.161  10.704  0.6043 -0.7582 -0.4714
   34POPC   C12 4504   4.380   1.205  10.559  0.4123 -0.5591 -0.4684
   34POPC  H12A 4505   4.320   1.292  10.537  0.6051 -0.2010  0.3847
   34POPC  H12B 4506   4.347   1.132  10.487 -0.7166  1.8897 -2.6045
   34POPC   C13 4507   4.434   1.022  10.716  0.1772 -0.6326 -0.0263
   34POPC  H13A 4508   4.538   1.013  10.687 -0.1055 -1.7320 -0.7372
   34POPC  H13B 4509   4.431   0.992  10.820 -0.0111 -0.5916 -0.0192
   34POPC  H13C 4510   4.372   0.948  10.667 -2.3292  1.1242  0.2915
   34POPC   C14 4511   4.422   1.250  10.801  0.2311 -0.0321 -0.1722
   34POPC  H14A 4512   4.518   1.285  10.768 -0.1910 -0.4646 -1.9200
   34POPC  H14B 4513   4.372   1.344  10.818  0.7116  0.3943 -1.0853
   34POPC  H14C 4514   4.443   1.191  10.890  0.1254  0.5553  0.2514
   34POPC   C15 4515   4.218   1.143  10.735  0.6023 -0.5410  1.4712
   34POPC  H15A 4516   4.206   1.088  10.827 -2.2071 -2.8738 -0.0964
   34POPC  H15B 4517   4.168   1.084  10.660 -0.8375  1.3449  0.8704
   34POPC  H15C 4518   4.162   1.234  10.728  0.2460 -0.8388  0.0524
   34POPC   C11 4519   4.518   1.263  10.523  0.3520 -0.6571 -0.1052
   34POPC  H11A 4520   4.538   1.259  10.414  0.1382 -3.0789 -0.1025
   34POPC  H11B 4521   4.591   1.196  10.573  0.8418 -1.4710 -1.8405
   34POPC     P 4522   4.472   1.525  10.509 -0.1617 -0.4531  0.1879
   34POPC   O13 4523   4.547   1.643  10.563  0.2827  0.4495 -0.1768
   34POPC   O14 4524   4.323   1.531  10.515 -0.3233  0.6834 -0.5636
   34POPC   O12 4525   4.522   1.396  10.574 -0.4785  0.3153 -0.4900
   34POPC   O11 4526   4.524   1.510  10.363 -0.5060  0.1918  0.8613
   34POPC    C1 4527   4.432   1.519  10.257  0.6114  0.5428  0.9402
   34POPC    HA 4528   4.380   1.617  10.256  1.7521  1.2044  2.1019
   34POPC    HB 4529   4.347   1.450  10.270  1.3192 -0.1463  2.0569
   34POPC    C2 4530   4.505   1.500  10.121  0.2118  0.6856 -0.0648
   34POPC    HS 4531   4.436   1.493  10.034  1.0236  1.5055 -0.8001
   34POPC   O21 4532   4.592   1.379  10.126 -0.0763 -0.4328 -0.0424
   34POPC   C21 4533   4.529   1.268  10.150  0.4956 -0.7074  0.1521
   34POPC   O22 4534   4.408   1.250  10.157 -0.4363 -0.3659  0.2626
   34POPC   C22 4535   4.636   1.160  10.172 -0.0993 -0.1330 -0.1758
   34POPC   H2R 4536   4.651   1.144  10.281 -3.5938 -0.9232  0.3177
   34POPC   H2S 4537   4.726   1.193  10.117  0.2357 -0.0422  0.4166
   34POPC    C3 4538   4.596   1.615  10.086 -0.6696  0.3207 -0.1147
   34POPC    HX 4539   4.691   1.617  10.145 -0.5735  1.6049 -0.2713
   34POPC    HY 4540   4.536   1.703  10.117  0.7019  1.3449 -0.2672
   34POPC   O31 4541   4.625   1.612   9.941 -0.2313 -0.0966 -0.4044
   34POPC   C31 4542   4.742   1.566   9.905  0.4496 -0.3058  0.5180
   34POPC   O32 4543   4.828   1.538   9.981 -0.0766 -0.0484 -0.0933
   34POPC   C32 4544   4.735   1.532   9.757 -0.2681  0.2526  0.0984
   34POPC   H2X 4545   4.830   1.561   9.708 -0.5145  0.4824 -0.2486
   34POPC   H2Y 4546   4.650   1.582   9.706  1.1373  0.8564 -1.7448
   34POPC   C23 4547   4.588   1.025  10.110  0.0378 -0.2289 -1.0266
   34POPC   H3R 4548   4.486   0.996  10.144  0.5107 -0.3727  0.3217
   34POPC   H3S 4549   4.656   0.950  10.155  1.0565  1.1494 -0.1408
   34POPC   C24 4550   4.592   1.027   9.963  0.0475  0.0721  0.3095
   34POPC   H4R 4551   4.685   1.064   9.916  0.7353 -0.5492  1.1508
   34POPC   H4S 4552   4.518   1.100   9.924 -0.6733  0.1943  1.8158
   34POPC   C25 4553   4.559   0.885   9.904 -0.1333  0.4277  0.0771
   34POPC   H5R 4554   4.514   0.891   9.802  0.0146 -0.4305 -0.0437
   34POPC   H5S 4555   4.484   0.838   9.970 -1.7895 -1.6826 -3.0610
   34POPC   C26 4556   4.682   0.784   9.894  0.3357 -0.0034  0.0587
   34POPC   H6R 4557   4.643   0.713   9.819 -3.4203  1.0379  0.8122
   34POPC   H6S 4558   4.689   0.726   9.988 -1.2801 -0.5291 -0.1143
   34POPC   C27 4559   4.826   0.845   9.859 -0.3512 -0.2505  0.5636
   34POPC   H7R 4560   4.888   0.844   9.951 -0.8045  0.9912  0.9041
   34POPC   H7S 4561   4.818   0.948   9.819  1.1612 -0.9289 -1.6407
   34POPC   C28 4562   4.896   0.767   9.748  0.1412  0.3304 -0.0028
   34POPC   H8R 4563   4.826   0.747   9.665  0.0375  0.8527 -0.0466
   34POPC   H8S 4564   4.916   0.664   9.783 -1.1686 -0.4237 -1.3344
   34POPC   C29 4565   5.023   0.827   9.703  0.0493 -0.4165 -0.6227
   34POPC   H91 4566   5.075   0.890   9.777 -2.0639 -0.4342  1.0033
   34POPC  C210 4567   5.067   0.845   9.578  0.0679 -0.1684  0.4834
   34POPC  H101 4568   5.162   0.899   9.559  0.0488 -0.5279 -0.7206
   34POPC  C211 4569   4.981   0.800   9.457 -0.6263  0.6589 -0.0775
   34POPC  H11R 4570   4.907   0.882   9.446  0.1722  1.5743  1.0828
   34POPC  H11S 4571   4.928   0.708   9.489  2.2796 -0.9199  0.6083
   34POPC  C212 4572   5.067   0.779   9.333 -0.3532  0.3505  0.4991
   34POPC  H12R 4573   5.119   0.682   9.347 -1.6885 -0.3105  1.0674
   34POPC  H12S 4574   5.142   0.861   9.326 -0.5321  0.7033  2.4116
   34POPC  C213 4575   4.991   0.791   9.197  0.3681  0.1723 -0.0948
   34POPC  H13R 4576   5.055   0.790   9.106  1.5761  0.5600  0.7283
   34POPC  H13S 4577   4.948   0.892   9.209  0.2206  0.3438 -1.7624
   34POPC  C214 4578   4.868   0.698   9.179 -0.1651 -0.0935 -0.1573
   34POPC  H14R 4579   4.793   0.729   9.255  0.3006 -0.6459  0.5356
   34POPC  H14S 4580   4.890   0.590   9.192  0.3622 -0.2830 -2.2027
   34POPC  C215 4581   4.804   0.703   9.039 -0.3265 -0.0394  0.0349
   34POPC  H15R 4582   4.886   0.688   8.966  0.4557  1.2541  0.6307
   34POPC  H15S 4583   4.757   0.802   9.018  0.0551  0.0232 -0.5340
   34POPC  C216 4584   4.704   0.588   9.025  0.3416  0.0592  0.2001
   34POPC  H16R 4585   4.618   0.605   9.094  1.3340  1.6385  1.1096
   34POPC  H16S 4586   4.749   0.492   9.056  0.7084  0.0955 -0.2195
   34POPC  C217 4587   4.653   0.573   8.881  0.0008 -0.2514 -0.3549
   34POPC  H17R 4588   4.734   0.594   8.808  1.6181  0.2085  1.4945
   34POPC  H17S 4589   4.580   0.654   8.862  0.3485  0.6979  2.0428
   34POPC  C218 4590   4.594   0.435   8.843  0.6031 -0.0762 -0.1400
   34POPC  H18R 4591   4.562   0.437   8.736 -1.0900 -0.9175  0.3196
   34POPC  H18S 4592   4.503   0.423   8.905  1.3364 -0.6777  0.8484
   34POPC  H18T 4593   4.661   0.348   8.858 -0.5107 -0.5944  2.1881
   34POPC   C33 4594   4.717   1.382   9.751 -0.5680 -0.0820  0.1358
   34POPC   H3X 4595   4.627   1.350   9.806  0.4884 -1.5176  1.1138
   34POPC   H3Y 4596   4.795   1.321   9.801  0.4797 -0.3708 -1.7267
   34POPC   C34 4597   4.718   1.330   9.604  0.2470 -0.3547  0.6121
   34POPC   H4X 4598   4.812   1.371   9.560 -0.6610  0.6946 -0.4221
   34POPC   H4Y 4599   4.630   1.370   9.550 -0.7961 -2.5323  0.5938
   34POPC   C35 4600   4.720   1.180   9.580  0.5204 -0.5057 -0.3117
   34POPC   H5X 4601   4.643   1.132   9.644 -0.8146  3.2345  1.1095
   34POPC   H5Y 4602   4.815   1.145   9.626  1.2307  0.7291 -0.8020
   34POPC   C36 4603   4.717   1.147   9.430 -0.2062  0.7686  0.6240
   34POPC   H6X 4604   4.732   1.038   9.414  0.4145  1.0600 -1.0355
   34POPC   H6Y 4605   4.799   1.206   9.383  0.2826 -0.0425  0.4323
   34POPC   C37 4606   4.583   1.189   9.363 -0.3537 -0.0526  0.4302
   34POPC   H7X 4607   4.569   1.299   9.357  0.8099  0.0991  0.2129
   34POPC   H7Y 4608   4.509   1.157   9.439  0.1997  1.2163  1.5387
   34POPC   C38 4609   4.558   1.119   9.225 -0.3342 -0.6177  0.2142
   34POPC   H8X 4610   4.545   1.009   9.226  0.4010 -0.7929 -2.3890
   34POPC   H8Y 4611   4.646   1.152   9.166 -0.5833  0.3673  0.3704
   34POPC   C39 4612   4.441   1.192   9.159  0.0785  0.6497 -0.0307
   34POPC   H9X 4613   4.449   1.301   9.179  0.3436  0.1356  3.1738
   34POPC   H9Y 4614   4.342   1.175   9.206 -0.7880 -1.1464 -2.3281
   34POPC  C310 4615   4.423   1.158   9.003  0.4921  0.4866 -0.0214
   34POPC  H10X 4616   4.518   1.194   8.958  1.6344 -1.3364  0.8176
   34POPC  H10Y 4617   4.343   1.223   8.961  0.6238 -0.2498 -1.4567
   34POPC  C311 4618   4.394   1.008   8.984 -0.3865  0.5981 -0.6473
   34POPC  H11X 4619   4.322   0.979   9.064 -1.6851  1.5197 -1.4434
   34POPC  H11Y 4620   4.487   0.962   9.025 -0.1987  1.2923 -0.2753
   34POPC  C312 4621   4.349   0.951   8.853  0.1371  0.3429 -0.1280
   34POPC  H12X 4622   4.268   1.020   8.822  0.7925  1.6884  1.0849
   34POPC  H12Y 4623   4.335   0.840   8.854  2.6213 -0.0341  0.2343
   34POPC  C313 4624   4.456   0.969   8.744  0.1408 -0.9650  0.2052
   34POPC  H13X 4625   4.545   0.909   8.776  1.2722 -0.3893 -1.7100
   34POPC  H13Y 4626   4.489   1.075   8.737 -2.2534 -0.2240 -0.9182
   34POPC  C314 4627   4.412   0.935   8.605  0.1448 -0.3045  0.2201
   34POPC  H14X 4628   4.319   0.987   8.575  0.7922  1.6575  1.4523
   34POPC  H14Y 4629   4.389   0.826   8.613 -0.8821 -0.0772  0.4268
   34POPC  C315 4630   4.503   0.951   8.484 -0.1179  0.6640  0.0834
   34POPC  H15X 4631   4.538   1.056   8.471  1.5344  0.3079  1.2635
   34POPC  H15Y 4632   4.451   0.918   8.391  0.3483 -0.4035  0.1960
   34POPC  C316 4633   4.634   0.864   8.489 -0.2034  0.0062 -0.0227
   34POPC  H16X 4634   4.611   0.771   8.546 -1.5157  1.4565  2.0043
   34POPC  H16Y 4635   4.712   0.921   8.545 -0.9848  3.3838 -2.0700
   34POPC  H16Z 4636   4.676   0.851   8.387  1.4132  1.2256  0.4505
   35POPC     N 4637   5.378   6.189  11.254 -0.8900  0.3464  0.8240
   35POPC   C12 4638   5.356   6.338  11.261 -0.5116 -0.3479 -0.0111
   35POPC  H12A 4639   5.402   6.374  11.351  2.0781 -0.5625 -1.1375
   35POPC  H12B 4640   5.248   6.342  11.262 -0.6733 -1.6972 -2.4790
   35POPC   C13 4641   5.525   6.164  11.222  0.9127 -0.1232 -0.0277
   35POPC  H13A 4642   5.585   6.216  11.295 -0.4974 -1.1845  1.9962
   35POPC  H13B 4643   5.541   6.057  11.219  0.6288 -0.1444 -1.3933
   35POPC  H13C 4644   5.551   6.195  11.122 -1.4826 -1.1018 -1.0482
   35POPC   C14 4645   5.341   6.121  11.379 -0.0013 -0.0160  0.1956
   35POPC  H14A 4646   5.380   6.158  11.473 -0.0573  2.4314 -0.6711
   35POPC  H14B 4647   5.234   6.130  11.391 -0.1831  0.1639 -1.4127
   35POPC  H14C 4648   5.360   6.015  11.367  0.8460  0.4014 -3.2878
   35POPC   C15 4649   5.289   6.143  11.138 -0.4426 -0.2179 -0.0557
   35POPC  H15A 4650   5.186   6.146  11.173 -0.8147  0.1479 -1.1499
   35POPC  H15B 4651   5.299   6.037  11.121 -0.4871 -0.2812  0.2901
   35POPC  H15C 4652   5.293   6.198  11.045 -1.0954  0.3420  0.2363
   35POPC   C11 4653   5.398   6.440  11.143 -0.0159  0.3344  0.2105
   35POPC  H11A 4654   5.505   6.417  11.128 -0.0941  0.1765 -0.1240
   35POPC  H11B 4655   5.393   6.544  11.182  1.5109  1.0715 -1.4169
   35POPC     P 4656   5.186   6.505  11.012 -0.4216 -0.0646  0.4290
   35POPC   O13 4657   5.133   6.540  11.146 -0.3157  0.5229 -0.5722
   35POPC   O14 4658   5.092   6.438  10.922 -0.2266  0.1093  0.3866
   35POPC   O12 4659   5.320   6.415  11.030 -0.2109 -0.0525 -0.2171
   35POPC   O11 4660   5.245   6.635  10.949  0.5187  0.4677 -0.3151
   35POPC    C1 4661   5.300   6.645  10.817 -0.7733  0.3793 -0.1702
   35POPC    HA 4662   5.334   6.551  10.768 -0.5280 -0.6605  1.8547
   35POPC    HB 4663   5.382   6.720  10.827  1.1190 -1.5222 -0.7351
   35POPC    C2 4664   5.203   6.697  10.709 -0.7765 -0.3833 -0.1802
   35POPC    HS 4665   5.135   6.614  10.680 -0.9088  0.0465 -1.1337
   35POPC   O21 4666   5.271   6.746  10.594 -0.1939 -0.3443 -0.1013
   35POPC   C21 4667   5.323   6.660  10.506  0.0111  0.3783  0.1169
   35POPC   O22 4668   5.310   6.542  10.510  0.0805 -0.2776  0.1150
   35POPC   C22 4669   5.380   6.751  10.395 -0.2021 -0.0524 -0.0798
   35POPC   H2R 4670   5.446   6.825  10.445  0.9384 -0.9113 -0.2810
   35POPC   H2S 4671   5.292   6.792  10.341  0.4231 -0.3485 -1.3446
   35POPC    C3 4672   5.115   6.810  10.766 -0.1354 -0.1977  0.2480
   35POPC    HX 4673   5.183   6.898  10.773 -1.6608  0.8673  3.6978
   35POPC    HY 4674   5.075   6.775  10.864 -2.3372  0.8950 -0.1910
   35POPC   O31 4675   5.010   6.838  10.671  0.3638 -0.4496  0.4469
   35POPC   C31 4676   4.937   6.950  10.690 -0.2534  0.5632  0.3763
   35POPC   O32 4677   4.966   7.038  10.769  0.1731 -0.3773 -0.0167
   35POPC   C32 4678   4.818   6.946  10.583 -0.1088  0.7295 -0.3627
   35POPC   H2X 4679   4.761   7.035  10.618  1.1977  1.1794  0.7048
   35POPC   H2Y 4680   4.759   6.853  10.599  0.3261  0.1849 -1.8604
   35POPC   C23 4681   5.451   6.668  10.288  0.4795  0.1185  0.3189
   35POPC   H3R 4682   5.379   6.595  10.246  0.0301  0.2254  0.8885
   35POPC   H3S 4683   5.536   6.614  10.336  1.4011  1.1110 -0.1676
   35POPC   C24 4684   5.516   6.752  10.177  0.0331 -0.0326 -0.3820
   35POPC   H4R 4685   5.462   6.839  10.136  0.6418 -0.2375 -1.6873
   35POPC   H4S 4686   5.542   6.681  10.095  1.8012  1.1266 -0.8828
   35POPC   C25 4687   5.653   6.805  10.220 -0.5793  0.2926  0.6196
   35POPC   H5R 4688   5.718   6.722  10.255  0.2260  0.7753  0.2856
   35POPC   H5S 4689   5.645   6.878  10.303  0.7619  2.6045 -1.1447
   35POPC   C26 4690   5.723   6.870  10.098  0.1540 -0.0895  0.0524
   35POPC   H6R 4691   5.673   6.967  10.076  1.1680  1.0564  2.3952
   35POPC   H6S 4692   5.706   6.801  10.013 -1.1428 -0.2361  0.3997
   35POPC   C27 4693   5.868   6.902  10.119  0.0113  0.2913  0.0658
   35POPC   H7R 4694   5.892   6.984  10.190 -2.8194  0.4528  0.9499
   35POPC   H7S 4695   5.899   6.919  10.013 -0.2107 -3.6598 -0.7990
   35POPC   C28 4696   5.951   6.782  10.162 -0.2066 -0.0783 -0.1207
   35POPC   H8R 4697   5.899   6.695  10.118  1.2666 -0.2407 -1.6613
   35POPC   H8S 4698   5.942   6.779  10.273  0.3850 -0.8279 -0.0812
   35POPC   C29 4699   6.100   6.777  10.117 -0.5258  0.1507  0.4416
   35POPC   H91 4700   6.177   6.789  10.194 -0.6222 -2.3017  1.0016
   35POPC  C210 4701   6.145   6.757   9.993  0.6412  0.6715  0.6505
   35POPC  H101 4702   6.254   6.746   9.980  0.5742 -0.1373  0.7092
   35POPC  C211 4703   6.059   6.726   9.869 -0.5325 -0.6126 -0.3178
   35POPC  H11R 4704   5.978   6.799   9.851  0.7315  0.8413 -0.3377
   35POPC  H11S 4705   6.013   6.626   9.887 -0.9007 -0.2015  1.0995
   35POPC  C212 4706   6.154   6.729   9.744  0.2784  0.3008 -0.2025
   35POPC  H12R 4707   6.249   6.672   9.738  0.9828  1.5318 -3.3507
   35POPC  H12S 4708   6.192   6.834   9.746  1.3251 -0.0637 -0.4702
   35POPC  C213 4709   6.075   6.715   9.611 -0.3825  0.6520  1.2198
   35POPC  H13R 4710   6.012   6.625   9.633  1.5505 -0.9799  0.3539
   35POPC  H13S 4711   6.132   6.697   9.518  2.2072  1.6157  2.5172
   35POPC  C214 4712   5.981   6.829   9.588 -0.3347 -0.1234 -0.3628
   35POPC  H14R 4713   6.049   6.916   9.591  0.2061 -0.4489 -2.1644
   35POPC  H14S 4714   5.905   6.820   9.668  0.4425 -0.6069  0.3251
   35POPC  C215 4715   5.903   6.826   9.454  0.5481  0.2377  1.1165
   35POPC  H15R 4716   5.862   6.724   9.437  0.6304  0.4454 -0.5171
   35POPC  H15S 4717   5.982   6.847   9.378  1.2872  1.3546  2.1474
   35POPC  C216 4718   5.788   6.931   9.455 -0.6801  0.1976 -0.0056
   35POPC  H16R 4719   5.747   6.930   9.352  1.5970  0.8896 -0.9825
   35POPC  H16S 4720   5.820   7.036   9.473  1.4000 -0.2238 -0.9193
   35POPC  C217 4721   5.674   6.899   9.550  0.4531 -0.2731 -0.1600
   35POPC  H17R 4722   5.710   6.904   9.655 -2.5815  3.1468  0.9221
   35POPC  H17S 4723   5.627   6.801   9.525 -2.7391  1.2220 -0.4749
   35POPC  C218 4724   5.560   7.007   9.557  0.1910  0.1274  0.6032
   35POPC  H18R 4725   5.505   7.010   9.461  1.2498  2.0982  0.0042
   35POPC  H18S 4726   5.590   7.114   9.561 -3.3459  1.3178 -0.6762
   35POPC  H18T 4727   5.487   6.990   9.639  0.1619  1.5965  0.9053
   35POPC   C33 4728   4.846   6.958  10.433 -0.3758  0.3691 -0.3797
   35POPC   H3X 4729   4.938   6.899  10.412  0.1722  0.3379  1.8221
   35POPC   H3Y 4730   4.871   7.063  10.405  1.6822  0.8361  2.6335
   35POPC   C34 4731   4.722   6.903  10.348 -1.2648  0.2829 -0.1725
   35POPC   H4X 4732   4.632   6.966  10.362 -0.8021  0.5118  2.0173
   35POPC   H4Y 4733   4.693   6.799  10.375 -0.7145  0.6749  2.1525
   35POPC   C35 4734   4.756   6.903  10.197  0.1185  0.1156  0.0524
   35POPC   H5X 4735   4.853   6.850  10.189  0.7208  0.9869  1.3104
   35POPC   H5Y 4736   4.773   7.004  10.154 -0.0568 -0.2972 -1.0131
   35POPC   C36 4737   4.639   6.846  10.110  0.2562  0.0547 -0.0262
   35POPC   H6X 4738   4.540   6.885  10.144 -1.2664 -3.1421 -0.4273
   35POPC   H6Y 4739   4.622   6.737  10.121 -2.9699  0.3525 -0.9579
   35POPC   C37 4740   4.661   6.877   9.961  1.1287  0.1443 -0.1410
   35POPC   H7X 4741   4.734   6.803   9.921 -0.1721 -1.5265  0.5285
   35POPC   H7Y 4742   4.707   6.977   9.939 -3.1160  1.9666 -1.7801
   35POPC   C38 4743   4.525   6.879   9.890 -0.4169  0.1893 -0.4613
   35POPC   H8X 4744   4.470   6.971   9.920  1.2766  0.7237  1.1587
   35POPC   H8Y 4745   4.466   6.788   9.910 -0.7547  0.4661 -0.1897
   35POPC   C39 4746   4.538   6.896   9.739  0.4015 -0.0476 -0.5131
   35POPC   H9X 4747   4.618   6.967   9.709  0.8439 -1.3553 -2.5974
   35POPC   H9Y 4748   4.442   6.934   9.698  1.6674  2.0671 -1.6863
   35POPC  C310 4749   4.566   6.760   9.667 -0.4053  0.0082 -0.7758
   35POPC  H10X 4750   4.467   6.709   9.665 -1.4591  1.8060  1.1330
   35POPC  H10Y 4751   4.634   6.697   9.729 -0.3099  2.5171  1.8907
   35POPC  C311 4752   4.626   6.780   9.529  0.2156  0.3199 -1.3097
   35POPC  H11X 4753   4.728   6.823   9.540  0.1913  0.2218 -0.6393
   35POPC  H11Y 4754   4.561   6.839   9.462  0.8331  0.1017 -2.1089
   35POPC  C312 4755   4.637   6.640   9.466  0.5219 -0.2198 -0.1655
   35POPC  H12X 4756   4.672   6.566   9.541  2.1105 -0.5657 -1.2050
   35POPC  H12Y 4757   4.697   6.655   9.375  1.0637  0.6833  0.3302
   35POPC  C313 4758   4.500   6.599   9.412  0.2942  0.3714  0.3851
   35POPC  H13X 4759   4.454   6.691   9.369 -0.3017 -1.2410 -2.7069
   35POPC  H13Y 4760   4.431   6.559   9.489 -1.9964  1.7713 -0.8373
   35POPC  C314 4761   4.515   6.511   9.283  0.4588  0.6571  0.3553
   35POPC  H14X 4762   4.534   6.409   9.323 -0.2706 -0.5427 -2.1816
   35POPC  H14Y 4763   4.607   6.541   9.229  0.6229 -0.0143  0.2519
   35POPC  C315 4764   4.396   6.499   9.190  0.4613  0.2285  0.6499
   35POPC  H15X 4765   4.429   6.435   9.105 -0.7557 -0.1901  0.4698
   35POPC  H15Y 4766   4.363   6.593   9.141  2.8642  0.9387  0.2964
   35POPC  C316 4767   4.265   6.431   9.250  0.1684 -0.6617  0.0011
   35POPC  H16X 4768   4.302   6.343   9.308 -1.1846  0.5660  2.9623
   35POPC  H16Y 4769   4.204   6.392   9.166  1.5965 -0.9811 -0.9108
   35POPC  H16Z 4770   4.199   6.502   9.305  0.0624  0.2059 -1.2240
   36POPC     N 4771   4.395   3.463  10.964 -0.0908  0.1125 -0.3540
   36POPC   C12 4772   4.300   3.384  10.871 -0.1484 -0.4914 -0.2834
   36POPC  H12A 4773   4.217   3.362  10.937 -1.6778  0.1641 -1.9253
   36POPC  H12B 4774   4.348   3.291  10.842  0.6001 -0.2672  0.1868
   36POPC   C13 4775   4.446   3.369  11.071 -0.5704  0.4343  0.4441
   36POPC  H13A 4776   4.512   3.296  11.026  0.0327  1.3148 -0.1334
   36POPC  H13B 4777   4.506   3.417  11.146 -0.0260  0.7471 -0.1804
   36POPC  H13C 4778   4.362   3.328  11.126  0.5765 -2.7569  0.0483
   36POPC   C14 4779   4.512   3.522  10.889  0.1472  0.2816 -0.5839
   36POPC  H14A 4780   4.580   3.580  10.950 -0.8489  2.1969 -1.1916
   36POPC  H14B 4781   4.561   3.448  10.828  0.2267  0.0113 -0.2003
   36POPC  H14C 4782   4.485   3.600  10.820  2.0076  1.5532  0.0406
   36POPC   C15 4783   4.318   3.569  11.040  0.3356 -0.7024 -0.8127
   36POPC  H15A 4784   4.225   3.540  11.086 -0.1183  1.3901 -0.3157
   36POPC  H15B 4785   4.295   3.651  10.974 -1.8535 -1.3488 -0.9296
   36POPC  H15C 4786   4.375   3.612  11.121 -2.1499 -0.3789  0.8919
   36POPC   C11 4787   4.236   3.452  10.746 -0.2934  0.4138 -0.1669
   36POPC  H11A 4788   4.179   3.372  10.694  2.2394 -2.4653  1.1374
   36POPC  H11B 4789   4.313   3.491  10.677  0.4618  1.3443  1.1667
   36POPC     P 4790   4.015   3.549  10.868  0.1422 -0.0875 -0.0279
   36POPC   O13 4791   4.012   3.660  10.966  0.1935 -0.5516 -0.4445
   36POPC   O14 4792   3.999   3.414  10.922  0.4584 -0.1218  0.2411
   36POPC   O12 4793   4.157   3.557  10.791  0.0323  0.2933  0.5032
   36POPC   O11 4794   3.909   3.568  10.749  0.4655  0.0241 -0.0968
   36POPC    C1 4795   3.908   3.496  10.627  0.3504  0.3546  0.1683
   36POPC    HA 4796   3.804   3.501  10.588  0.6999 -1.9503 -1.2832
   36POPC    HB 4797   3.930   3.388  10.639  1.7691  0.2653 -2.4314
   36POPC    C2 4798   4.003   3.542  10.506  0.6206 -0.6089 -0.2382
   36POPC    HS 4799   4.105   3.503  10.529  1.3491  1.1513 -0.3585
   36POPC   O21 4800   4.013   3.683  10.517  0.4378 -0.0416  0.3096
   36POPC   C21 4801   4.117   3.742  10.463 -0.2896 -0.1350  0.7528
   36POPC   O22 4802   4.217   3.685  10.425  0.5941  0.1958 -0.0668
   36POPC   C22 4803   4.099   3.899  10.471 -0.0903  0.2010  0.4358
   36POPC   H2R 4804   4.197   3.951  10.460  1.0025 -1.4391  1.8102
   36POPC   H2S 4805   4.072   3.917  10.578 -3.0683 -1.9305  0.1519
   36POPC    C3 4806   3.944   3.506  10.365 -0.1486  0.3407 -0.3385
   36POPC    HX 4807   3.844   3.553  10.357  0.8861  2.4863 -1.8188
   36POPC    HY 4808   3.928   3.396  10.366  1.0457  0.0827  2.7110
   36POPC   O31 4809   4.036   3.544  10.266  0.5950  0.4384 -0.0141
   36POPC   C31 4810   3.985   3.565  10.145 -0.1162  0.0925 -0.2916
   36POPC   O32 4811   3.869   3.547  10.114  1.1503 -0.0057  0.3403
   36POPC   C32 4812   4.107   3.606  10.062 -0.5188 -0.1649  0.1308
   36POPC   H2X 4813   4.183   3.525  10.058 -2.2077 -1.9828  2.2804
   36POPC   H2Y 4814   4.143   3.698  10.113  0.6721 -0.1378 -0.7114
   36POPC   C23 4815   3.988   3.936  10.365  0.5754  1.1983  0.0362
   36POPC   H3R 4816   3.924   4.007  10.421  1.1230  0.8968  1.0771
   36POPC   H3S 4817   3.920   3.855  10.330 -0.2521  0.7979  2.3539
   36POPC   C24 4818   4.055   4.005  10.246 -0.5203 -0.0215  0.3352
   36POPC   H4R 4819   4.130   3.944  10.192 -0.1402 -0.7861  1.6681
   36POPC   H4S 4820   4.092   4.103  10.284 -1.5099  0.3231  0.4538
   36POPC   C25 4821   3.952   4.048  10.141 -0.3469  0.5536  0.8813
   36POPC   H5R 4822   3.866   4.098  10.190 -0.9551 -1.8092  2.3500
   36POPC   H5S 4823   3.926   3.954  10.089  0.7159  0.5387  0.3431
   36POPC   C26 4824   4.007   4.151  10.038 -0.3289 -0.5456 -0.5754
   36POPC   H6R 4825   4.031   4.246  10.089 -2.4766  0.0430 -0.5443
   36POPC   H6S 4826   3.919   4.177   9.975 -1.1186 -2.2626 -0.2581
   36POPC   C27 4827   4.128   4.110   9.952  0.7412  1.2678  0.2310
   36POPC   H7R 4828   4.111   4.011   9.903  1.1787  1.6126 -0.6316
   36POPC   H7S 4829   4.225   4.109  10.006  1.7137  2.4278 -1.4244
   36POPC   C28 4830   4.128   4.206   9.838  0.0445 -0.1668  0.0392
   36POPC   H8R 4831   4.135   4.312   9.872  0.1286 -0.4125  0.8019
   36POPC   H8S 4832   4.036   4.192   9.778  0.3526  0.7632 -0.6712
   36POPC   C29 4833   4.251   4.194   9.762  0.1563 -0.6262  0.3222
   36POPC   H91 4834   4.341   4.199   9.825  1.2196 -1.2450 -1.1035
   36POPC  C210 4835   4.266   4.204   9.623 -0.2751 -0.3294 -0.7441
   36POPC  H101 4836   4.369   4.185   9.588 -0.2361  0.3617 -1.0157
   36POPC  C211 4837   4.165   4.234   9.521 -0.7750 -0.4189  0.0362
   36POPC  H11R 4838   4.066   4.245   9.572  0.0136 -0.6545  1.6999
   36POPC  H11S 4839   4.141   4.151   9.451  1.9949  0.6050 -2.3020
   36POPC  C212 4840   4.198   4.354   9.427 -0.7061  0.0345  0.3666
   36POPC  H12R 4841   4.236   4.438   9.490  2.1104  0.3287 -1.5481
   36POPC  H12S 4842   4.113   4.397   9.371 -2.4246 -1.0650  2.0146
   36POPC  C213 4843   4.312   4.334   9.325  0.2758 -0.6190  0.1569
   36POPC  H13R 4844   4.295   4.246   9.260 -2.1092 -1.2813  1.5837
   36POPC  H13S 4845   4.395   4.303   9.392  2.4785 -0.1727 -2.1873
   36POPC  C214 4846   4.351   4.454   9.236  0.5679  0.5988 -0.0943
   36POPC  H14R 4847   4.344   4.532   9.314 -1.5139 -1.6310  2.1532
   36POPC  H14S 4848   4.260   4.474   9.177  0.3037  1.1727  0.4993
   36POPC  C215 4849   4.472   4.435   9.152 -0.6535 -0.6632 -0.3096
   36POPC  H15R 4850   4.441   4.361   9.075 -2.0887  0.5260 -0.9315
   36POPC  H15S 4851   4.555   4.386   9.207  0.2206  0.5816 -0.4760
   36POPC  C216 4852   4.515   4.563   9.073 -0.3564 -0.4348  0.7931
   36POPC  H16R 4853   4.433   4.581   9.000  0.2850  1.5500  0.5086
   36POPC  H16S 4854   4.612   4.547   9.021 -1.0841  0.2679 -0.8463
   36POPC  C217 4855   4.525   4.692   9.149 -0.4285  0.2751 -0.4751
   36POPC  H17R 4856   4.427   4.710   9.198 -0.3219 -1.6062  0.5333
   36POPC  H17S 4857   4.556   4.765   9.071  2.3633  0.1840  0.4199
   36POPC  C218 4858   4.620   4.688   9.260 -0.1981 -0.9686 -0.0134
   36POPC  H18R 4859   4.723   4.684   9.218 -1.2862 -0.8164 -2.9331
   36POPC  H18S 4860   4.592   4.612   9.336 -0.1500 -1.0485 -0.0761
   36POPC  H18T 4861   4.618   4.782   9.320 -1.7493 -0.9079 -0.1253
   36POPC   C33 4862   4.063   3.650   9.920  0.4014  0.0413  0.0162
   36POPC   H3X 4863   4.043   3.759   9.921 -0.4998 -0.1148  0.3271
   36POPC   H3Y 4864   3.975   3.594   9.882  1.2328 -1.4417  0.2042
   36POPC   C34 4865   4.174   3.621   9.817  0.3162  0.1876  0.5857
   36POPC   H4X 4866   4.199   3.514   9.832 -0.8102 -0.2539 -0.5449
   36POPC   H4Y 4867   4.260   3.688   9.838  1.3869 -0.9364 -0.0821
   36POPC   C35 4868   4.147   3.651   9.667  0.7913 -0.1248 -0.0604
   36POPC   H5X 4869   4.047   3.611   9.639  0.8377  0.6359 -1.3871
   36POPC   H5Y 4870   4.220   3.599   9.602  0.1143 -0.3589 -0.6556
   36POPC   C36 4871   4.167   3.797   9.624  0.3269  0.1610 -0.3203
   36POPC   H6X 4872   4.271   3.830   9.646  0.8855 -1.1597 -0.8610
   36POPC   H6Y 4873   4.100   3.854   9.692 -0.6865 -0.8313 -0.4505
   36POPC   C37 4874   4.123   3.829   9.484  0.3872 -0.0376 -1.0036
   36POPC   H7X 4875   4.135   3.936   9.460 -3.0066  0.7623  0.3221
   36POPC   H7Y 4876   4.015   3.805   9.479  0.8094 -2.0474 -1.3910
   36POPC   C38 4877   4.183   3.731   9.380 -0.4915  0.8339 -0.1177
   36POPC   H8X 4878   4.130   3.633   9.385 -1.2242  1.0744 -2.2001
   36POPC   H8Y 4879   4.289   3.706   9.399 -0.4185  0.8820 -0.4522
   36POPC   C39 4880   4.178   3.770   9.232  0.2262 -0.6694 -0.0140
   36POPC   H9X 4881   4.076   3.803   9.201  0.3652 -0.2055  0.0134
   36POPC   H9Y 4882   4.206   3.683   9.169 -2.3648 -1.4273 -0.2542
   36POPC  C310 4883   4.266   3.896   9.201 -0.4185  0.0778 -0.3796
   36POPC  H10X 4884   4.373   3.864   9.210  0.1095  1.9994  0.6469
   36POPC  H10Y 4885   4.251   3.967   9.284  2.8788  0.0697  0.3879
   36POPC  C311 4886   4.243   3.952   9.058  0.5306 -1.0059 -0.6704
   36POPC  H11X 4887   4.304   4.043   9.041  1.7320 -1.6451  0.0290
   36POPC  H11Y 4888   4.139   3.991   9.064  0.3589 -1.5615  0.2257
   36POPC  C312 4889   4.246   3.859   8.938  0.0137  0.4167 -0.0336
   36POPC  H12X 4890   4.205   3.906   8.847  0.6851  0.6499 -0.2167
   36POPC  H12Y 4891   4.183   3.774   8.973  2.2061 -0.2711  2.6138
   36POPC  C313 4892   4.389   3.816   8.906  0.1451 -0.2265 -0.4275
   36POPC  H13X 4893   4.440   3.757   8.986  0.5564 -0.1558 -0.6342
   36POPC  H13Y 4894   4.453   3.905   8.889 -1.2823  1.2949  1.7033
   36POPC  C314 4895   4.394   3.730   8.774 -1.5866  0.0450  0.5345
   36POPC  H14X 4896   4.339   3.780   8.692  2.8531  2.0984 -1.4976
   36POPC  H14Y 4897   4.356   3.628   8.795 -0.3853 -0.3670  0.7872
   36POPC  C315 4898   4.539   3.704   8.716 -0.0050  0.4698  0.7019
   36POPC  H15X 4899   4.592   3.645   8.793  0.7391  1.7635  1.2094
   36POPC  H15Y 4900   4.589   3.803   8.705  1.1487 -0.1716  0.1091
   36POPC  C316 4901   4.542   3.640   8.581  0.2443 -0.3318 -0.5961
   36POPC  H16X 4902   4.644   3.661   8.542  1.1198 -0.6930  1.4097
   36POPC  H16Y 4903   4.466   3.683   8.512 -0.5200 -0.5374  0.1060
   36POPC  H16Z 4904   4.515   3.532   8.582 -0.7098 -0.0996 -0.3645
   37POPC     N 4905   3.052   2.327   6.214 -0.2950 -0.3276 -0.2538
   37POPC   C12 4906   3.080   2.286   6.356 -0.1912 -0.2827  0.6439
   37POPC  H12A 4907   3.036   2.365   6.416  0.5090 -1.0885  2.2600
   37POPC  H12B 4908   3.186   2.294   6.370 -0.3224  0.3704  1.4035
   37POPC   C13 4909   3.131   2.447   6.179 -0.3342 -0.1599  0.9860
   37POPC  H13A 4910   3.096   2.540   6.220  2.2554  0.1280  2.7825
   37POPC  H13B 4911   3.236   2.431   6.197 -0.0110 -0.7290 -1.0845
   37POPC  H13C 4912   3.121   2.445   6.071 -2.2898 -1.2907  1.1546
   37POPC   C14 4913   3.085   2.211   6.118  0.0380 -0.2838  0.4068
   37POPC  H14A 4914   3.060   2.239   6.017 -1.0949 -0.9876  0.4700
   37POPC  H14B 4915   3.188   2.184   6.136  0.9308  2.3245 -0.3760
   37POPC  H14C 4916   3.016   2.130   6.135 -3.2733  2.3518  0.5525
   37POPC   C15 4917   2.904   2.348   6.194  0.0594 -0.4606  0.0125
   37POPC  H15A 4918   2.880   2.361   6.090 -0.9149 -0.9608  0.1621
   37POPC  H15B 4919   2.879   2.433   6.257  0.7044 -0.8477  0.8184
   37POPC  H15C 4920   2.850   2.262   6.231  1.5147 -0.9641  1.0514
   37POPC   C11 4921   3.018   2.157   6.415  0.1299  0.0039  0.4562
   37POPC  H11A 4922   3.080   2.111   6.495 -0.7999 -1.5157  0.3398
   37POPC  H11B 4923   3.034   2.076   6.340 -2.2978 -0.7742  0.6889
   37POPC     P 4924   2.840   2.281   6.565  0.1695 -0.0605  0.2912
   37POPC   O13 4925   2.698   2.265   6.597  0.5180  0.8588  0.4992
   37POPC   O14 4926   2.870   2.416   6.518  0.0810 -0.2133  0.2569
   37POPC   O12 4927   2.879   2.180   6.444  0.1330  0.3163 -0.2519
   37POPC   O11 4928   2.918   2.224   6.685 -0.2942 -0.3756  0.3436
   37POPC    C1 4929   2.907   2.086   6.711 -0.1842  0.8404  0.5111
   37POPC    HA 4930   2.992   2.030   6.668 -1.6718 -0.8504 -0.3426
   37POPC    HB 4931   2.814   2.042   6.669  0.7786  2.3356 -3.5485
   37POPC    C2 4932   2.898   2.065   6.860 -0.4652  0.2094 -0.0765
   37POPC    HS 4933   2.976   2.128   6.908  1.5992 -0.2722 -2.5709
   37POPC   O21 4934   2.910   1.923   6.888  0.9242 -0.3461 -0.5260
   37POPC   C21 4935   3.031   1.883   6.922  0.0101  0.9195 -0.0461
   37POPC   O22 4936   3.130   1.953   6.927  0.2536 -0.1599  0.0037
   37POPC   C22 4937   3.038   1.727   6.953  0.2875 -0.0583  0.3028
   37POPC   H2R 4938   3.102   1.690   6.870 -0.8934  0.0886 -0.6988
   37POPC   H2S 4939   2.937   1.684   6.936  0.1228 -0.1550  1.4625
   37POPC    C3 4940   2.762   2.115   6.893  0.3664 -0.4437  0.0535
   37POPC    HX 4941   2.689   2.081   6.817  1.6842  1.5936 -2.2440
   37POPC    HY 4942   2.766   2.225   6.888  0.7440 -0.4971 -1.0694
   37POPC   O31 4943   2.722   2.067   7.026 -0.5625  0.8658  0.3625
   37POPC   C31 4944   2.614   1.990   7.039 -0.2854  0.1083  0.0155
   37POPC   O32 4945   2.538   1.961   6.945 -0.3373  0.2096 -0.3528
   37POPC   C32 4946   2.610   1.920   7.173 -0.4025  0.6998 -0.8661
   37POPC   H2X 4947   2.549   1.829   7.162  1.1480 -0.6666  1.0640
   37POPC   H2Y 4948   2.575   1.992   7.251 -1.5687 -0.0425 -0.6942
   37POPC   C23 4949   3.104   1.703   7.086  0.1031 -0.6619 -0.0235
   37POPC   H3R 4950   3.044   1.770   7.151  0.7998  3.5788 -3.3579
   37POPC   H3S 4951   3.207   1.743   7.093 -0.3154  0.4286  0.0009
   37POPC   C24 4952   3.121   1.563   7.133  0.0614 -0.5404 -0.3749
   37POPC   H4R 4953   3.198   1.519   7.066 -0.1080  1.0003 -1.6253
   37POPC   H4S 4954   3.026   1.507   7.119 -0.2599  0.0729 -0.6931
   37POPC   C25 4955   3.160   1.530   7.275 -0.7600  0.4294  0.8547
   37POPC   H5R 4956   3.265   1.564   7.289 -0.6489  0.0792  0.8938
   37POPC   H5S 4957   3.155   1.419   7.269  0.5022  0.4021 -0.2422
   37POPC   C26 4958   3.082   1.597   7.385  0.0821 -0.4321 -0.4132
   37POPC   H6R 4959   2.975   1.564   7.384  0.4213 -1.6093  0.2289
   37POPC   H6S 4960   3.095   1.707   7.382  0.9930 -0.5014  0.6511
   37POPC   C27 4961   3.134   1.559   7.523  0.1467  0.0544  0.5111
   37POPC   H7R 4962   3.238   1.591   7.542  0.0067 -0.2161  1.8105
   37POPC   H7S 4963   3.125   1.448   7.522 -1.7549  0.1680 -0.2230
   37POPC   C28 4964   3.045   1.611   7.638  0.0135 -0.3355  0.6763
   37POPC   H8R 4965   3.078   1.555   7.728 -0.6545 -0.5703  0.7754
   37POPC   H8S 4966   2.940   1.580   7.623  0.3437 -0.7246 -1.1007
   37POPC   C29 4967   3.070   1.761   7.653  0.1464 -0.1035  0.0792
   37POPC   H91 4968   3.063   1.819   7.560  0.1327 -0.2717 -0.0261
   37POPC  C210 4969   3.065   1.828   7.767 -0.7400 -0.5356 -0.4373
   37POPC  H101 4970   3.064   1.937   7.758 -0.0828 -0.5342 -0.5112
   37POPC  C211 4971   3.028   1.775   7.903 -0.0750  0.4100 -0.3588
   37POPC  H11R 4972   3.109   1.804   7.973 -2.1459 -0.8237  2.7607
   37POPC  H11S 4973   3.042   1.665   7.897  0.7413  0.5132 -0.4581
   37POPC  C212 4974   2.892   1.813   7.964  0.4607  0.4428  0.1246
   37POPC  H12R 4975   2.882   1.921   7.990 -2.0135 -0.1087  1.8437
   37POPC  H12S 4976   2.866   1.757   8.057  0.2548  0.8566  0.3207
   37POPC  C213 4977   2.775   1.796   7.865  0.0119  1.0477 -0.5223
   37POPC  H13R 4978   2.807   1.754   7.767 -1.0911 -2.8184  0.6013
   37POPC  H13S 4979   2.740   1.900   7.851 -0.8997  1.3806  3.2070
   37POPC  C214 4980   2.651   1.725   7.929 -0.0053 -0.3083  0.5887
   37POPC  H14R 4981   2.559   1.751   7.873 -1.4345 -1.3591  2.3444
   37POPC  H14S 4982   2.632   1.769   8.029  0.5813 -1.9894  1.4875
   37POPC  C215 4983   2.658   1.571   7.951  0.6468 -0.3303 -0.0466
   37POPC  H15R 4984   2.764   1.542   7.964  0.8694 -0.2324 -1.4563
   37POPC  H15S 4985   2.625   1.523   7.856  0.7687  1.1282 -0.8682
   37POPC  C216 4986   2.583   1.522   8.085 -0.5694 -0.0951  0.1801
   37POPC  H16R 4987   2.489   1.581   8.097  0.2985  1.8274 -1.7992
   37POPC  H16S 4988   2.642   1.551   8.174 -1.5890  1.1270  0.4914
   37POPC  C217 4989   2.560   1.371   8.098 -0.5746 -0.3466 -0.0649
   37POPC  H17R 4990   2.655   1.318   8.075 -1.3234 -1.4114 -0.7998
   37POPC  H17S 4991   2.498   1.323   8.019 -0.6927 -0.3150  0.0077
   37POPC  C218 4992   2.499   1.341   8.234 -0.5799 -0.7471  0.4192
   37POPC  H18R 4993   2.473   1.234   8.252 -1.2386 -0.3324  2.1160
   37POPC  H18S 4994   2.406   1.394   8.264 -1.1937 -1.8078  0.4284
   37POPC  H18T 4995   2.579   1.364   8.307 -1.0324 -1.1368  1.0525
   37POPC   C33 4996   2.743   1.852   7.222  0.0075  0.4070  0.2288
   37POPC   H3X 4997   2.791   1.807   7.133 -0.3066 -0.9878  0.7397
   37POPC   H3Y 4998   2.721   1.777   7.302  2.4705  1.0004  1.5435
   37POPC   C34 4999   2.844   1.949   7.306 -0.2352  0.4738  0.4886
   37POPC   H4X 5000   2.867   2.033   7.238 -1.4382  0.7625  0.4135
   37POPC   H4Y 5001   2.936   1.887   7.317 -0.6230 -0.5038 -1.3168
   37POPC   C35 5002   2.797   1.997   7.442  0.8340 -1.1540  0.0576
   37POPC   H5X 5003   2.763   1.907   7.497 -0.1563 -1.2669 -0.7024
   37POPC   H5Y 5004   2.701   2.045   7.416  0.3784 -1.0401  1.8376
   37POPC   C36 5005   2.893   2.094   7.512  0.2650  0.1424 -0.7366
   37POPC   H6X 5006   2.911   2.177   7.440 -0.1302  0.1331 -0.8493
   37POPC   H6Y 5007   2.987   2.042   7.540  0.7787  1.3815 -0.0654
   37POPC   C37 5008   2.851   2.151   7.645  0.7364 -0.2163  0.0347
   37POPC   H7X 5009   2.931   2.188   7.713  0.8822 -0.5234  0.0324
   37POPC   H7Y 5010   2.803   2.065   7.695 -0.7648  0.6618  0.1662
   37POPC   C38 5011   2.738   2.261   7.649 -0.1757  0.3468  0.2080
   37POPC   H8X 5012   2.645   2.216   7.607  2.3081 -3.2473 -2.0213
   37POPC   H8Y 5013   2.775   2.336   7.577  0.5786 -1.0713 -0.9504
   37POPC   C39 5014   2.717   2.326   7.791 -0.6836  0.0006  0.5884
   37POPC   H9X 5015   2.635   2.401   7.798 -0.3054  0.3282  1.6589
   37POPC   H9Y 5016   2.806   2.388   7.813 -0.9616 -0.7872  4.6804
   37POPC  C310 5017   2.700   2.218   7.899  0.3913 -0.6079 -0.2186
   37POPC  H10X 5018   2.783   2.145   7.902  0.5603 -0.4495  2.7793
   37POPC  H10Y 5019   2.610   2.159   7.873 -0.8599  1.4493 -0.7710
   37POPC  C311 5020   2.687   2.292   8.042  0.5495 -0.2481  0.1310
   37POPC  H11X 5021   2.656   2.398   8.033 -0.0303 -0.3842  0.4559
   37POPC  H11Y 5022   2.785   2.275   8.092 -0.3016 -1.8016  1.3715
   37POPC  C312 5023   2.581   2.216   8.120 -0.4518  0.3326 -0.4932
   37POPC  H12X 5024   2.492   2.193   8.057 -1.9672  0.2884  1.5421
   37POPC  H12Y 5025   2.543   2.283   8.200  0.1888  1.4034 -1.0701
   37POPC  C313 5026   2.624   2.081   8.179  0.1292 -0.8197 -0.5730
   37POPC  H13X 5027   2.715   2.101   8.240  0.9326  1.4658 -2.3646
   37POPC  H13Y 5028   2.654   2.007   8.102 -0.9752 -1.8221 -0.0713
   37POPC  C314 5029   2.521   2.012   8.266 -0.2838 -0.3356  0.1964
   37POPC  H14X 5030   2.442   1.970   8.201 -1.5608  1.9104  0.2291
   37POPC  H14Y 5031   2.472   2.075   8.343 -1.1438 -1.2151  0.3872
   37POPC  C315 5032   2.575   1.888   8.337 -0.5829 -0.0205 -0.3343
   37POPC  H15X 5033   2.645   1.918   8.418  0.5228 -1.0714 -0.8625
   37POPC  H15Y 5034   2.639   1.826   8.271  0.0864 -2.4855  2.4318
   37POPC  C316 5035   2.469   1.800   8.390 -0.0570  0.7454 -0.3858
   37POPC  H16X 5036   2.520   1.713   8.436  0.4140  1.2911  0.1410
   37POPC  H16Y 5037   2.401   1.764   8.310  0.2532  0.7807 -0.6666
   37POPC  H16Z 5038   2.417   1.859   8.469 -1.0418  0.3203 -0.6978
   38POPC     N 5039   6.624   3.785   5.961 -0.0461  0.1043  0.3686
   38POPC   C12 5040   6.605   3.754   6.107 -0.4185  0.3973  0.0756
   38POPC  H12A 5041   6.611   3.650   6.133 -0.3195 -0.1379 -1.9381
   38POPC  H12B 5042   6.513   3.797   6.143 -0.4462  0.3619  0.0460
   38POPC   C13 5043   6.604   3.929   5.929  0.2145  0.2242  0.0225
   38POPC  H13A 5044   6.660   3.994   5.994 -0.6612  1.0915 -0.0699
   38POPC  H13B 5045   6.621   3.957   5.826  2.5115  3.3721  1.1197
   38POPC  H13C 5046   6.501   3.957   5.946 -0.2259 -0.4133 -1.4260
   38POPC   C14 5047   6.763   3.757   5.917 -0.6167  0.7165 -0.2297
   38POPC  H14A 5048   6.841   3.803   5.976 -0.6261  0.4640 -0.0201
   38POPC  H14B 5049   6.785   3.651   5.915 -2.5618  0.2847  0.0648
   38POPC  H14C 5050   6.776   3.782   5.813 -0.8433  0.7590 -0.2482
   38POPC   C15 5051   6.533   3.710   5.872  0.2029  0.6790 -0.0514
   38POPC  H15A 5052   6.549   3.729   5.767  0.9448  1.6840  0.2357
   38POPC  H15B 5053   6.430   3.724   5.900  0.3294  2.0380 -0.2141
   38POPC  H15C 5054   6.557   3.606   5.889 -0.5079  0.6241  0.6250
   38POPC   C11 5055   6.714   3.818   6.208  0.5910  0.2668 -0.0676
   38POPC  H11A 5056   6.812   3.787   6.165 -0.1859  0.0356 -1.7796
   38POPC  H11B 5057   6.712   3.765   6.305 -0.6967  2.5989  1.2718
   38POPC     P 5058   6.593   4.029   6.297 -0.3869  0.2517 -0.0940
   38POPC   O13 5059   6.467   4.018   6.222 -0.3101 -0.4675 -0.3022
   38POPC   O14 5060   6.642   4.163   6.342  0.0010  0.0316 -0.0714
   38POPC   O12 5061   6.711   3.957   6.213  0.1351 -0.0485  0.1558
   38POPC   O11 5062   6.587   3.938   6.428  0.2362  0.3763 -0.2093
   38POPC    C1 5063   6.525   3.979   6.548  0.1709  0.4853  0.0652
   38POPC    HA 5064   6.437   3.912   6.563  1.9222 -1.8716  0.5269
   38POPC    HB 5065   6.511   4.088   6.558  2.3151  0.7550  0.4395
   38POPC    C2 5066   6.624   3.940   6.659 -0.4536  0.6749  0.1886
   38POPC    HS 5067   6.671   3.843   6.632  1.0518  1.1108  1.1150
   38POPC   O21 5068   6.548   3.951   6.774  0.5290  0.2766  0.0750
   38POPC   C21 5069   6.583   3.866   6.869  0.2259 -1.3963 -0.3082
   38POPC   O22 5070   6.665   3.778   6.860  0.0667  0.0518 -0.6058
   38POPC   C22 5071   6.499   3.899   6.991  0.4695 -0.8384  0.0388
   38POPC   H2R 5072   6.395   3.883   6.956  0.2804  1.3403 -0.6018
   38POPC   H2S 5073   6.502   4.008   7.013  0.4870 -0.8200 -0.0520
   38POPC    C3 5074   6.747   4.038   6.660 -0.2083  0.4480  0.5776
   38POPC    HX 5075   6.714   4.141   6.686  1.7323  1.5386 -0.9352
   38POPC    HY 5076   6.789   4.037   6.557 -0.6339 -2.9194  0.3222
   38POPC   O31 5077   6.839   3.997   6.760  0.3114 -0.3369  0.2491
   38POPC   C31 5078   6.941   4.087   6.778 -0.6582 -0.3083  0.0454
   38POPC   O32 5079   6.955   4.187   6.717 -0.0179 -0.2916  0.3458
   38POPC   C32 5080   7.041   4.028   6.885 -0.1897 -0.0687  0.2695
   38POPC   H2X 5081   7.141   4.055   6.845  0.0795  0.5970  1.3653
   38POPC   H2Y 5082   7.050   3.918   6.893  0.6896  0.0238  0.7226
   38POPC   C23 5083   6.523   3.807   7.112  0.4526 -0.2441 -0.1961
   38POPC   H3R 5084   6.630   3.804   7.142  1.1935  0.8757 -2.4352
   38POPC   H3S 5085   6.495   3.701   7.095  1.4601 -0.5038 -0.2902
   38POPC   C24 5086   6.442   3.858   7.235  0.5033  0.7497 -0.1890
   38POPC   H4R 5087   6.334   3.837   7.225  0.3723  1.9397 -1.5840
   38POPC   H4S 5088   6.458   3.967   7.247  1.1051  0.5596  0.9307
   38POPC   C25 5089   6.503   3.788   7.360 -0.0358  0.0484 -0.1196
   38POPC   H5R 5090   6.613   3.807   7.367 -0.0410 -0.5098  2.1885
   38POPC   H5S 5091   6.506   3.677   7.356 -0.9024  0.0401 -0.9049
   38POPC   C26 5092   6.438   3.833   7.492 -0.7406  0.3028  0.1587
   38POPC   H6R 5093   6.330   3.807   7.498 -0.6803  0.2176  0.9060
   38POPC   H6S 5094   6.456   3.942   7.503  1.2496 -0.0296  0.5450
   38POPC   C27 5095   6.499   3.755   7.608 -0.0947 -0.3787 -0.6545
   38POPC   H7R 5096   6.603   3.795   7.611  0.0480 -0.7989  1.5696
   38POPC   H7S 5097   6.494   3.645   7.591 -1.9771 -0.4805  0.2728
   38POPC   C28 5098   6.426   3.787   7.749  0.5023  0.1449  0.4615
   38POPC   H8R 5099   6.322   3.750   7.742  0.6862 -0.0769 -1.7026
   38POPC   H8S 5100   6.422   3.898   7.759 -1.5540  0.2039 -0.4683
   38POPC   C29 5101   6.507   3.725   7.858  0.3548  0.5480  1.1671
   38POPC   H91 5102   6.614   3.709   7.839 -0.2795  0.3191 -3.3859
   38POPC  C210 5103   6.458   3.690   7.974 -0.4380  0.1012 -0.4034
   38POPC  H101 5104   6.532   3.646   8.041 -0.8383  1.2087  0.8143
   38POPC  C211 5105   6.314   3.702   8.010  0.1294  0.8472 -0.1805
   38POPC  H11R 5106   6.252   3.767   7.944 -1.3381  0.1781  0.4749
   38POPC  H11S 5107   6.309   3.748   8.111  1.2271  0.6493 -0.0305
   38POPC  C212 5108   6.240   3.563   8.003 -0.0306  0.2222 -0.0294
   38POPC  H12R 5109   6.261   3.508   7.909 -0.1916 -1.0026  0.6196
   38POPC  H12S 5110   6.130   3.575   7.996 -0.5759 -3.3677  0.5024
   38POPC  C213 5111   6.259   3.472   8.129  0.0209 -0.4676  0.0628
   38POPC  H13R 5112   6.183   3.392   8.133 -0.6804  0.2220  1.6456
   38POPC  H13S 5113   6.242   3.530   8.223  1.6054 -2.6718  1.8288
   38POPC  C214 5114   6.395   3.391   8.140 -0.0451 -0.8386 -0.6524
   38POPC  H14R 5115   6.486   3.442   8.101 -0.1607  0.3011  0.5013
   38POPC  H14S 5116   6.384   3.293   8.090 -0.9686 -0.6027 -0.9327
   38POPC  C215 5117   6.429   3.349   8.288 -0.2379 -0.7696 -0.4508
   38POPC  H15R 5118   6.515   3.280   8.300  0.4876  0.4610  2.1652
   38POPC  H15S 5119   6.332   3.304   8.320 -0.0549 -1.3035 -0.6461
   38POPC  C216 5120   6.474   3.458   8.381 -0.4819  0.3679  0.0869
   38POPC  H16R 5121   6.395   3.536   8.391 -1.4812 -0.6279  0.2273
   38POPC  H16S 5122   6.565   3.496   8.330 -0.9449  0.2969 -0.8027
   38POPC  C217 5123   6.507   3.425   8.527  0.0244  0.4929  0.2366
   38POPC  H17R 5124   6.544   3.517   8.577  1.0924  0.3821 -0.3064
   38POPC  H17S 5125   6.596   3.360   8.544  1.1144  2.3564  2.2244
   38POPC  C218 5126   6.391   3.363   8.599  0.4352  0.8805  0.2731
   38POPC  H18R 5127   6.305   3.434   8.594  0.0543  0.6902  2.7935
   38POPC  H18S 5128   6.427   3.366   8.705  1.5768 -0.0098 -0.0630
   38POPC  H18T 5129   6.360   3.260   8.574 -1.8491  1.6921 -0.4511
   38POPC   C33 5130   7.013   4.080   7.023  0.3094 -0.3402  0.2639
   38POPC   H3X 5131   7.021   4.190   7.012 -2.2851 -0.2050 -0.9822
   38POPC   H3Y 5132   7.100   4.053   7.087  0.6943 -1.3056 -0.6353
   38POPC   C34 5133   6.877   4.035   7.082 -0.1059 -0.2880  0.1725
   38POPC   H4X 5134   6.883   3.936   7.131 -1.4802  1.3930  4.1067
   38POPC   H4Y 5135   6.793   4.028   7.009  0.6289 -1.2116 -0.6140
   38POPC   C35 5136   6.842   4.125   7.201 -0.0365  0.5774  0.1679
   38POPC   H5X 5137   6.839   4.228   7.161 -0.9100 -0.4200 -2.5598
   38POPC   H5Y 5138   6.929   4.121   7.270 -1.8898  1.4153  2.6936
   38POPC   C36 5139   6.709   4.081   7.262  0.7721  0.3414 -0.3970
   38POPC   H6X 5140   6.727   3.977   7.298  0.7351  0.7559  0.8952
   38POPC   H6Y 5141   6.642   4.076   7.174  1.5456  1.7078 -1.1058
   38POPC   C37 5142   6.653   4.160   7.381 -0.1245 -0.0119  0.0717
   38POPC   H7X 5143   6.558   4.109   7.409 -2.2796  2.5991 -1.9380
   38POPC   H7Y 5144   6.622   4.264   7.358 -0.0837  0.3647  1.6461
   38POPC   C38 5145   6.753   4.176   7.500  0.5362  0.2925 -0.0591
   38POPC   H8X 5146   6.758   4.278   7.544 -2.0242  0.7169 -0.5969
   38POPC   H8Y 5147   6.857   4.160   7.464 -0.0302 -0.0287 -1.6282
   38POPC   C39 5148   6.723   4.079   7.607 -0.1234  0.0895  0.7228
   38POPC   H9X 5149   6.757   3.979   7.573  0.6091  0.7092 -0.4138
   38POPC   H9Y 5150   6.613   4.066   7.619  0.0569 -0.7848  1.5568
   38POPC  C310 5151   6.776   4.112   7.748 -0.3035 -0.7640 -0.0828
   38POPC  H10X 5152   6.718   4.202   7.781 -0.6780 -0.1459 -2.3003
   38POPC  H10Y 5153   6.886   4.120   7.755 -0.4677  0.3898  2.6129
   38POPC  C311 5154   6.747   3.995   7.846  0.0616  0.5106  0.0994
   38POPC  H11X 5155   6.814   3.907   7.832 -1.0737 -0.4181  0.3755
   38POPC  H11Y 5156   6.650   3.945   7.829  1.5301 -2.4144 -0.2605
   38POPC  C312 5157   6.759   4.029   7.999  0.1968  0.0491  0.1522
   38POPC  H12X 5158   6.759   4.139   8.018  1.5098 -0.1017  1.1928
   38POPC  H12Y 5159   6.864   4.004   8.024 -0.1381 -0.3457  1.2247
   38POPC  C313 5160   6.664   3.950   8.086 -0.4568  0.5954  0.2911
   38POPC  H13X 5161   6.669   3.841   8.064 -1.2204  0.7121 -0.5115
   38POPC  H13Y 5162   6.563   3.992   8.065  0.0400  1.8094  0.2668
   38POPC  C314 5163   6.697   3.969   8.236 -0.6290  0.3201  0.0433
   38POPC  H14X 5164   6.659   4.063   8.282  0.0267  0.2626  0.7183
   38POPC  H14Y 5165   6.808   3.972   8.245 -0.6177 -1.6212  1.1425
   38POPC  C315 5166   6.639   3.855   8.324  0.1991  0.0342  0.1679
   38POPC  H15X 5167   6.676   3.864   8.428  0.3320  2.2570 -0.0142
   38POPC  H15Y 5168   6.675   3.758   8.283  0.3950  0.4617 -0.7037
   38POPC  C316 5169   6.488   3.859   8.337 -0.4566  0.2430 -0.3135
   38POPC  H16X 5170   6.439   3.959   8.346 -1.0488  0.1621 -2.1580
   38POPC  H16Y 5171   6.463   3.795   8.424  0.9010  2.3256  1.7252
   38POPC  H16Z 5172   6.445   3.817   8.244  3.3018 -2.0772 -1.2398
   39POPC     N 5173   1.465   1.960   5.638 -0.1767  0.3656 -0.0090
   39POPC   C12 5174   1.593   1.882   5.613  0.3219 -0.0766  0.0420
   39POPC  H12A 5175   1.662   1.950   5.566 -2.7123  0.3915 -4.3771
   39POPC  H12B 5176   1.572   1.808   5.537  3.2821 -0.6293 -0.3536
   39POPC   C13 5177   1.495   2.093   5.696  0.3593 -0.6934  0.3577
   39POPC  H13A 5178   1.566   2.089   5.777  1.8967  1.4294 -0.7900
   39POPC  H13B 5179   1.534   2.167   5.627 -1.7093  1.3361  1.2106
   39POPC  H13C 5180   1.400   2.136   5.726 -0.4753 -2.3447  0.2102
   39POPC   C14 5181   1.391   1.982   5.505  0.1839  0.1991 -1.0055
   39POPC  H14A 5182   1.370   1.899   5.439  2.1508  0.0659 -1.5394
   39POPC  H14B 5183   1.297   2.032   5.520  0.0207 -0.0295 -1.2535
   39POPC  H14C 5184   1.447   2.054   5.447 -0.0032  0.0141 -1.4188
   39POPC   C15 5185   1.373   1.878   5.727 -0.0119 -0.2783  0.2323
   39POPC  H15A 5186   1.268   1.898   5.713 -0.0196 -1.4852 -1.8828
   39POPC  H15B 5187   1.404   1.901   5.828  2.0425  0.4495 -0.5103
   39POPC  H15C 5188   1.384   1.771   5.714  0.1961 -0.4086  1.3967
   39POPC   C11 5189   1.652   1.818   5.733  0.6203  0.0088 -0.4504
   39POPC  H11A 5190   1.759   1.806   5.710  0.2233 -1.7057 -1.5930
   39POPC  H11B 5191   1.602   1.719   5.748 -1.3371  0.9729 -0.1861
   39POPC     P 5192   1.767   1.911   5.960 -0.2327 -0.1638  0.2377
   39POPC   O13 5193   1.727   2.017   6.059 -0.5919 -0.2477  0.2981
   39POPC   O14 5194   1.893   1.936   5.890  0.6140 -0.0844  0.5054
   39POPC   O12 5195   1.647   1.905   5.854 -0.0307 -0.0462  0.3595
   39POPC   O11 5196   1.769   1.771   6.035  0.1767 -0.4222  0.0133
   39POPC    C1 5197   1.644   1.702   6.056 -0.0094  0.6955 -0.3177
   39POPC    HA 5198   1.571   1.709   5.972 -0.2739  0.5492 -0.0995
   39POPC    HB 5199   1.596   1.740   6.149 -0.0710  1.0527 -0.4935
   39POPC    C2 5200   1.669   1.550   6.089 -0.7038  0.2915 -1.0364
   39POPC    HS 5201   1.573   1.496   6.101 -0.7221  0.7676  1.5191
   39POPC   O21 5202   1.742   1.553   6.216 -0.0166  0.1206  0.0786
   39POPC   C21 5203   1.664   1.540   6.329 -0.5472 -0.4105  0.2818
   39POPC   O22 5204   1.542   1.544   6.340 -0.3657  0.0555  0.5099
   39POPC   C22 5205   1.751   1.538   6.459  0.6019  0.2489 -0.1787
   39POPC   H2R 5206   1.844   1.593   6.435  1.1812 -0.1599  1.0343
   39POPC   H2S 5207   1.766   1.429   6.473  3.2249  0.4533 -0.8862
   39POPC    C3 5208   1.751   1.468   5.980  0.0379 -0.1711  0.2753
   39POPC    HX 5209   1.848   1.521   5.970 -0.4942  0.5647 -1.3357
   39POPC    HY 5210   1.696   1.484   5.885  1.8823  1.7814 -0.5426
   39POPC   O31 5211   1.774   1.324   6.004 -0.2437 -0.8783 -0.6400
   39POPC   C31 5212   1.660   1.258   5.981 -0.4122  0.2051  0.5891
   39POPC   O32 5213   1.557   1.302   5.934 -0.2481  0.1501  0.0265
   39POPC   C32 5214   1.679   1.109   6.021  0.3399  0.1033 -0.1756
   39POPC   H2X 5215   1.586   1.053   5.998 -0.4234  0.0558  2.6465
   39POPC   H2Y 5216   1.769   1.073   5.966  0.6931  0.1059  0.4002
   39POPC   C23 5217   1.675   1.603   6.580  0.4634  0.0729 -0.4301
   39POPC   H3R 5218   1.576   1.555   6.595 -0.1495  1.3290 -0.3202
   39POPC   H3S 5219   1.653   1.707   6.547  1.1873  0.8780  1.5131
   39POPC   C24 5220   1.751   1.598   6.711  0.2205 -0.0892  0.1525
   39POPC   H4R 5221   1.855   1.633   6.696 -0.1660  0.6319 -1.0135
   39POPC   H4S 5222   1.754   1.494   6.749  0.1967  0.0871  0.6437
   39POPC   C25 5223   1.701   1.678   6.831 -1.0105  0.4064  0.5278
   39POPC   H5R 5224   1.599   1.656   6.869 -2.0390  2.5511 -0.7879
   39POPC   H5S 5225   1.703   1.786   6.807 -0.9919  0.5095  0.9911
   39POPC   C26 5226   1.800   1.695   6.950 -0.0024  0.2126 -0.0457
   39POPC   H6R 5227   1.897   1.733   6.912  0.0097  0.4388  0.2133
   39POPC   H6S 5228   1.818   1.592   6.988 -2.6398 -1.3326 -2.4839
   39POPC   C27 5229   1.738   1.789   7.055  0.1262 -0.1471  0.2376
   39POPC   H7R 5230   1.630   1.772   7.074  0.1649 -1.6601 -0.6825
   39POPC   H7S 5231   1.744   1.889   7.007 -1.7026 -0.1407 -0.0324
   39POPC   C28 5232   1.803   1.785   7.190 -0.4224 -0.4569  0.0379
   39POPC   H8R 5233   1.793   1.878   7.251 -0.6383  1.9553 -3.3936
   39POPC   H8S 5234   1.911   1.790   7.165 -0.3902 -0.9098  0.0874
   39POPC   C29 5235   1.788   1.654   7.261  0.4031  0.4053  1.0297
   39POPC   H91 5236   1.746   1.574   7.198  1.0471  1.4556 -0.7885
   39POPC  C210 5237   1.829   1.623   7.384  0.5147  0.1826  0.6812
   39POPC  H101 5238   1.801   1.526   7.428  0.2497 -0.3090 -0.5421
   39POPC  C211 5239   1.907   1.710   7.478 -0.2370 -0.1604 -0.2718
   39POPC  H11R 5240   1.901   1.816   7.447 -0.4117 -0.0930 -0.0207
   39POPC  H11S 5241   2.014   1.681   7.475 -0.6489 -1.7946 -0.4494
   39POPC  C212 5242   1.862   1.704   7.622  0.2036  0.1682 -0.1010
   39POPC  H12R 5243   1.752   1.718   7.632  0.0974 -0.6745  0.0228
   39POPC  H12S 5244   1.907   1.794   7.670  1.0062  1.0448 -2.3723
   39POPC  C213 5245   1.895   1.568   7.697 -0.2348 -0.1013  0.2564
   39POPC  H13R 5246   1.982   1.516   7.652  0.9918  0.1333  2.2119
   39POPC  H13S 5247   1.803   1.507   7.691 -0.4967  0.2992  0.1732
   39POPC  C214 5248   1.920   1.586   7.849  0.1705  0.1713  0.2940
   39POPC  H14R 5249   1.820   1.577   7.897  0.5185  0.2198  1.0317
   39POPC  H14S 5250   1.970   1.683   7.865  0.2794 -0.0706  1.4581
   39POPC  C215 5251   1.997   1.468   7.914 -0.4915 -0.1549  0.1854
   39POPC  H15R 5252   2.101   1.459   7.876 -0.3371  1.0432  0.2875
   39POPC  H15S 5253   1.947   1.372   7.888 -1.4001  0.3870 -0.1070
   39POPC  C216 5254   1.994   1.488   8.067 -0.0927 -0.1300  0.9897
   39POPC  H16R 5255   1.966   1.392   8.115 -1.6502 -0.7750 -1.0363
   39POPC  H16S 5256   1.920   1.566   8.096  0.2446  1.5663 -2.1821
   39POPC  C217 5257   2.126   1.537   8.129 -0.4960 -0.4915  0.2093
   39POPC  H17R 5258   2.154   1.630   8.076 -1.2013 -1.7998 -2.6757
   39POPC  H17S 5259   2.204   1.460   8.112 -1.5787 -1.4625 -0.5433
   39POPC  C218 5260   2.119   1.573   8.275 -0.3767  0.0813  0.2492
   39POPC  H18R 5261   2.223   1.599   8.304  1.0027 -1.7660 -2.5655
   39POPC  H18S 5262   2.091   1.485   8.336  2.4791 -2.2985 -1.5909
   39POPC  H18T 5263   2.056   1.663   8.294 -1.7955 -0.0592 -3.0988
   39POPC   C33 5264   1.699   1.101   6.170  0.2991  0.0228 -0.2426
   39POPC   H3X 5265   1.780   1.167   6.207  1.4120 -2.5496  2.2456
   39POPC   H3Y 5266   1.729   1.001   6.208 -1.0247 -1.1280 -2.0610
   39POPC   C34 5267   1.575   1.137   6.261  0.2991 -0.2645  0.2287
   39POPC   H4X 5268   1.497   1.059   6.251 -0.8749  0.9600 -0.5070
   39POPC   H4Y 5269   1.522   1.229   6.228 -1.5740 -1.3563  0.0583
   39POPC   C35 5270   1.603   1.142   6.414 -0.1271 -0.0936  0.2597
   39POPC   H5X 5271   1.547   1.224   6.464  0.1178 -1.2279  2.4866
   39POPC   H5Y 5272   1.709   1.175   6.426 -0.5843  1.1640  1.0057
   39POPC   C36 5273   1.565   1.013   6.497 -0.4030  0.0146 -0.6438
   39POPC   H6X 5274   1.607   0.937   6.427  2.5469 -1.3200  2.3181
   39POPC   H6Y 5275   1.455   1.007   6.509 -0.3112 -0.0217  0.2657
   39POPC   C37 5276   1.651   0.995   6.622 -0.5412  0.6484  0.2010
   39POPC   H7X 5277   1.756   1.027   6.609 -0.1593 -1.1602 -1.6089
   39POPC   H7Y 5278   1.668   0.886   6.640 -1.8353  0.6257  1.5206
   39POPC   C38 5279   1.591   1.057   6.747 -0.4181 -0.2363 -0.6489
   39POPC   H8X 5280   1.492   1.014   6.775  1.0156 -1.7161  2.7401
   39POPC   H8Y 5281   1.585   1.168   6.736  1.9053  0.2467  1.7681
   39POPC   C39 5282   1.680   1.031   6.872 -0.3249  0.1994 -0.4709
   39POPC   H9X 5283   1.782   1.073   6.859 -0.1415  0.4513  1.4808
   39POPC   H9Y 5284   1.694   0.921   6.882 -0.3753  0.1483 -0.9066
   39POPC  C310 5285   1.622   1.092   7.003  0.3074  0.0696  0.4237
   39POPC  H10X 5286   1.514   1.072   7.020  0.2674  0.9478  1.3349
   39POPC  H10Y 5287   1.617   1.203   6.996 -0.3558  0.2749  3.0967
   39POPC  C311 5288   1.697   1.051   7.128  0.0454  0.1776 -0.2222
   39POPC  H11X 5289   1.807   1.063   7.122 -0.2347  3.1648 -0.9677
   39POPC  H11Y 5290   1.676   0.944   7.148  1.9011  0.1004  1.7025
   39POPC  C312 5291   1.643   1.126   7.245  0.8295  0.3472 -0.2909
   39POPC  H12X 5292   1.535   1.112   7.262  0.8658  0.4954  0.0655
   39POPC  H12Y 5293   1.662   1.233   7.224  0.7745  0.5942  0.8409
   39POPC  C313 5294   1.727   1.087   7.367  0.2575 -0.6181 -0.4935
   39POPC  H13X 5295   1.826   1.059   7.325  0.0838  1.0409 -2.1458
   39POPC  H13Y 5296   1.693   0.993   7.415  1.8184 -0.9891 -0.0622
   39POPC  C314 5297   1.745   1.185   7.484 -0.0049 -0.4877 -0.4004
   39POPC  H14X 5298   1.648   1.212   7.531  0.9345  0.7151  0.9708
   39POPC  H14Y 5299   1.772   1.283   7.438 -0.6020 -0.3619 -0.4857
   39POPC  C315 5300   1.833   1.126   7.596  0.2103  0.1284 -0.3721
   39POPC  H15X 5301   1.803   1.021   7.617 -0.6500  0.2121 -1.1450
   39POPC  H15Y 5302   1.811   1.173   7.694 -0.2056 -0.8242  0.0093
   39POPC  C316 5303   1.981   1.134   7.561  0.7610 -0.1308 -0.0175
   39POPC  H16X 5304   2.035   1.127   7.657  0.5294 -1.1297  0.0542
   39POPC  H16Y 5305   2.012   1.233   7.522 -0.7589 -0.3449 -1.9626
   39POPC  H16Z 5306   2.011   1.054   7.489 -0.0688 -2.5733  2.1914
   40POPC     N 5307   3.581   6.265   6.068 -0.1829 -0.5472 -0.3585
   40POPC   C12 5308   3.459   6.184   6.050  0.3524  0.0731  0.1535
   40POPC  H12A 5309   3.477   6.091   6.102  0.2413 -1.0986 -1.7930
   40POPC  H12B 5310   3.445   6.157   5.946 -0.2398  1.0141 -0.0251
   40POPC   C13 5311   3.641   6.279   6.205 -0.5448 -0.2309  0.1676
   40POPC  H13A 5312   3.735   6.330   6.192  0.0002 -1.0520  0.7842
   40POPC  H13B 5313   3.565   6.318   6.272  0.0769  0.8875  0.2505
   40POPC  H13C 5314   3.675   6.186   6.247  0.1371  0.3132  0.8536
   40POPC   C14 5315   3.693   6.199   5.988  0.1261  0.0792 -0.4019
   40POPC  H14A 5316   3.784   6.230   6.036 -0.4629  0.8929  0.2009
   40POPC  H14B 5317   3.696   6.091   5.999 -0.8004 -0.0571 -1.3368
   40POPC  H14C 5318   3.707   6.229   5.885  1.7057 -0.9465 -0.5343
   40POPC   C15 5319   3.565   6.407   6.008 -0.0838  0.1577 -0.5284
   40POPC  H15A 5320   3.534   6.398   5.905  0.6440  1.1986 -0.8551
   40POPC  H15B 5321   3.661   6.456   6.021 -0.2663  0.5356 -0.5866
   40POPC  H15C 5322   3.490   6.463   6.063  1.0867  1.6272 -0.3465
   40POPC   C11 5323   3.325   6.254   6.096 -0.0280  0.2491 -0.4730
   40POPC  H11A 5324   3.244   6.179   6.083 -0.5069  0.0764  2.7077
   40POPC  H11B 5325   3.304   6.347   6.038 -1.5126  1.4073  1.7484
   40POPC     P 5326   3.295   6.206   6.348 -0.2474  0.3085  0.6913
   40POPC   O13 5327   3.418   6.127   6.386 -0.2961  0.2222 -0.1358
   40POPC   O14 5328   3.172   6.121   6.331 -0.2245  0.3556 -0.5069
   40POPC   O12 5329   3.331   6.292   6.226  0.4786 -0.5971 -0.2721
   40POPC   O11 5330   3.261   6.312   6.459  0.4045  0.6763  0.2366
   40POPC    C1 5331   3.364   6.374   6.531 -0.2494  0.5924 -0.6938
   40POPC    HA 5332   3.332   6.478   6.556 -0.6817  0.3255 -0.0995
   40POPC    HB 5333   3.454   6.392   6.468  1.3750  0.0880  1.3650
   40POPC    C2 5334   3.421   6.289   6.656 -0.6185  0.4217 -0.2258
   40POPC    HS 5335   3.472   6.204   6.606  0.6014  1.0885 -0.1706
   40POPC   O21 5336   3.307   6.255   6.739 -0.5268  0.5142 -0.1364
   40POPC   C21 5337   3.309   6.119   6.770  0.0039 -0.1235 -0.0411
   40POPC   O22 5338   3.396   6.045   6.741 -0.0270  0.3606 -0.2888
   40POPC   C22 5339   3.199   6.092   6.871 -0.2150 -0.3625 -0.5987
   40POPC   H2R 5340   3.125   6.026   6.820  0.2340 -1.8423  0.5866
   40POPC   H2S 5341   3.154   6.190   6.901  1.5142  1.4088 -3.3369
   40POPC    C3 5342   3.517   6.381   6.739 -0.4345  1.0956 -0.1870
   40POPC    HX 5343   3.457   6.475   6.739 -1.5611  0.4177  0.8898
   40POPC    HY 5344   3.612   6.392   6.684 -0.8023  3.1009 -0.5101
   40POPC   O31 5345   3.543   6.338   6.873  0.9224  0.0675 -0.1639
   40POPC   C31 5346   3.565   6.437   6.957 -0.6121  0.1976  0.1663
   40POPC   O32 5347   3.582   6.557   6.935  0.0265  0.2044 -0.1399
   40POPC   C32 5348   3.598   6.361   7.091  0.1447  0.4535  0.4157
   40POPC   H2X 5349   3.681   6.291   7.067  1.3891  2.1560 -0.4217
   40POPC   H2Y 5350   3.513   6.292   7.110  0.3087  0.2359  0.3588
   40POPC   C23 5351   3.256   6.013   6.980  0.4294  0.6763 -0.2683
   40POPC   H3R 5352   3.316   5.924   6.950  0.4355 -0.4372  2.7015
   40POPC   H3S 5353   3.168   5.968   7.030  1.9333 -0.9830  1.0127
   40POPC   C24 5354   3.327   6.101   7.089 -0.3623  0.2099  0.5644
   40POPC   H4R 5355   3.286   6.204   7.093  2.1685  1.3947 -1.3554
   40POPC   H4S 5356   3.424   6.122   7.039 -1.0559  1.0518 -0.4538
   40POPC   C25 5357   3.324   6.044   7.231 -0.4403  0.4980  0.0305
   40POPC   H5R 5358   3.394   5.958   7.239 -0.5472  0.5255  1.5165
   40POPC   H5S 5359   3.224   6.003   7.257  0.8664 -1.7895  1.8765
   40POPC   C26 5360   3.377   6.143   7.341 -0.0976  0.1227 -0.4590
   40POPC   H6R 5361   3.329   6.239   7.313  0.1652  1.1462  2.3043
   40POPC   H6S 5362   3.485   6.161   7.325 -0.7696  3.3817 -2.1983
   40POPC   C27 5363   3.334   6.095   7.480 -0.2627  0.1969  0.4373
   40POPC   H7R 5364   3.393   6.005   7.508  0.6662  0.7618  0.3605
   40POPC   H7S 5365   3.230   6.058   7.472 -0.4282  0.7454  0.0253
   40POPC   C28 5366   3.338   6.208   7.584 -0.2790  0.3109  0.4989
   40POPC   H8R 5367   3.314   6.304   7.532  1.3735  0.8025  0.5800
   40POPC   H8S 5368   3.440   6.222   7.627 -0.2245 -0.6396  0.6892
   40POPC   C29 5369   3.223   6.193   7.682  0.3931  0.3413  0.5495
   40POPC   H91 5370   3.125   6.227   7.648  1.0210  0.8388 -0.8606
   40POPC  C210 5371   3.233   6.144   7.806 -0.7145 -0.2466  0.1243
   40POPC  H101 5372   3.150   6.142   7.879 -0.8446  0.3824 -0.0001
   40POPC  C211 5373   3.370   6.104   7.865  0.1097  0.1688  0.2698
   40POPC  H11R 5374   3.444   6.076   7.787  0.9506  0.2657  1.0162
   40POPC  H11S 5375   3.359   6.016   7.932 -0.0282 -1.2053 -1.4913
   40POPC  C212 5376   3.433   6.219   7.948 -0.0389  0.0049 -0.0989
   40POPC  H12R 5377   3.453   6.318   7.902  1.9852  0.8054  2.2309
   40POPC  H12S 5378   3.534   6.187   7.982  0.5406  1.0134 -0.7840
   40POPC  C213 5379   3.348   6.266   8.071 -0.3434  0.0006 -0.3725
   40POPC  H13R 5380   3.315   6.183   8.136  0.0585 -1.3459 -1.8344
   40POPC  H13S 5381   3.250   6.301   8.034 -1.6711 -0.9521  2.0355
   40POPC  C214 5382   3.425   6.376   8.148  0.1827 -0.2090 -0.1844
   40POPC  H14R 5383   3.430   6.467   8.084  2.8635 -1.3429 -1.8043
   40POPC  H14S 5384   3.533   6.350   8.155  0.6493  1.7265  0.4438
   40POPC  C215 5385   3.369   6.425   8.286 -0.7226  0.0116  0.3000
   40POPC  H15R 5386   3.374   6.337   8.353  0.3056  0.7004  1.1782
   40POPC  H15S 5387   3.262   6.452   8.278 -1.0207 -0.8670  1.1513
   40POPC  C216 5388   3.462   6.533   8.335  1.1681 -0.4470 -0.2632
   40POPC  H16R 5389   3.439   6.619   8.269 -0.4603  0.2724  1.1502
   40POPC  H16S 5390   3.566   6.495   8.332  0.2711 -3.1102  0.2824
   40POPC  C217 5391   3.426   6.584   8.473 -0.7918  0.4602 -0.2164
   40POPC  H17R 5392   3.403   6.498   8.540  1.8001  1.3285  1.9631
   40POPC  H17S 5393   3.330   6.641   8.480 -1.4336 -0.6883  0.8036
   40POPC  C218 5394   3.542   6.657   8.547  0.5658 -0.8655 -0.5579
   40POPC  H18R 5395   3.510   6.687   8.649  0.4978  3.3165 -1.6040
   40POPC  H18S 5396   3.573   6.751   8.496  0.1229  0.1313  0.9624
   40POPC  H18T 5397   3.639   6.607   8.567  1.3390  0.8307  0.1588
   40POPC   C33 5398   3.639   6.451   7.201 -0.4426  0.6651 -0.1545
   40POPC   H3X 5399   3.550   6.511   7.230 -0.5523 -0.6660  2.5332
   40POPC   H3Y 5400   3.715   6.517   7.153 -0.6459  0.2706 -1.0270
   40POPC   C34 5401   3.702   6.372   7.311 -0.7212  0.5269 -0.1686
   40POPC   H4X 5402   3.790   6.316   7.272 -0.1673  0.5026  1.0712
   40POPC   H4Y 5403   3.636   6.292   7.350  1.1263 -0.3097  1.4605
   40POPC   C35 5404   3.767   6.440   7.434  0.1490 -0.2214  1.1569
   40POPC   H5X 5405   3.818   6.533   7.399 -1.4599  0.6387  0.9698
   40POPC   H5Y 5406   3.841   6.381   7.491  1.3763  1.5784  1.5299
   40POPC   C36 5407   3.665   6.474   7.542 -0.3258 -0.6515 -0.1042
   40POPC   H6X 5408   3.589   6.394   7.555 -1.8878  0.8143  0.1511
   40POPC   H6Y 5409   3.605   6.564   7.518 -2.2924 -1.3279  1.9176
   40POPC   C37 5410   3.726   6.502   7.675  0.9214  0.7313 -0.0012
   40POPC   H7X 5411   3.656   6.573   7.725  0.6533  1.1453 -0.9494
   40POPC   H7Y 5412   3.825   6.550   7.658  1.1234  1.1631  2.0503
   40POPC   C38 5413   3.744   6.369   7.752 -0.6225  0.4456  0.0147
   40POPC   H8X 5414   3.795   6.293   7.690 -0.7290  2.0838 -2.2191
   40POPC   H8Y 5415   3.648   6.321   7.781  0.6884 -0.7597  2.7608
   40POPC   C39 5416   3.822   6.394   7.881 -0.1962 -0.3648 -0.3596
   40POPC   H9X 5417   3.776   6.471   7.947 -0.3721 -0.2437 -0.6222
   40POPC   H9Y 5418   3.925   6.431   7.861 -0.3700  0.5580  0.3969
   40POPC  C310 5419   3.834   6.260   7.965 -0.6002 -0.3910  0.1008
   40POPC  H10X 5420   3.870   6.171   7.908 -0.7616 -1.0853  1.0610
   40POPC  H10Y 5421   3.731   6.245   8.003 -0.6874 -0.8616 -0.3086
   40POPC  C311 5422   3.932   6.292   8.083  0.1268 -0.3838 -0.9822
   40POPC  H11X 5423   3.890   6.380   8.136  3.2094  0.4854  0.2602
   40POPC  H11Y 5424   4.032   6.321   8.043  0.5010  1.2798  0.9899
   40POPC  C312 5425   3.950   6.184   8.191  0.0322  0.4011 -0.1922
   40POPC  H12X 5426   3.967   6.087   8.141  0.3622 -0.0823  0.8316
   40POPC  H12Y 5427   3.853   6.177   8.245  0.0673 -1.6068 -0.3389
   40POPC  C313 5428   4.068   6.220   8.278  0.3502 -0.0085  0.5276
   40POPC  H13X 5429   4.049   6.316   8.331  1.1410  0.9271 -0.8302
   40POPC  H13Y 5430   4.157   6.227   8.212  1.5451 -0.8215  1.9935
   40POPC  C314 5431   4.080   6.102   8.367 -0.0694  0.3294  0.3732
   40POPC  H14X 5432   4.104   6.008   8.313 -2.7233 -1.0948  1.4558
   40POPC  H14Y 5433   3.984   6.074   8.417 -1.6082  0.2857 -2.4302
   40POPC  C315 5434   4.170   6.121   8.494 -0.5713  0.2685  0.5454
   40POPC  H15X 5435   4.131   6.201   8.561  0.5996  1.5267 -0.2193
   40POPC  H15Y 5436   4.273   6.151   8.463  0.9948 -1.3998  3.6383
   40POPC  C316 5437   4.187   5.992   8.585 -0.5196  0.7011 -0.0741
   40POPC  H16X 5438   4.202   5.901   8.523  0.1927 -0.1566  1.3136
   40POPC  H16Y 5439   4.102   5.988   8.658 -1.0707  2.0619 -0.6067
   40POPC  H16Z 5440   4.283   6.004   8.639 -0.0505 -0.7458 -0.5248
   41CHL1    C3 5441   4.016   1.734  10.113  0.4890 -0.0676 -1.0029
   41CHL1    H3 5442   3.998   1.842  10.093  0.2379 -0.6603 -4.6685
   41CHL1    O3 5443   3.983   1.714  10.247  0.4090  0.0274 -0.5114
   41CHL1   H3' 5444   4.030   1.632  10.264  0.1887  0.1197  0.5825
   41CHL1    C4 5445   3.935   1.646  10.027  0.0960  0.0104 -0.5915
   41CHL1   H4A 5446   3.953   1.541  10.057 -2.2869 -0.2761  0.0797
   41CHL1   H4B 5447   3.826   1.666  10.036  0.4168  1.4314  0.7070
   41CHL1    C5 5448   3.974   1.649   9.881  0.1081 -0.1687 -0.1018
   41CHL1    C6 5449   3.882   1.681   9.788  0.2108  0.0592 -0.1954
   41CHL1    H6 5450   3.776   1.696   9.814  0.4241  1.6739 -0.1682
   41CHL1    C7 5451   3.913   1.685   9.641 -0.5825  0.2258  0.6290
   41CHL1   H7A 5452   3.835   1.646   9.571 -0.5584 -0.4833  0.9835
   41CHL1   H7B 5453   3.924   1.794   9.625  1.0426  0.1478  1.0069
   41CHL1    C8 5454   4.046   1.620   9.600 -1.1756  0.1220 -0.3871
   41CHL1    H8 5455   4.045   1.510   9.618  0.0349  0.1088 -0.3136
   41CHL1   C14 5456   4.084   1.660   9.460  0.1186  0.0540  0.3731
   41CHL1   H14 5457   4.101   1.769   9.449 -0.8930  0.2118  0.2668
   41CHL1   C15 5458   3.984   1.631   9.351  0.0479 -0.1030 -0.4384
   41CHL1  H15A 5459   3.926   1.537   9.363 -0.8000  0.5669  0.9660
   41CHL1  H15B 5460   3.909   1.711   9.336 -0.9112 -0.8960 -0.0262
   41CHL1   C16 5461   4.066   1.626   9.226  0.3205  0.7073  0.4482
   41CHL1  H16A 5462   4.044   1.529   9.175  1.3785  0.3873  0.5930
   41CHL1  H16B 5463   4.044   1.705   9.151 -1.3529 -0.0584  0.0714
   41CHL1   C17 5464   4.214   1.641   9.268 -0.7296  0.0046 -0.5727
   41CHL1   H17 5465   4.236   1.749   9.266  2.6211 -0.5848 -0.7379
   41CHL1   C13 5466   4.220   1.591   9.416 -0.1616  0.3371 -0.7829
   41CHL1   C18 5467   4.217   1.438   9.422 -0.2116 -0.4692 -0.1765
   41CHL1  H18A 5468   4.191   1.394   9.521 -0.4452  0.0880  0.0138
   41CHL1  H18B 5469   4.160   1.387   9.341  0.1435 -0.5299 -0.3898
   41CHL1  H18C 5470   4.321   1.403   9.408 -0.2193 -0.1528 -1.0846
   41CHL1   C12 5471   4.326   1.654   9.503  0.0533  0.3447 -0.2036
   41CHL1  H12A 5472   4.425   1.613   9.476  0.3237  1.5310 -1.0761
   41CHL1  H12B 5473   4.319   1.763   9.481  0.8216  0.4789  0.2016
   41CHL1   C11 5474   4.301   1.622   9.650  0.1789  0.3169 -0.9297
   41CHL1  H11A 5475   4.332   1.518   9.672  1.6716  1.1365  1.1318
   41CHL1  H11B 5476   4.368   1.686   9.711  0.8917  1.0133 -2.4105
   41CHL1    C9 5477   4.159   1.660   9.698 -0.0627  0.2912 -0.3745
   41CHL1    H9 5478   4.153   1.771   9.695 -1.9473  0.2409  0.2005
   41CHL1   C10 5479   4.123   1.638   9.853 -0.2910 -0.0907 -0.6187
   41CHL1   C19 5480   4.142   1.488   9.881 -0.0940  0.1466 -0.5238
   41CHL1  H19A 5481   4.074   1.421   9.825 -0.1630 -0.1071 -0.1408
   41CHL1  H19B 5482   4.243   1.454   9.850  0.4570  1.8055 -0.6670
   41CHL1  H19C 5483   4.132   1.464   9.989 -0.9201 -0.0756 -0.6419
   41CHL1    C1 5484   4.203   1.736   9.935  0.9080  0.9970  0.0605
   41CHL1   H1A 5485   4.312   1.722   9.917  1.1141  0.8360  1.3197
   41CHL1   H1B 5486   4.183   1.837   9.895  2.4973 -0.0376 -3.8762
   41CHL1    C2 5487   4.170   1.719  10.086  0.4654  0.1906 -0.2282
   41CHL1   H2A 5488   4.233   1.784  10.150  0.8013 -0.1572 -0.2016
   41CHL1   H2B 5489   4.192   1.615  10.117 -0.7889 -0.0852 -0.2154
   41CHL1   C20 5490   4.310   1.573   9.161  0.1077  0.3475 -0.6403
   41CHL1   H20 5491   4.280   1.466   9.158  2.8753 -0.6378  1.8709
   41CHL1   C21 5492   4.457   1.573   9.214  0.6296 -0.1358  1.0998
   41CHL1  H21A 5493   4.519   1.515   9.142 -1.0591  1.8146 -2.2085
   41CHL1  H21B 5494   4.469   1.516   9.308 -0.5427  0.7129  1.7840
   41CHL1  H21C 5495   4.497   1.675   9.233 -1.0085  0.5833  0.8788
   41CHL1   C22 5496   4.304   1.637   9.015 -1.0516  0.4914  0.1199
   41CHL1  H22A 5497   4.201   1.641   8.972 -1.0501  1.2736  0.1868
   41CHL1  H22B 5498   4.337   1.743   9.011  0.2797  0.0667 -0.9991
   41CHL1   C23 5499   4.401   1.565   8.922 -0.7263 -0.1487 -0.4819
   41CHL1  H23A 5500   4.500   1.582   8.970 -3.0565  1.1075  4.5582
   41CHL1  H23B 5501   4.385   1.456   8.937 -1.3088  0.1982  1.7483
   41CHL1   C24 5502   4.384   1.604   8.775 -0.0821 -0.4641  0.0195
   41CHL1  H24A 5503   4.289   1.659   8.758  0.1638 -0.0063  0.1087
   41CHL1  H24B 5504   4.448   1.691   8.748 -1.1055  0.9780  1.9180
   41CHL1   C25 5505   4.403   1.489   8.674  0.1094  0.0486 -1.0492
   41CHL1   H25 5506   4.500   1.439   8.695 -0.9171 -1.3059  0.7506
   41CHL1   C26 5507   4.293   1.380   8.693 -0.1480 -0.3172 -0.1442
   41CHL1  H26A 5508   4.290   1.346   8.799 -0.3493  0.2210  0.0266
   41CHL1  H26B 5509   4.190   1.412   8.667 -0.2791 -2.2609 -2.4243
   41CHL1  H26C 5510   4.327   1.295   8.629  1.6312  1.1020 -1.2032
   41CHL1   C27 5511   4.392   1.547   8.535 -0.4626  0.0956  0.2533
   41CHL1  H27A 5512   4.477   1.612   8.504 -1.8820  1.3145 -1.3201
   41CHL1  H27B 5513   4.383   1.464   8.461 -1.9090  0.1177  0.3594
   41CHL1  H27C 5514   4.303   1.611   8.515 -1.0326 -1.1783 -1.4916
   42CHL1    C3 5515   5.175   1.398   9.875  0.4223  0.1615 -0.0036
   42CHL1    H3 5516   5.200   1.489   9.817 -0.5118  0.4188 -0.0062
   42CHL1    O3 5517   5.101   1.413   9.996 -0.3865  0.3436 -0.4470
   42CHL1   H3' 5518   5.013   1.389   9.967 -1.1522  0.8891  1.2900
   42CHL1    C4 5519   5.094   1.303   9.782 -0.5970 -0.0476  0.3596
   42CHL1   H4A 5520   5.069   1.208   9.833 -1.0928 -0.3791 -0.4726
   42CHL1   H4B 5521   5.002   1.364   9.769 -1.6283 -1.6534 -0.0851
   42CHL1    C5 5522   5.168   1.273   9.652 -0.1191 -0.2860  0.8678
   42CHL1    C6 5523   5.115   1.300   9.533 -0.6486 -0.3750 -0.3433
   42CHL1    H6 5524   5.014   1.343   9.537 -0.5558 -0.1503 -0.4623
   42CHL1    C7 5525   5.192   1.251   9.411  0.5835  0.4101  0.3992
   42CHL1   H7A 5526   5.125   1.188   9.350 -0.0027  0.6049  0.8331
   42CHL1   H7B 5527   5.226   1.337   9.349 -0.0578  0.6392  0.3604
   42CHL1    C8 5528   5.313   1.156   9.433 -0.2434 -0.4668  0.4830
   42CHL1    H8 5529   5.266   1.056   9.447 -1.8937 -0.1137 -1.8382
   42CHL1   C14 5530   5.398   1.139   9.306 -0.0394 -0.0836  0.0850
   42CHL1   H14 5531   5.438   1.242   9.296 -2.0451  1.3605  4.2132
   42CHL1   C15 5532   5.324   1.090   9.178 -0.1600  0.1476  0.7961
   42CHL1  H15A 5533   5.248   1.013   9.203 -0.2474  0.1066  0.4099
   42CHL1  H15B 5534   5.283   1.179   9.125  0.9668  0.2325  0.0218
   42CHL1   C16 5535   5.436   1.026   9.091  0.2966 -0.1904  0.3582
   42CHL1  H16A 5536   5.420   0.918   9.072 -0.4249 -0.6542  3.2472
   42CHL1  H16B 5537   5.452   1.078   8.994  0.3422 -0.3555  0.2758
   42CHL1   C17 5538   5.567   1.039   9.184 -0.0490  0.5023 -0.3704
   42CHL1   H17 5539   5.596   1.143   9.158  0.9144  0.1322 -0.8345
   42CHL1   C13 5540   5.510   1.045   9.331  0.1159  0.1784  0.6532
   42CHL1   C18 5541   5.465   0.898   9.369  0.0959 -0.1006  0.9690
   42CHL1  H18A 5542   5.413   0.884   9.466 -0.7577  0.0449  0.5415
   42CHL1  H18B 5543   5.404   0.846   9.291  0.2456 -1.0349  1.4561
   42CHL1  H18C 5544   5.562   0.844   9.381  1.0507  1.5449  0.8891
   42CHL1   C12 5545   5.606   1.101   9.441  0.3941 -0.0142 -0.7765
   42CHL1  H12A 5546   5.696   1.037   9.447  0.0099 -0.5272 -0.4842
   42CHL1  H12B 5547   5.640   1.203   9.411 -1.1835  0.2690 -1.7709
   42CHL1   C11 5548   5.520   1.118   9.569 -0.0381 -0.4029 -0.1956
   42CHL1  H11A 5549   5.490   1.022   9.619 -2.1329 -0.5226 -1.5568
   42CHL1  H11B 5550   5.586   1.175   9.637 -0.4253 -0.3074  0.1065
   42CHL1    C9 5551   5.399   1.207   9.547  0.5306  0.3738  1.0245
   42CHL1    H9 5552   5.428   1.311   9.521 -1.6094  0.4270 -1.6805
   42CHL1   C10 5553   5.311   1.221   9.683  0.2111 -0.1092  0.2786
   42CHL1   C19 5554   5.307   1.087   9.759 -0.1762 -0.1048 -0.3195
   42CHL1  H19A 5555   5.291   1.010   9.680  1.0793 -1.1386  0.3802
   42CHL1  H19B 5556   5.405   1.057   9.800  0.4113  0.7524 -1.0593
   42CHL1  H19C 5557   5.230   1.082   9.839 -0.2252  0.6340 -0.3167
   42CHL1    C1 5558   5.391   1.320   9.775  0.1134  0.1878 -0.2621
   42CHL1   H1A 5559   5.483   1.270   9.814  0.3494  0.1154 -0.9014
   42CHL1   H1B 5560   5.404   1.417   9.724 -1.7906  1.4555  1.5107
   42CHL1    C2 5561   5.323   1.349   9.910  0.3540 -0.0295 -0.0368
   42CHL1   H2A 5562   5.378   1.437   9.949 -0.2460  1.1651 -1.7933
   42CHL1   H2B 5563   5.331   1.260   9.977  2.8707 -0.1641 -0.4196
   42CHL1   C20 5564   5.686   0.944   9.149 -0.6251 -0.9545  0.1248
   42CHL1   H20 5565   5.745   0.942   9.243 -1.0786 -0.2674  0.4373
   42CHL1   C21 5566   5.765   1.021   9.043 -0.2722 -0.5101  0.1919
   42CHL1  H21A 5567   5.806   1.118   9.077  0.7049  0.0730 -2.4028
   42CHL1  H21B 5568   5.707   1.046   8.952 -2.3024  3.4122  2.3452
   42CHL1  H21C 5569   5.856   0.963   9.013  0.6342  1.3760 -0.8547
   42CHL1   C22 5570   5.663   0.794   9.117 -0.1560 -0.3181  0.1510
   42CHL1  H22A 5571   5.584   0.744   9.177  1.6616 -1.2322  1.8943
   42CHL1  H22B 5572   5.632   0.784   9.011 -1.3435  1.2727  0.3099
   42CHL1   C23 5573   5.792   0.711   9.126 -0.6381  0.0516 -0.2820
   42CHL1  H23A 5574   5.845   0.732   9.031  0.2195  0.5238  0.2919
   42CHL1  H23B 5575   5.857   0.746   9.209 -1.0730  2.6230 -0.9219
   42CHL1   C24 5576   5.763   0.565   9.140  0.2868  0.8170 -0.1506
   42CHL1  H24A 5577   5.719   0.553   9.242 -1.3977 -2.7471 -1.1288
   42CHL1  H24B 5578   5.702   0.541   9.051 -1.7709  0.2278  1.3424
   42CHL1   C25 5579   5.891   0.473   9.132  0.0923 -0.5052  0.1520
   42CHL1   H25 5580   5.936   0.499   9.034 -1.8092  0.0812 -0.6188
   42CHL1   C26 5581   5.984   0.500   9.255  0.9331 -0.4627  0.9809
   42CHL1  H26A 5582   6.084   0.450   9.257  0.0729 -2.2549  1.2996
   42CHL1  H26B 5583   6.011   0.607   9.240  0.5276 -0.4875  0.0402
   42CHL1  H26C 5584   5.931   0.469   9.348 -1.5901 -1.3798 -0.6627
   42CHL1   C27 5585   5.853   0.334   9.124 -0.1637  0.4478  0.3638
   42CHL1  H27A 5586   5.783   0.297   9.202 -2.6464 -2.8847 -3.1022
   42CHL1  H27B 5587   5.795   0.309   9.033  1.0341  0.1427 -0.3381
   42CHL1  H27C 5588   5.931   0.255   9.126 -0.0310  0.5307 -0.8418
   43CHL1    C3 5589   6.242   1.818   9.966  0.9251  0.8828  0.2944
   43CHL1    H3 5590   6.141   1.849   9.930  1.5541  1.3969 -1.1051
   43CHL1    O3 5591   6.233   1.778  10.105  0.1697  0.4753 -0.5091
   43CHL1   H3' 5592   6.318   1.733  10.110  0.9544  1.9621  0.0532
   43CHL1    C4 5593   6.279   1.684   9.897  0.3325  0.5522  0.8996
   43CHL1   H4A 5594   6.366   1.637   9.948  0.4035  1.7335  1.9205
   43CHL1   H4B 5595   6.195   1.612   9.909  1.2399 -0.3366  2.1887
   43CHL1    C5 5596   6.306   1.692   9.741  0.3363  0.2140 -0.2098
   43CHL1    C6 5597   6.234   1.614   9.652  0.4890  0.2213 -0.1630
   43CHL1    H6 5598   6.170   1.534   9.692  1.2291 -0.1165  0.3702
   43CHL1    C7 5599   6.278   1.603   9.509 -0.2082 -0.2281 -0.3454
   43CHL1   H7A 5600   6.312   1.504   9.474  0.4290  0.4991 -1.8996
   43CHL1   H7B 5601   6.188   1.637   9.454 -0.6092 -0.7631 -0.0234
   43CHL1    C8 5602   6.402   1.697   9.471  0.2612 -0.5059  0.0385
   43CHL1    H8 5603   6.488   1.636   9.506  0.4439 -0.7174 -0.7504
   43CHL1   C14 5604   6.407   1.723   9.322  0.2271  0.1089  0.7459
   43CHL1   H14 5605   6.333   1.797   9.287  0.0953 -0.6978 -0.7965
   43CHL1   C15 5606   6.386   1.616   9.211  0.0289 -1.0577 -0.1546
   43CHL1  H15A 5607   6.427   1.521   9.251  1.8908 -1.1014 -2.0260
   43CHL1  H15B 5608   6.275   1.616   9.203 -0.0401  0.9233  0.3292
   43CHL1   C16 5609   6.456   1.678   9.084 -0.2469 -0.3286  0.2790
   43CHL1  H16A 5610   6.529   1.603   9.047  0.7738 -0.2678  2.0698
   43CHL1  H16B 5611   6.377   1.688   9.007  0.3738  0.3303 -0.2820
   43CHL1   C17 5612   6.536   1.805   9.121 -0.2590  0.3988  0.3602
   43CHL1   H17 5613   6.474   1.895   9.099 -0.3217  0.7300  1.7913
   43CHL1   C13 5614   6.542   1.798   9.278 -0.2673 -1.2294 -0.8361
   43CHL1   C18 5615   6.667   1.707   9.310 -0.4033  0.4003  0.1184
   43CHL1  H18A 5616   6.762   1.749   9.269 -0.7698  0.9890 -0.1397
   43CHL1  H18B 5617   6.680   1.689   9.418  2.0371 -0.5713 -0.2667
   43CHL1  H18C 5618   6.638   1.607   9.272 -0.8834  0.1100  1.2384
   43CHL1   C12 5619   6.543   1.925   9.357  0.2893 -0.0796 -0.2407
   43CHL1  H12A 5620   6.641   1.974   9.337  0.4202 -1.1642 -2.6099
   43CHL1  H12B 5621   6.475   1.999   9.311  1.0897 -0.2702 -1.7780
   43CHL1   C11 5622   6.531   1.913   9.506  0.0014 -0.4461 -0.8747
   43CHL1  H11A 5623   6.628   1.870   9.539  0.5913  1.3198 -0.1958
   43CHL1  H11B 5624   6.541   2.005   9.568  3.5225 -1.9750  1.1699
   43CHL1    C9 5625   6.410   1.826   9.549 -0.4909  0.0702  0.2549
   43CHL1    H9 5626   6.316   1.879   9.523 -0.4367 -1.2454 -3.1111
   43CHL1   C10 5627   6.403   1.799   9.701  0.1626  0.2425 -0.0746
   43CHL1   C19 5628   6.548   1.753   9.755 -0.4270 -0.4337  0.3886
   43CHL1  H19A 5629   6.544   1.749   9.866 -1.1131  1.7178  0.4984
   43CHL1  H19B 5630   6.579   1.655   9.714 -2.0456 -0.9686  0.3788
   43CHL1  H19C 5631   6.631   1.825   9.745  0.6059 -1.7229 -0.6973
   43CHL1    C1 5632   6.355   1.927   9.774  0.1860  0.3338 -0.0302
   43CHL1   H1A 5633   6.420   2.015   9.756  0.2327  0.1473 -0.8343
   43CHL1   H1B 5634   6.250   1.954   9.750 -0.6427 -2.3216  0.2241
   43CHL1    C2 5635   6.344   1.917   9.928  0.2590 -0.2060  0.0327
   43CHL1   H2A 5636   6.324   2.016   9.975  1.0869 -1.5852  3.5940
   43CHL1   H2B 5637   6.442   1.895   9.973 -0.2789 -1.1389  0.7807
   43CHL1   C20 5638   6.656   1.840   9.039 -0.5868  0.1676  0.6380
   43CHL1   H20 5639   6.743   1.774   9.062 -0.3638  0.2215 -0.0250
   43CHL1   C21 5640   6.694   1.991   9.055 -0.3828  0.2213  0.4435
   43CHL1  H21A 5641   6.764   2.017   9.137 -0.6947  0.8751  0.5034
   43CHL1  H21B 5642   6.610   2.059   9.078 -1.1654 -1.1835  1.9441
   43CHL1  H21C 5643   6.744   2.025   8.961  0.0962  0.3341  0.7346
   43CHL1   C22 5644   6.635   1.815   8.881 -0.2563 -1.0770 -0.7131
   43CHL1  H22A 5645   6.730   1.854   8.839 -1.2561  3.2602  0.4724
   43CHL1  H22B 5646   6.613   1.707   8.872  0.1726 -1.4941  2.3493
   43CHL1   C23 5647   6.508   1.879   8.822  0.3734 -0.8843 -0.2656
   43CHL1  H23A 5648   6.417   1.859   8.882  0.5286  0.0346  0.2933
   43CHL1  H23B 5649   6.509   1.988   8.841  0.5470 -0.7077 -1.2420
   43CHL1   C24 5650   6.483   1.847   8.682  0.1494  0.5539 -0.0460
   43CHL1  H24A 5651   6.465   1.740   8.660  0.7107  0.5869 -0.6800
   43CHL1  H24B 5652   6.392   1.903   8.649 -0.7294 -1.0394 -0.4042
   43CHL1   C25 5653   6.595   1.893   8.584  0.6372  0.3703 -0.0407
   43CHL1   H25 5654   6.686   1.835   8.610 -1.0519 -3.5883 -2.1106
   43CHL1   C26 5655   6.561   1.824   8.446 -1.0194 -0.0056  0.1226
   43CHL1  H26A 5656   6.655   1.830   8.386 -1.6479  1.9072 -0.7379
   43CHL1  H26B 5657   6.534   1.718   8.467  0.6253 -0.1746  1.6957
   43CHL1  H26C 5658   6.478   1.874   8.391 -0.0345  1.6720  0.1031
   43CHL1   C27 5659   6.632   2.045   8.584 -0.2984  0.1512 -0.6144
   43CHL1  H27A 5660   6.705   2.072   8.505 -0.8994 -1.1764 -1.6611
   43CHL1  H27B 5661   6.536   2.096   8.564 -1.3814 -2.1703 -1.8054
   43CHL1  H27C 5662   6.673   2.078   8.682 -0.3420 -2.9825  0.6029
   44CHL1    C3 5663   0.149   1.656  10.021 -0.3116  0.1567 -0.2045
   44CHL1    H3 5664   0.208   1.749  10.014 -2.7811  1.7382 -1.7467
   44CHL1    O3 5665   0.066   1.677  10.137 -0.9037  0.2215 -0.2374
   44CHL1   H3' 5666   0.131   1.705  10.202  0.7894  1.2444 -2.2158
   44CHL1    C4 5667   0.049   1.644   9.899 -0.0267 -0.2315 -0.1674
   44CHL1   H4A 5668  -0.009   1.550   9.911  2.0868 -1.6870 -0.7221
   44CHL1   H4B 5669  -0.007   1.740   9.898 -1.3144 -0.9043  1.9911
   44CHL1    C5 5670   0.124   1.622   9.770 -0.7879 -0.0292  0.0839
   44CHL1    C6 5671   0.096   1.697   9.659 -0.2538 -0.0713 -0.6634
   44CHL1    H6 5672   0.020   1.777   9.664 -1.0919 -0.9476  1.3842
   44CHL1    C7 5673   0.164   1.672   9.528  0.6554 -0.2335 -0.4578
   44CHL1   H7A 5674   0.091   1.675   9.445  0.3398 -0.9909 -0.2224
   44CHL1   H7B 5675   0.241   1.748   9.507  0.5336  0.1983  0.5757
   44CHL1    C8 5676   0.243   1.542   9.525 -0.5271 -0.1309  1.0187
   44CHL1    H8 5677   0.180   1.455   9.498  0.3020 -0.0099 -1.6452
   44CHL1   C14 5678   0.344   1.549   9.399  0.1421  0.5570 -0.0945
   44CHL1   H14 5679   0.419   1.626   9.429 -0.5276  1.6079 -1.0334
   44CHL1   C15 5680   0.285   1.583   9.263 -0.2120  0.1360 -0.0244
   44CHL1  H15A 5681   0.206   1.513   9.232  1.4046 -2.1488  0.7587
   44CHL1  H15B 5682   0.258   1.691   9.266  1.5004  0.5845  0.8801
   44CHL1   C16 5683   0.400   1.545   9.165 -0.6798 -0.4811  0.0523
   44CHL1  H16A 5684   0.355   1.487   9.082  0.9788  0.4408 -1.5913
   44CHL1  H16B 5685   0.446   1.635   9.119 -1.9114  0.6680  0.9820
   44CHL1   C17 5686   0.499   1.465   9.255  0.4374 -0.7094  0.3758
   44CHL1   H17 5687   0.563   1.547   9.295  1.4415 -0.8922 -0.7990
   44CHL1   C13 5688   0.424   1.421   9.374 -0.2003 -0.6601 -0.0580
   44CHL1   C18 5689   0.333   1.297   9.344 -0.8354 -0.0227 -0.3249
   44CHL1  H18A 5690   0.403   1.213   9.326 -1.2759 -0.7314  1.0989
   44CHL1  H18B 5691   0.258   1.267   9.420 -0.9784 -1.8531 -1.1377
   44CHL1  H18C 5692   0.283   1.315   9.247 -0.0933 -0.6434 -0.8391
   44CHL1   C12 5693   0.509   1.403   9.505  0.5366  0.6989 -0.1965
   44CHL1  H12A 5694   0.564   1.307   9.502 -0.4135  0.1484 -0.3328
   44CHL1  H12B 5695   0.579   1.487   9.526  0.0012  0.9230  0.7457
   44CHL1   C11 5696   0.418   1.390   9.637  0.3055 -0.2115  0.1995
   44CHL1  H11A 5697   0.363   1.293   9.633 -0.7669  0.3557  0.7120
   44CHL1  H11B 5698   0.479   1.389   9.729 -0.4982  2.7460  0.8745
   44CHL1    C9 5699   0.322   1.517   9.654  0.3013  0.0930  1.1033
   44CHL1    H9 5700   0.394   1.601   9.661  1.2534 -0.5937 -0.0823
   44CHL1   C10 5701   0.232   1.506   9.775 -0.0314  0.3913 -0.3861
   44CHL1   C19 5702   0.146   1.381   9.769  0.5861  0.2761  0.3849
   44CHL1  H19A 5703   0.099   1.365   9.669 -0.6465  0.3304  0.9402
   44CHL1  H19B 5704   0.209   1.291   9.781 -1.7862 -1.2557  2.4879
   44CHL1  H19C 5705   0.070   1.371   9.849 -0.7937  1.5572 -0.7099
   44CHL1    C1 5706   0.323   1.519   9.906  0.2748 -0.5545  0.3723
   44CHL1   H1A 5707   0.394   1.435   9.921 -1.2371 -1.5680  2.1928
   44CHL1   H1B 5708   0.377   1.614   9.885 -1.4925 -0.1942 -3.4715
   44CHL1    C2 5709   0.238   1.533  10.035  0.4677 -0.0556  0.7329
   44CHL1   H2A 5710   0.303   1.542  10.125  2.2021 -1.4447 -0.2942
   44CHL1   H2B 5711   0.185   1.436  10.041  0.1787 -0.1264 -1.6835
   44CHL1   C20 5712   0.592   1.373   9.190  0.1605 -1.3518  0.0637
   44CHL1   H20 5713   0.530   1.284   9.168 -0.0829 -0.8482 -1.4645
   44CHL1   C21 5714   0.707   1.333   9.275 -0.1006  0.2936 -0.4625
   44CHL1  H21A 5715   0.799   1.297   9.223 -0.7886  0.7760 -2.0412
   44CHL1  H21B 5716   0.668   1.251   9.339 -0.4905  1.1935  0.4752
   44CHL1  H21C 5717   0.734   1.415   9.346  1.0573 -0.6702  0.2635
   44CHL1   C22 5718   0.646   1.426   9.058 -0.1722  0.2931  1.2052
   44CHL1  H22A 5719   0.569   1.481   9.000  0.4426  0.5501  0.6176
   44CHL1  H22B 5720   0.715   1.506   9.091  1.6662 -0.9442  0.4963
   44CHL1   C23 5721   0.730   1.337   8.972  0.2113  0.5233  0.3724
   44CHL1  H23A 5722   0.816   1.297   9.030 -0.6994  1.3863  2.4052
   44CHL1  H23B 5723   0.677   1.245   8.940  0.7428 -0.0610  1.1486
   44CHL1   C24 5724   0.779   1.401   8.848 -0.0144  0.0362 -0.4853
   44CHL1  H24A 5725   0.698   1.462   8.803 -0.9265 -2.0642 -1.7979
   44CHL1  H24B 5726   0.854   1.478   8.877 -1.2327  0.9218  0.4114
   44CHL1   C25 5727   0.846   1.312   8.737  0.0967  0.0215 -0.1939
   44CHL1   H25 5728   0.770   1.250   8.685  0.9720 -0.1390 -1.3128
   44CHL1   C26 5729   0.905   1.398   8.628 -0.3942 -0.1529  0.0842
   44CHL1  H26A 5730   0.827   1.468   8.590  0.0640  0.1010 -0.3917
   44CHL1  H26B 5731   0.985   1.462   8.671 -0.8569  0.1443  0.5281
   44CHL1  H26C 5732   0.935   1.335   8.542  0.4402  0.3552 -0.0052
   44CHL1   C27 5733   0.945   1.202   8.794 -1.4841 -0.0971 -0.1769
   44CHL1  H27A 5734   1.032   1.255   8.838 -1.6902  0.7887 -0.8115
   44CHL1  H27B 5735   0.892   1.145   8.873  2.5801 -1.4391  1.8889
   44CHL1  H27C 5736   0.977   1.136   8.710 -0.7974  1.0075 -0.8131
   45CHL1    C3 5737   3.469   1.801  10.201 -0.1480 -0.1730 -0.6209
   45CHL1    H3 5738   3.360   1.821  10.202 -0.0943  0.1336 -0.5228
   45CHL1    O3 5739   3.496   1.701  10.306  0.3512  0.3493  0.2636
   45CHL1   H3' 5740   3.588   1.674  10.296  0.3215 -0.4920  1.8940
   45CHL1    C4 5741   3.511   1.755  10.064 -0.4475 -0.0478 -0.2338
   45CHL1   H4A 5742   3.616   1.719  10.069  0.2367  1.1351 -3.4622
   45CHL1   H4B 5743   3.457   1.663  10.035  1.7815 -1.0304 -1.5022
   45CHL1    C5 5744   3.486   1.857   9.956  0.0332  0.2806 -0.4547
   45CHL1    C6 5745   3.401   1.839   9.860 -0.4893 -0.0140  0.3100
   45CHL1    H6 5746   3.350   1.742   9.851 -0.0684 -0.3272  1.1670
   45CHL1    C7 5747   3.361   1.942   9.761 -0.4694 -0.0289 -0.2748
   45CHL1   H7A 5748   3.351   1.886   9.665 -1.7116  3.1529 -2.1557
   45CHL1   H7B 5749   3.269   1.997   9.787 -0.6334 -0.1259 -0.6420
   45CHL1    C8 5750   3.469   2.056   9.751  0.4538 -0.1620 -0.0349
   45CHL1    H8 5751   3.420   2.145   9.704  2.4106  2.6290  2.7735
   45CHL1   C14 5752   3.589   2.036   9.660  0.1647 -0.4266  0.0724
   45CHL1   H14 5753   3.651   1.952   9.698 -0.8987 -0.8843  0.8417
   45CHL1   C15 5754   3.540   2.013   9.518 -0.1960 -0.2674 -0.2769
   45CHL1  H15A 5755   3.601   1.937   9.465  0.9250  0.6713 -0.3717
   45CHL1  H15B 5756   3.437   1.971   9.516 -2.2006  4.1535 -2.5345
   45CHL1   C16 5757   3.545   2.146   9.445 -0.2414  0.0460  0.2582
   45CHL1  H16A 5758   3.598   2.134   9.348 -0.2707 -1.1859  0.3758
   45CHL1  H16B 5759   3.443   2.190   9.443  0.2413  1.2958  1.6487
   45CHL1   C17 5760   3.616   2.245   9.547 -0.2085 -0.4264  0.0172
   45CHL1   H17 5761   3.536   2.291   9.607 -1.0377  0.3113 -1.5898
   45CHL1   C13 5762   3.688   2.154   9.646 -0.2830  0.3453  0.0726
   45CHL1   C18 5763   3.821   2.100   9.595 -0.6428 -0.4915 -0.4859
   45CHL1  H18A 5764   3.810   2.052   9.496 -1.2840 -0.1610 -0.5784
   45CHL1  H18B 5765   3.900   2.176   9.576  1.0469 -1.4568  2.0480
   45CHL1  H18C 5766   3.863   2.032   9.673  0.6856 -0.9619 -1.5729
   45CHL1   C12 5767   3.715   2.227   9.777 -0.0517  0.5951  0.0054
   45CHL1  H12A 5768   3.787   2.159   9.827  0.6898  0.3011 -1.3840
   45CHL1  H12B 5769   3.769   2.323   9.767  2.1233 -0.5152  0.4857
   45CHL1   C11 5770   3.594   2.236   9.883 -0.2036 -0.7076  0.5585
   45CHL1  H11A 5771   3.634   2.261   9.984  1.5683 -0.1260 -0.2537
   45CHL1  H11B 5772   3.529   2.320   9.851 -2.0392 -2.5592 -0.8509
   45CHL1    C9 5773   3.511   2.106   9.886 -0.1919  0.1811  0.1482
   45CHL1    H9 5774   3.413   2.132   9.931 -0.4464 -1.0596  0.3542
   45CHL1   C10 5775   3.558   1.993   9.982 -1.2391  0.2515  0.1585
   45CHL1   C19 5776   3.711   1.974   9.981  0.1493  0.2023  0.3671
   45CHL1  H19A 5777   3.758   2.070  10.012  0.4908  0.6861 -1.5595
   45CHL1  H19B 5778   3.757   1.906  10.056  1.9988  3.1106  2.0822
   45CHL1  H19C 5779   3.741   1.942   9.880  3.0335  0.3670  1.1028
   45CHL1    C1 5780   3.522   2.043  10.129  0.2772  0.6101 -0.2759
   45CHL1   H1A 5781   3.583   2.130  10.162  0.3182  0.1202  1.0168
   45CHL1   H1B 5782   3.412   2.056  10.129  0.0378 -0.9804 -2.5081
   45CHL1    C2 5783   3.546   1.935  10.239 -0.7878  0.5159 -0.4183
   45CHL1   H2A 5784   3.502   1.984  10.329  0.3428  1.5581 -0.4087
   45CHL1   H2B 5785   3.654   1.918  10.254 -1.0915  0.0405  1.6266
   45CHL1   C20 5786   3.694   2.358   9.480 -0.1760  0.4405 -0.7164
   45CHL1   H20 5787   3.783   2.386   9.541  0.5588 -0.6073 -1.2886
   45CHL1   C21 5788   3.601   2.475   9.453  0.8221 -0.1608 -0.0110
   45CHL1  H21A 5789   3.514   2.441   9.393  1.1571  1.0679 -1.2416
   45CHL1  H21B 5790   3.656   2.548   9.390 -0.1810 -0.2391 -1.0162
   45CHL1  H21C 5791   3.567   2.521   9.549 -1.1514 -0.0335 -0.7270
   45CHL1   C22 5792   3.757   2.324   9.344 -0.3406  0.1252 -0.1179
   45CHL1  H22A 5793   3.805   2.224   9.345  0.4265  0.4733 -0.9764
   45CHL1  H22B 5794   3.681   2.318   9.264 -0.0811 -1.2997 -0.2861
   45CHL1   C23 5795   3.850   2.439   9.287  0.5760  0.8914  0.3086
   45CHL1  H23A 5796   3.787   2.521   9.248 -0.6417 -0.7303 -1.3146
   45CHL1  H23B 5797   3.921   2.464   9.369  0.6162  2.0834 -0.0770
   45CHL1   C24 5798   3.937   2.399   9.164 -1.4243  0.1597  0.2236
   45CHL1  H24A 5799   3.969   2.296   9.191  0.2265  0.4257 -0.6105
   45CHL1  H24B 5800   3.869   2.389   9.077  1.7410 -2.6170 -2.2335
   45CHL1   C25 5801   4.045   2.498   9.125  0.2024 -0.3704 -0.0114
   45CHL1   H25 5802   4.009   2.603   9.130 -1.5798 -1.0147  2.1438
   45CHL1   C26 5803   4.175   2.508   9.219 -0.8753  0.4537 -0.0977
   45CHL1  H26A 5804   4.243   2.590   9.188 -0.2579  0.2760  0.7667
   45CHL1  H26B 5805   4.156   2.520   9.328  0.7857  0.7939  0.1754
   45CHL1  H26C 5806   4.231   2.413   9.210 -3.9477 -1.3515 -2.3343
   45CHL1   C27 5807   4.082   2.483   8.978 -0.0714 -0.4481  0.4719
   45CHL1  H27A 5808   4.165   2.541   8.932 -0.6316  0.3193  0.4081
   45CHL1  H27B 5809   4.094   2.378   8.943  0.2354  0.7378 -3.4610
   45CHL1  H27C 5810   3.992   2.521   8.923  1.5192 -0.9375 -2.7308
   46CHL1    C3 5811   0.810   4.842  10.062  0.1486  0.4366  0.5556
   46CHL1    H3 5812   0.707   4.856  10.022 -0.4988 -1.1573  1.5564
   46CHL1    O3 5813   0.793   4.834  10.207  0.6204 -0.0422  0.5638
   46CHL1   H3' 5814   0.883   4.830  10.240  0.9983  3.8258  0.4657
   46CHL1    C4 5815   0.872   4.706  10.011  0.3238  0.5475  0.7242
   46CHL1   H4A 5816   0.971   4.693  10.060  1.0541  0.2701 -0.7561
   46CHL1   H4B 5817   0.805   4.626  10.049 -0.6913  0.7357 -0.6141
   46CHL1    C5 5818   0.886   4.713   9.860  0.3498 -0.3990 -0.0648
   46CHL1    C6 5819   0.831   4.619   9.780  0.2850  0.6761 -0.1246
   46CHL1    H6 5820   0.783   4.532   9.828 -0.1762  1.5177  0.9900
   46CHL1    C7 5821   0.834   4.620   9.630  0.5538  0.1076 -0.6001
   46CHL1   H7A 5822   0.840   4.515   9.592 -2.3481  0.4368 -2.2504
   46CHL1   H7B 5823   0.741   4.670   9.598  1.3706  1.6238 -0.6800
   46CHL1    C8 5824   0.947   4.705   9.573 -0.6287 -0.3675  0.3137
   46CHL1    H8 5825   1.048   4.659   9.572  0.6428  2.2324 -1.2520
   46CHL1   C14 5826   0.921   4.737   9.422 -0.0678 -0.0862  0.5075
   46CHL1   H14 5827   0.841   4.813   9.424  0.5153  0.5305  1.5667
   46CHL1   C15 5828   0.877   4.626   9.329 -0.8095  0.0561 -0.1073
   46CHL1  H15A 5829   0.927   4.527   9.339 -0.0938  0.3015 -1.1306
   46CHL1  H15B 5830   0.768   4.607   9.340 -0.7834 -0.0341  0.0005
   46CHL1   C16 5831   0.908   4.679   9.191 -0.0291 -0.1710  0.3685
   46CHL1  H16A 5832   0.977   4.610   9.138 -0.1341 -0.4020  0.5296
   46CHL1  H16B 5833   0.812   4.689   9.136  0.7813 -4.4308 -2.2551
   46CHL1   C17 5834   0.990   4.817   9.206  0.2710  0.2093 -0.8804
   46CHL1   H17 5835   0.919   4.902   9.201  0.0909  0.0324 -1.3550
   46CHL1   C13 5836   1.040   4.815   9.354 -0.3256 -0.1504 -0.6637
   46CHL1   C18 5837   1.167   4.729   9.372 -0.0493 -0.1002 -0.1793
   46CHL1  H18A 5838   1.201   4.715   9.476  1.5310  1.0107 -0.5094
   46CHL1  H18B 5839   1.146   4.626   9.333 -2.2952  0.6596 -1.1894
   46CHL1  H18C 5840   1.258   4.772   9.325 -1.2635  1.5656 -1.1017
   46CHL1   C12 5841   1.056   4.957   9.426 -0.0618 -0.4174  0.1268
   46CHL1  H12A 5842   1.148   5.015   9.403  0.2572 -0.8087  0.3929
   46CHL1  H12B 5843   0.966   5.017   9.399  0.4721 -0.4849 -1.9354
   46CHL1   C11 5844   1.066   4.934   9.585  0.3688  0.2103  0.3611
   46CHL1  H11A 5845   1.166   4.891   9.604  0.4272 -1.3374 -2.8157
   46CHL1  H11B 5846   1.060   5.034   9.633 -0.2320  1.4087 -2.0989
   46CHL1    C9 5847   0.958   4.836   9.648 -0.0164 -0.4729 -0.0941
   46CHL1    H9 5848   0.855   4.878   9.637 -0.4836 -1.3623  0.7446
   46CHL1   C10 5849   0.961   4.830   9.805 -0.6652 -0.4592 -0.7584
   46CHL1   C19 5850   1.110   4.791   9.853  0.1112  0.1608 -0.3023
   46CHL1  H19A 5851   1.150   4.691   9.823  1.0229  0.8683 -1.5391
   46CHL1  H19B 5852   1.174   4.874   9.817 -0.1118  1.0237  1.2121
   46CHL1  H19C 5853   1.107   4.799   9.964 -1.4641  0.4124 -0.3426
   46CHL1    C1 5854   0.912   4.970   9.863  0.2488  0.5159  0.2742
   46CHL1   H1A 5855   0.974   5.055   9.828  0.8278 -0.7815 -2.1392
   46CHL1   H1B 5856   0.819   4.990   9.805  0.3372  1.0834  0.3224
   46CHL1    C2 5857   0.896   4.962  10.015  0.7095  0.5852  0.5923
   46CHL1   H2A 5858   0.849   5.058  10.046  0.6908  1.6507 -2.4020
   46CHL1   H2B 5859   0.989   4.947  10.074  0.2492 -0.5991  1.0252
   46CHL1   C20 5860   1.085   4.835   9.092 -0.4694  0.1206 -0.3655
   46CHL1   H20 5861   1.170   4.764   9.088 -0.2111  0.3023  1.2983
   46CHL1   C21 5862   1.147   4.976   9.107 -0.4963 -0.1034 -0.2972
   46CHL1  H21A 5863   1.072   5.054   9.130  1.7231  2.0689 -0.0493
   46CHL1  H21B 5864   1.223   5.014   9.035  2.9210 -0.6315  2.7218
   46CHL1  H21C 5865   1.203   4.956   9.201 -0.0771 -1.7700 -0.8585
   46CHL1   C22 5866   1.012   4.829   8.952 -0.1227  0.7984  0.3717
   46CHL1  H22A 5867   0.966   4.728   8.944  1.9781 -0.3578  1.7283
   46CHL1  H22B 5868   0.925   4.898   8.952  0.7348  1.9045 -0.2967
   46CHL1   C23 5869   1.102   4.847   8.822 -0.6249  0.1885 -0.0157
   46CHL1  H23A 5870   1.135   4.952   8.811 -0.0115 -0.1186 -1.2190
   46CHL1  H23B 5871   1.191   4.783   8.841  0.0840  0.8956 -0.8593
   46CHL1   C24 5872   1.014   4.821   8.702 -0.1753 -0.4889  0.3445
   46CHL1  H24A 5873   0.983   4.715   8.690  1.0557 -0.6093 -2.3736
   46CHL1  H24B 5874   0.918   4.877   8.696  0.8043  1.4405  1.6278
   46CHL1   C25 5875   1.070   4.845   8.560 -0.0173  0.6077  0.5557
   46CHL1   H25 5876   1.010   4.784   8.489 -0.9025  2.2295 -0.1446
   46CHL1   C26 5877   1.052   4.989   8.522 -0.0421 -0.1423  0.4889
   46CHL1  H26A 5878   0.946   5.018   8.505  0.7423  3.7872  1.2529
   46CHL1  H26B 5879   1.102   5.055   8.596 -0.3881  1.6061 -0.7573
   46CHL1  H26C 5880   1.111   5.007   8.430  1.0607 -1.4235  0.9083
   46CHL1   C27 5881   1.220   4.804   8.554 -0.1965  0.4669  0.2210
   46CHL1  H27A 5882   1.255   4.801   8.448 -1.9239  0.9363 -0.4001
   46CHL1  H27B 5883   1.275   4.883   8.608  0.6655 -1.4029  2.2153
   46CHL1  H27C 5884   1.234   4.703   8.599 -0.2538 -1.0845 -2.9158
   47CHL1    C3 5885   1.610   3.157   9.916  0.4237  0.5965 -0.2568
   47CHL1    H3 5886   1.712   3.113   9.919 -0.1290 -0.8945 -1.7908
   47CHL1    O3 5887   1.561   3.192  10.046  0.2926 -0.0191 -0.4460
   47CHL1   H3' 5888   1.472   3.222  10.026 -0.6195 -2.0788  0.2761
   47CHL1    C4 5889   1.613   3.282   9.824  0.1571  0.0997  0.6100
   47CHL1   H4A 5890   1.515   3.333   9.841  1.4494  3.0440 -0.1337
   47CHL1   H4B 5891   1.694   3.342   9.872  1.2009  1.4877 -2.6235
   47CHL1    C5 5892   1.654   3.260   9.680 -0.3322  0.1322  0.0108
   47CHL1    C6 5893   1.763   3.322   9.624  0.5672  0.6139 -0.6072
   47CHL1    H6 5894   1.819   3.389   9.691  1.3366 -0.7113  0.1318
   47CHL1    C7 5895   1.804   3.294   9.485  0.2910 -0.1270  0.0873
   47CHL1   H7A 5896   1.811   3.385   9.422 -1.7179 -0.6136 -0.9263
   47CHL1   H7B 5897   1.898   3.236   9.492  0.9770  0.8686 -0.5660
   47CHL1    C8 5898   1.694   3.219   9.398 -0.0678  1.1641 -0.7192
   47CHL1    H8 5899   1.627   3.306   9.379 -1.9917 -0.1654 -0.3654
   47CHL1   C14 5900   1.756   3.167   9.268  0.1919 -0.2151 -0.0433
   47CHL1   H14 5901   1.849   3.117   9.303  1.2846  1.5111 -0.3784
   47CHL1   C15 5902   1.816   3.277   9.169  0.4238 -0.1378 -0.1997
   47CHL1  H15A 5903   1.741   3.357   9.151 -0.7187 -0.9927  0.7058
   47CHL1  H15B 5904   1.912   3.319   9.206  2.7397 -0.4046 -4.9919
   47CHL1   C16 5905   1.828   3.200   9.034 -0.6193 -0.0076 -0.0726
   47CHL1  H16A 5906   1.774   3.257   8.956 -0.1113  1.1464  0.4033
   47CHL1  H16B 5907   1.936   3.200   9.007  0.2641  2.6650  2.8427
   47CHL1   C17 5908   1.764   3.062   9.056  0.0559 -0.9614 -0.0486
   47CHL1   H17 5909   1.838   2.993   9.103 -0.2483  0.8249  3.3881
   47CHL1   C13 5910   1.664   3.082   9.173 -0.1492  0.3379  0.1695
   47CHL1   C18 5911   1.535   3.160   9.134  0.2296 -0.2405 -0.2337
   47CHL1  H18A 5912   1.570   3.247   9.075 -1.2278  1.0354  0.7044
   47CHL1  H18B 5913   1.471   3.093   9.072  0.7108 -1.2282  0.3144
   47CHL1  H18C 5914   1.474   3.198   9.219 -0.6752 -1.1021 -0.4683
   47CHL1   C12 5915   1.631   2.953   9.257 -0.0164 -0.2501  0.0134
   47CHL1  H12A 5916   1.563   2.897   9.190  0.7982  0.2178 -1.2564
   47CHL1  H12B 5917   1.720   2.895   9.288  0.0209 -1.3529 -1.9678
   47CHL1   C11 5918   1.559   2.997   9.388 -0.2874 -0.4858  0.0181
   47CHL1  H11A 5919   1.458   3.040   9.367 -0.2711 -0.7235 -0.5830
   47CHL1  H11B 5920   1.537   2.903   9.441 -0.1706 -1.3989 -1.4929
   47CHL1    C9 5921   1.637   3.100   9.478  0.4604 -0.8129  0.1855
   47CHL1    H9 5922   1.731   3.044   9.500  0.1002 -0.4617  3.1381
   47CHL1   C10 5923   1.576   3.148   9.611  0.5763 -0.7762  0.4059
   47CHL1   C19 5924   1.436   3.205   9.581 -0.4073  0.0270  0.0806
   47CHL1  H19A 5925   1.442   3.292   9.512 -0.3053 -1.1735 -1.4764
   47CHL1  H19B 5926   1.366   3.124   9.549 -0.2920 -0.9671  2.1936
   47CHL1  H19C 5927   1.387   3.237   9.675  0.4341 -0.4665  0.7069
   47CHL1    C1 5928   1.567   3.022   9.700 -0.4402  0.2731 -0.3988
   47CHL1   H1A 5929   1.497   2.947   9.657  1.6473 -1.7747 -0.4066
   47CHL1   H1B 5930   1.672   2.987   9.703 -0.1373  1.1742  0.1294
   47CHL1    C2 5931   1.518   3.049   9.843  0.7790 -0.4662  0.0518
   47CHL1   H2A 5932   1.526   2.958   9.906 -0.2676 -1.0010 -0.5746
   47CHL1   H2B 5933   1.410   3.076   9.844  0.9556  0.2626  0.0457
   47CHL1   C20 5934   1.713   3.001   8.928  0.6450 -0.7320  0.1698
   47CHL1   H20 5935   1.640   2.922   8.956 -2.2206  1.4046 -0.7834
   47CHL1   C21 5936   1.827   2.929   8.857  0.1246 -0.4586  0.1540
   47CHL1  H21A 5937   1.884   2.869   8.930 -0.5839 -2.0947 -0.5877
   47CHL1  H21B 5938   1.889   3.010   8.813  0.4605 -1.0793 -0.5342
   47CHL1  H21C 5939   1.781   2.862   8.781 -0.5244 -2.1308  1.9567
   47CHL1   C22 5940   1.643   3.102   8.825  0.1656 -0.3046 -0.0965
   47CHL1  H22A 5941   1.593   3.190   8.869 -0.2528 -0.0239 -1.1163
   47CHL1  H22B 5942   1.728   3.141   8.765  0.1378  0.0976  0.1221
   47CHL1   C23 5943   1.536   3.038   8.739 -0.2633 -1.3310  0.4869
   47CHL1  H23A 5944   1.579   2.971   8.661  1.3443  1.9815 -1.6943
   47CHL1  H23B 5945   1.459   2.996   8.807 -0.9918  0.1940  0.6303
   47CHL1   C24 5946   1.469   3.147   8.650  0.5646  0.7746  0.3052
   47CHL1  H24A 5947   1.382   3.190   8.704  1.3894  0.6999  1.7331
   47CHL1  H24B 5948   1.535   3.234   8.631  0.1105  0.8928 -0.8082
   47CHL1   C25 5949   1.406   3.073   8.526 -0.2972  0.5760  0.1510
   47CHL1   H25 5950   1.480   3.007   8.475 -1.6156 -0.7092 -0.1473
   47CHL1   C26 5951   1.287   2.987   8.558  0.3848  0.0016  0.1613
   47CHL1  H26A 5952   1.225   2.944   8.476 -0.0967 -0.6686  0.8706
   47CHL1  H26B 5953   1.215   3.031   8.630 -4.6352 -4.6432 -1.2802
   47CHL1  H26C 5954   1.329   2.898   8.609 -1.2281 -0.9597 -0.0993
   47CHL1   C27 5955   1.368   3.184   8.422  0.0287  0.6889 -0.2782
   47CHL1  H27A 5956   1.442   3.266   8.415  0.4329  0.6373  2.4552
   47CHL1  H27B 5957   1.345   3.141   8.322  2.0976  0.1521 -0.5822
   47CHL1  H27C 5958   1.280   3.238   8.463  0.2035  0.9077 -0.1898
   48CHL1    C3 5959   1.962   2.878   9.855  0.2093 -0.7116 -0.4004
   48CHL1    H3 5960   1.854   2.885   9.828 -0.7333  0.2342  3.0519
   48CHL1    O3 5961   1.965   2.828   9.990  0.7614  0.0410 -0.7154
   48CHL1   H3' 5962   2.037   2.878  10.029  0.2453  0.5251 -0.3661
   48CHL1    C4 5963   2.034   2.779   9.770  0.2438  0.0556 -0.3769
   48CHL1   H4A 5964   2.128   2.756   9.824  1.3612 -0.3151 -2.3910
   48CHL1   H4B 5965   1.975   2.685   9.770 -0.9532  0.7737 -1.0702
   48CHL1    C5 5966   2.067   2.823   9.621 -0.3170  0.9325 -0.2638
   48CHL1    C6 5967   2.026   2.754   9.516  0.4575 -0.0526 -0.2939
   48CHL1    H6 5968   1.987   2.656   9.546 -0.2538  0.1470 -0.5282
   48CHL1    C7 5969   2.050   2.778   9.372 -0.0258  0.4002 -0.8113
   48CHL1   H7A 5970   2.094   2.681   9.341  1.6653  0.6118  0.7425
   48CHL1   H7B 5971   1.958   2.814   9.320 -0.4512  0.3529 -0.1094
   48CHL1    C8 5972   2.155   2.897   9.356 -0.8508  0.1805  0.3866
   48CHL1    H8 5973   2.248   2.862   9.406 -0.7073  2.6431  1.9921
   48CHL1   C14 5974   2.162   2.943   9.214 -0.7847 -0.2248  0.5337
   48CHL1   H14 5975   2.057   2.968   9.188 -0.0529  0.6365 -1.7935
   48CHL1   C15 5976   2.205   2.836   9.113  0.0473 -0.1864  0.0290
   48CHL1  H15A 5977   2.297   2.782   9.147  0.5651  0.2323 -0.6964
   48CHL1  H15B 5978   2.123   2.763   9.092 -0.5354 -0.3711  2.5888
   48CHL1   C16 5979   2.245   2.930   8.997  0.3580 -0.2223 -0.6746
   48CHL1  H16A 5980   2.349   2.896   8.973  0.4577 -1.2593  1.0338
   48CHL1  H16B 5981   2.187   2.920   8.903 -0.2078 -0.1802 -0.3311
   48CHL1   C17 5982   2.242   3.075   9.044 -0.4641 -0.1522 -0.6102
   48CHL1   H17 5983   2.142   3.111   9.013 -0.1433  0.1497 -1.3100
   48CHL1   C13 5984   2.245   3.067   9.197  0.1313 -0.3165  1.0594
   48CHL1   C18 5985   2.390   3.037   9.238  0.1816 -0.0771  0.3572
   48CHL1  H18A 5986   2.435   2.968   9.163 -2.2784  0.3944 -1.6640
   48CHL1  H18B 5987   2.461   3.122   9.246  2.2966 -1.8330  1.7130
   48CHL1  H18C 5988   2.413   2.986   9.334 -0.8143 -2.2320 -0.4806
   48CHL1   C12 5989   2.184   3.182   9.273  0.2843 -0.3516  0.8438
   48CHL1  H12A 5990   2.243   3.276   9.278 -0.9213  0.6225 -1.5113
   48CHL1  H12B 5991   2.080   3.196   9.235  1.3823 -1.6268 -3.1296
   48CHL1   C11 5992   2.180   3.145   9.423  0.6449 -0.3600  0.3694
   48CHL1  H11A 5993   2.288   3.154   9.448  1.5895  0.1593 -3.2632
   48CHL1  H11B 5994   2.119   3.224   9.470  1.2526 -0.2487  0.9937
   48CHL1    C9 5995   2.108   3.009   9.452  0.5836 -0.4482  0.2748
   48CHL1    H9 5996   1.999   3.020   9.436  0.6283  1.7642  1.0422
   48CHL1   C10 5997   2.123   2.961   9.604 -0.4718 -0.5622  0.0243
   48CHL1   C19 5998   2.269   2.968   9.648  0.2415  0.0273 -0.1953
   48CHL1  H19A 5999   2.339   2.922   9.575  1.4398  0.2761  0.7440
   48CHL1  H19B 6000   2.302   3.072   9.672  1.3395 -0.4836  0.6094
   48CHL1  H19C 6001   2.280   2.925   9.750  0.3506  1.8918  0.6309
   48CHL1    C1 6002   2.037   3.050   9.694  0.5465  0.1119 -0.0934
   48CHL1   H1A 6003   2.074   3.155   9.689  1.6482 -0.3094 -2.0967
   48CHL1   H1B 6004   1.936   3.065   9.649  1.1460  1.6402 -1.0117
   48CHL1    C2 6005   2.032   3.014   9.836  1.2960  0.0433 -0.4767
   48CHL1   H2A 6006   1.983   3.094   9.894  0.9383  0.3532 -1.1985
   48CHL1   H2B 6007   2.133   3.000   9.880  0.3414 -0.0940  1.8121
   48CHL1   C20 6008   2.341   3.171   8.979 -0.4267  0.1737  0.3073
   48CHL1   H20 6009   2.440   3.126   9.002 -1.0961 -0.6287  1.7320
   48CHL1   C21 6010   2.334   3.312   9.033 -0.7334 -0.6807  0.6360
   48CHL1  H21A 6011   2.228   3.344   9.030 -0.4605  0.2249 -2.1161
   48CHL1  H21B 6012   2.390   3.389   8.976 -0.5324 -1.3148 -0.0349
   48CHL1  H21C 6013   2.377   3.317   9.136 -1.6621 -2.1703  1.1185
   48CHL1   C22 6014   2.315   3.171   8.827 -0.2181  0.4523  0.3867
   48CHL1  H22A 6015   2.276   3.074   8.788  1.1589 -0.4080  1.0722
   48CHL1  H22B 6016   2.246   3.252   8.795 -1.3059 -1.0284 -1.2095
   48CHL1   C23 6017   2.452   3.191   8.752  0.2891  1.1263 -0.2833
   48CHL1  H23A 6018   2.492   3.291   8.779 -0.0052  0.8174  1.4712
   48CHL1  H23B 6019   2.525   3.120   8.798  1.3583  1.3422 -1.6062
   48CHL1   C24 6020   2.442   3.171   8.601  0.2928 -0.3235 -0.7906
   48CHL1  H24A 6021   2.410   3.066   8.581  1.2163 -1.0060  1.0608
   48CHL1  H24B 6022   2.363   3.230   8.550 -1.2921 -2.4196 -0.8652
   48CHL1   C25 6023   2.576   3.193   8.529 -0.7684 -0.4337  0.4002
   48CHL1   H25 6024   2.657   3.148   8.590 -0.9187 -0.8669  0.2778
   48CHL1   C26 6025   2.576   3.146   8.377 -0.4196  0.1983 -0.4500
   48CHL1  H26A 6026   2.544   3.040   8.364 -2.5631  0.5135  1.6527
   48CHL1  H26B 6027   2.514   3.209   8.309 -0.5547  0.4093 -0.1322
   48CHL1  H26C 6028   2.682   3.147   8.345  0.1974  0.3594  1.4968
   48CHL1   C27 6029   2.618   3.341   8.535  0.6248 -0.2271  0.0727
   48CHL1  H27A 6030   2.630   3.367   8.643  1.1697 -1.0569  0.2229
   48CHL1  H27B 6031   2.714   3.351   8.480 -0.2030  1.5589 -1.1243
   48CHL1  H27C 6032   2.543   3.406   8.485  1.0622  0.5420  0.3984
   49CHL1    C3 6033   0.457   4.600  10.106 -0.1968 -0.4708 -0.0148
   49CHL1    H3 6034   0.552   4.658  10.110 -0.1483 -0.5688  0.2936
   49CHL1    O3 6035   0.447   4.544  10.235  0.2422  0.0994 -0.5858
   49CHL1   H3' 6036   0.396   4.464  10.226 -0.2961 -0.1488  3.1680
   49CHL1    C4 6037   0.330   4.685  10.067  0.1119  0.3356  0.0636
   49CHL1   H4A 6038   0.242   4.622  10.092 -0.2386  0.9800  0.4595
   49CHL1   H4B 6039   0.314   4.774  10.132  0.4022  1.6410 -1.5852
   49CHL1    C5 6040   0.324   4.720   9.922  0.0732 -0.4259  0.2804
   49CHL1    C6 6041   0.311   4.844   9.884 -0.5237  0.2962  0.0702
   49CHL1    H6 6042   0.300   4.923   9.959 -0.2667 -0.9224  1.4285
   49CHL1    C7 6043   0.289   4.881   9.738  0.0047 -0.9704 -0.0773
   49CHL1   H7A 6044   0.196   4.942   9.733  0.6574  0.1588  0.9325
   49CHL1   H7B 6045   0.382   4.930   9.702  0.4015 -1.8023 -0.1878
   49CHL1    C8 6046   0.267   4.760   9.645  0.2164  0.3032 -0.2731
   49CHL1    H8 6047   0.167   4.718   9.668 -0.1536  0.9122 -0.7499
   49CHL1   C14 6048   0.286   4.798   9.504  0.3172 -0.3892  0.4120
   49CHL1   H14 6049   0.386   4.842   9.485  0.3921 -0.5945  0.3240
   49CHL1   C15 6050   0.188   4.911   9.466 -0.1443  0.1862  0.9597
   49CHL1  H15A 6051   0.090   4.879   9.507 -0.7395  0.4232 -0.2314
   49CHL1  H15B 6052   0.205   5.017   9.495  0.5048  1.2008 -2.7195
   49CHL1   C16 6053   0.184   4.904   9.315  0.1364 -0.5763 -0.1701
   49CHL1  H16A 6054   0.085   4.903   9.266 -0.2130 -0.9654  0.5427
   49CHL1  H16B 6055   0.242   4.994   9.284  0.8611 -0.6619  0.8880
   49CHL1   C17 6056   0.258   4.776   9.265  0.0749 -0.0264 -0.3499
   49CHL1   H17 6057   0.361   4.802   9.235  0.1757 -0.3952 -0.3245
   49CHL1   C13 6058   0.265   4.693   9.401  0.1761 -0.0750 -0.1731
   49CHL1   C18 6059   0.130   4.623   9.423  0.4425 -0.0074 -0.1650
   49CHL1  H18A 6060   0.054   4.702   9.412  1.4048  0.6554 -2.9127
   49CHL1  H18B 6061   0.106   4.545   9.347 -1.9443  1.5341 -1.1013
   49CHL1  H18C 6062   0.137   4.577   9.524 -1.3024 -2.1548 -0.9467
   49CHL1   C12 6063   0.389   4.598   9.422  0.2643 -0.8773  0.2844
   49CHL1  H12A 6064   0.390   4.506   9.360  2.5751 -1.8591  1.6304
   49CHL1  H12B 6065   0.485   4.649   9.398 -0.3857 -0.0992 -0.7536
   49CHL1   C11 6066   0.401   4.537   9.561 -0.1337 -0.5113 -0.6788
   49CHL1  H11A 6067   0.324   4.459   9.574 -1.3521  0.8707  0.8372
   49CHL1  H11B 6068   0.505   4.505   9.583  1.1940  1.3501 -3.5588
   49CHL1    C9 6069   0.370   4.653   9.676  0.2281  0.1824  0.0987
   49CHL1    H9 6070   0.460   4.718   9.679  0.7484 -0.5172 -0.0177
   49CHL1   C10 6071   0.349   4.606   9.827 -0.0903 -0.3484  0.5535
   49CHL1   C19 6072   0.227   4.513   9.830 -0.7061  0.1059 -0.2651
   49CHL1  H19A 6073   0.258   4.425   9.770 -1.0864 -0.2953  0.1242
   49CHL1  H19B 6074   0.206   4.465   9.928 -0.8169 -2.1592 -1.3368
   49CHL1  H19C 6075   0.137   4.555   9.782 -0.8681  1.8004  1.3707
   49CHL1    C1 6076   0.477   4.533   9.867 -0.3504 -0.4646  0.0585
   49CHL1   H1A 6077   0.504   4.444   9.807 -2.6263 -1.9938  1.1497
   49CHL1   H1B 6078   0.563   4.602   9.857 -1.6391  0.9702 -2.0228
   49CHL1    C2 6079   0.483   4.480  10.013  0.9457  0.1907  0.1805
   49CHL1   H2A 6080   0.586   4.440  10.028  1.3514  0.6926 -1.1313
   49CHL1   H2B 6081   0.419   4.390  10.026  1.0879  0.1645  0.7213
   49CHL1   C20 6082   0.195   4.702   9.138 -0.3156  0.0248  0.2840
   49CHL1   H20 6083   0.096   4.666   9.173 -0.0110 -0.1908  0.9352
   49CHL1   C21 6084   0.284   4.582   9.099 -0.3699 -0.6836 -0.7639
   49CHL1  H21A 6085   0.387   4.623   9.086 -0.9942  1.2742 -0.0160
   49CHL1  H21B 6086   0.248   4.542   9.002 -1.9347 -1.8290  0.2491
   49CHL1  H21C 6087   0.282   4.496   9.169  1.3874 -1.1615 -1.2526
   49CHL1   C22 6088   0.170   4.799   9.015  0.3773  0.4042 -0.1711
   49CHL1  H22A 6089   0.142   4.903   9.044  4.3908  2.2076 -1.9711
   49CHL1  H22B 6090   0.276   4.803   8.983  1.0342 -1.1985  1.6180
   49CHL1   C23 6091   0.077   4.733   8.905 -0.2474  0.7312 -0.6916
   49CHL1  H23A 6092   0.106   4.626   8.894 -1.7996  0.3888 -1.7411
   49CHL1  H23B 6093  -0.025   4.726   8.949 -1.9428 -0.8496 -4.4095
   49CHL1   C24 6094   0.078   4.809   8.778  0.6579  0.2608  0.0454
   49CHL1  H24A 6095   0.055   4.918   8.788 -1.4782  0.0123 -1.4995
   49CHL1  H24B 6096   0.179   4.801   8.733  1.1229  0.9105  0.9509
   49CHL1   C25 6097  -0.016   4.746   8.660  0.2323  0.3987  0.0613
   49CHL1   H25 6098   0.018   4.807   8.574  2.3373  0.2114  0.6871
   49CHL1   C26 6099   0.007   4.597   8.636 -0.4267  0.2450 -0.5834
   49CHL1  H26A 6100   0.111   4.585   8.598  0.1695  3.1584 -0.1015
   49CHL1  H26B 6101   0.006   4.536   8.729  1.8196 -1.4537 -1.5820
   49CHL1  H26C 6102  -0.066   4.557   8.563  0.3387 -2.1508 -0.1243
   49CHL1   C27 6103  -0.164   4.785   8.681  0.4481  0.4643  0.5798
   49CHL1  H27A 6104  -0.233   4.765   8.597  0.4169 -0.0507  0.7219
   49CHL1  H27B 6105  -0.202   4.731   8.771  2.0779 -1.0158  0.4429
   49CHL1  H27C 6106  -0.160   4.893   8.704  1.7254  0.2218  1.6273
   50CHL1    C3 6107   3.132   6.582   9.992  0.0102  0.3652  0.7346
   50CHL1    H3 6108   3.162   6.688   9.979  0.4254  0.1800  0.1506
   50CHL1    O3 6109   3.133   6.539  10.127  0.1060 -0.1005 -0.0137
   50CHL1   H3' 6110   3.073   6.602  10.168 -0.5529  1.4857 -3.0917
   50CHL1    C4 6111   2.992   6.570   9.933  0.1463  0.0388  0.1665
   50CHL1   H4A 6112   2.948   6.471   9.956  1.7614 -0.1337  2.9913
   50CHL1   H4B 6113   2.934   6.652   9.981 -0.0499  0.0138 -0.0291
   50CHL1    C5 6114   2.993   6.598   9.784  0.3386  0.4151 -0.3937
   50CHL1    C6 6115   2.927   6.696   9.720 -1.3196  0.5251  0.1821
   50CHL1    H6 6116   2.867   6.766   9.781  1.3815  1.1742  2.2901
   50CHL1    C7 6117   2.922   6.717   9.568  0.3632  0.2717 -0.1397
   50CHL1   H7A 6118   2.818   6.741   9.535  0.1640 -2.5406 -1.8224
   50CHL1   H7B 6119   2.975   6.809   9.537  1.9383 -0.0742  1.4072
   50CHL1    C8 6120   2.973   6.599   9.489 -0.0594  0.0482  0.3210
   50CHL1    H8 6121   2.887   6.528   9.489 -1.0035  1.1069 -1.7574
   50CHL1   C14 6122   2.999   6.630   9.346 -0.3252  0.4672  0.3990
   50CHL1   H14 6123   3.070   6.716   9.355 -1.9934  2.1876 -1.8439
   50CHL1   C15 6124   2.886   6.701   9.270  0.7439  0.4046 -0.3274
   50CHL1  H15A 6125   2.796   6.637   9.280  1.6102 -0.8381 -0.3032
   50CHL1  H15B 6126   2.879   6.803   9.315 -0.0341  0.7297 -1.1600
   50CHL1   C16 6127   2.941   6.683   9.125  0.1039 -0.1140  0.0148
   50CHL1  H16A 6128   2.868   6.623   9.066  0.3486 -0.7512  0.3558
   50CHL1  H16B 6129   2.945   6.788   9.090  1.1626  0.2398  1.1230
   50CHL1   C17 6130   3.077   6.603   9.125  0.5409 -0.2890  0.5707
   50CHL1   H17 6131   3.155   6.681   9.141  1.7673 -0.6167 -2.9234
   50CHL1   C13 6132   3.059   6.520   9.250 -0.2228  0.1751  0.2050
   50CHL1   C18 6133   2.954   6.409   9.223  0.0132  0.0605 -0.1940
   50CHL1  H18A 6134   2.990   6.318   9.169 -3.2242 -1.5875  0.1838
   50CHL1  H18B 6135   2.930   6.370   9.325 -1.0015  1.8186  0.2693
   50CHL1  H18C 6136   2.867   6.445   9.166 -0.3252  0.0424  0.3030
   50CHL1   C12 6137   3.182   6.450   9.312  0.4919 -0.0062 -0.5814
   50CHL1  H12A 6138   3.213   6.364   9.248 -1.4455 -0.5273 -0.9112
   50CHL1  H12B 6139   3.269   6.518   9.316 -0.1544  0.8553 -0.8756
   50CHL1   C11 6140   3.155   6.414   9.465 -0.2085  0.6301  0.2263
   50CHL1  H11A 6141   3.074   6.338   9.462  1.8230 -1.6361 -0.3345
   50CHL1  H11B 6142   3.244   6.362   9.506  0.9762  0.9726 -1.7463
   50CHL1    C9 6143   3.102   6.535   9.551 -0.3391  0.9331 -0.1856
   50CHL1    H9 6144   3.174   6.617   9.528 -1.2418  1.6552 -0.5119
   50CHL1   C10 6145   3.087   6.501   9.706  0.4477  0.1492  1.0199
   50CHL1   C19 6146   3.014   6.360   9.718  0.1731  0.7834 -1.2448
   50CHL1  H19A 6147   3.099   6.290   9.698  1.2085  1.0767  1.6314
   50CHL1  H19B 6148   2.985   6.335   9.822  0.0742  1.2781 -1.1518
   50CHL1  H19C 6149   2.932   6.343   9.645  1.0133  0.2167 -2.0977
   50CHL1    C1 6150   3.229   6.510   9.767  0.0346  0.2851  0.9554
   50CHL1   H1A 6151   3.299   6.439   9.718 -0.6332  0.5393 -0.4210
   50CHL1   H1B 6152   3.272   6.610   9.745  1.0271 -0.2128  0.5747
   50CHL1    C2 6153   3.231   6.486   9.913 -0.3774  0.5767  0.2153
   50CHL1   H2A 6154   3.333   6.497   9.955 -0.6492  0.8011  0.8236
   50CHL1   H2B 6155   3.205   6.379   9.932  0.5061  0.5767  1.5206
   50CHL1   C20 6156   3.115   6.539   8.988 -0.4242  0.2451  0.8284
   50CHL1   H20 6157   3.052   6.448   8.981  0.6261 -0.4166 -0.9611
   50CHL1   C21 6158   3.257   6.487   8.981  0.4033 -0.4594 -0.3122
   50CHL1  H21A 6159   3.285   6.423   8.895 -0.7430  0.0946 -1.1188
   50CHL1  H21B 6160   3.282   6.425   9.070  0.4071 -0.7005 -0.4812
   50CHL1  H21C 6161   3.318   6.580   8.989 -1.3640  0.6245  1.4903
   50CHL1   C22 6162   3.082   6.621   8.859 -0.2035  0.3109 -0.5172
   50CHL1  H22A 6163   2.980   6.663   8.873 -0.8376 -0.6733 -1.9275
   50CHL1  H22B 6164   3.159   6.700   8.867 -0.0720  0.1573 -0.2382
   50CHL1   C23 6165   3.086   6.541   8.731 -0.5290  0.1192 -0.0228
   50CHL1  H23A 6166   3.072   6.622   8.656  0.7314  0.2318 -0.1525
   50CHL1  H23B 6167   3.187   6.498   8.718 -0.2192  1.0318 -0.6742
   50CHL1   C24 6168   2.981   6.435   8.708  0.1426  0.3495  0.2086
   50CHL1  H24A 6169   3.014   6.343   8.761 -0.4788  0.1812  0.3068
   50CHL1  H24B 6170   2.875   6.461   8.729 -0.0240 -1.4735  1.9949
   50CHL1   C25 6171   2.982   6.379   8.566  0.2447 -0.5479  0.0165
   50CHL1   H25 6172   2.999   6.465   8.497  0.1715 -1.7268 -1.5343
   50CHL1   C26 6173   3.087   6.274   8.535  0.2189 -0.1831 -0.1929
   50CHL1  H26A 6174   3.086   6.240   8.429 -1.7758 -2.5989  0.5146
   50CHL1  H26B 6175   3.188   6.309   8.564  0.1356  0.6502 -0.8728
   50CHL1  H26C 6176   3.055   6.184   8.593  0.1908  0.4068  0.7263
   50CHL1   C27 6177   2.846   6.311   8.530  0.0781 -0.1496 -0.2292
   50CHL1  H27A 6178   2.848   6.277   8.424 -2.7147  2.6913 -1.3566
   50CHL1  H27B 6179   2.801   6.240   8.602 -1.1219  1.9096  1.1664
   50CHL1  H27C 6180   2.781   6.401   8.520  1.8012  1.6408  3.0134
   51CHL1    C3 6181   4.364   3.144  10.099  0.1900 -0.1427  0.0666
   51CHL1    H3 6182   4.274   3.085  10.070  1.8164 -2.7134 -0.1683
   51CHL1    O3 6183   4.403   3.123  10.238 -0.6644 -0.1220  0.0036
   51CHL1   H3' 6184   4.486   3.169  10.251 -0.3680  0.0791 -2.2292
   51CHL1    C4 6185   4.480   3.074  10.023  0.6444  0.2237 -0.6572
   51CHL1   H4A 6186   4.576   3.118  10.055  0.3853  1.8882 -1.9942
   51CHL1   H4B 6187   4.480   2.965  10.047  0.3987 -0.1369 -2.1736
   51CHL1    C5 6188   4.472   3.095   9.873 -0.0742  0.4260 -0.1080
   51CHL1    C6 6189   4.475   2.989   9.794 -0.3059 -0.0332 -0.3138
   51CHL1    H6 6190   4.474   2.884   9.830 -0.1812  0.3175  0.7594
   51CHL1    C7 6191   4.467   2.989   9.646 -0.2139 -0.5125  0.0906
   51CHL1   H7A 6192   4.540   2.914   9.608 -2.9410 -3.4283  0.2024
   51CHL1   H7B 6193   4.364   2.955   9.622  0.1201 -0.8173 -0.9507
   51CHL1    C8 6194   4.500   3.132   9.596 -0.1981 -0.4556  0.1575
   51CHL1    H8 6195   4.611   3.140   9.596 -0.0860 -1.6284 -0.8419
   51CHL1   C14 6196   4.458   3.143   9.449 -0.6299  0.5612 -0.2673
   51CHL1   H14 6197   4.347   3.135   9.439 -0.3616 -3.6845 -2.0768
   51CHL1   C15 6198   4.506   3.037   9.355 -0.0172  0.2974  0.3189
   51CHL1  H15A 6199   4.613   3.018   9.376  0.3985  2.2331  0.2109
   51CHL1  H15B 6200   4.447   2.944   9.369  0.0405  0.4272  1.5470
   51CHL1   C16 6201   4.488   3.102   9.215 -0.7305  0.2091 -0.1145
   51CHL1  H16A 6202   4.580   3.076   9.157 -1.6055 -1.5783 -0.7602
   51CHL1  H16B 6203   4.400   3.053   9.170  0.1794 -0.3848 -1.3046
   51CHL1   C17 6204   4.472   3.251   9.236  0.3313 -0.5882 -0.0224
   51CHL1   H17 6205   4.361   3.259   9.227  0.3547 -0.5620 -0.3256
   51CHL1   C13 6206   4.504   3.277   9.385  0.2668  0.3299 -0.2290
   51CHL1   C18 6207   4.657   3.298   9.403  0.5849  0.3961  0.0536
   51CHL1  H18A 6208   4.704   3.375   9.338 -0.5909  1.3341  0.2863
   51CHL1  H18B 6209   4.687   3.315   9.508 -1.3572  0.2676  0.6729
   51CHL1  H18C 6210   4.702   3.201   9.372  0.7154  0.4299  0.1400
   51CHL1   C12 6211   4.429   3.391   9.455 -0.1450 -0.0070 -0.2191
   51CHL1  H12A 6212   4.454   3.493   9.418  0.3931 -0.0990 -0.1152
   51CHL1  H12B 6213   4.324   3.374   9.422 -0.2596  1.3555 -0.6192
   51CHL1   C11 6214   4.458   3.391   9.601  0.4884  0.2783 -0.2634
   51CHL1  H11A 6215   4.562   3.428   9.617  0.0718  1.2705  0.1990
   51CHL1  H11B 6216   4.395   3.463   9.657 -0.9231 -0.1297 -1.2681
   51CHL1    C9 6217   4.434   3.248   9.673 -0.8851 -0.3625  0.1794
   51CHL1    H9 6218   4.326   3.222   9.669 -0.2769 -3.1112 -0.0137
   51CHL1   C10 6219   4.462   3.238   9.830 -0.3971  0.5780  0.2966
   51CHL1   C19 6220   4.596   3.320   9.854  0.4059  0.5870  0.0885
   51CHL1  H19A 6221   4.648   3.294   9.948 -1.1592 -0.8547  0.6014
   51CHL1  H19B 6222   4.663   3.299   9.767 -1.6649 -2.1525 -0.9741
   51CHL1  H19C 6223   4.576   3.430   9.846 -1.2820  0.3601  0.7725
   51CHL1    C1 6224   4.363   3.314   9.918  0.8263 -0.1208 -0.2588
   51CHL1   H1A 6225   4.393   3.420   9.903  1.1720 -0.0966  0.5528
   51CHL1   H1B 6226   4.263   3.298   9.872  0.8254  2.3536 -1.2746
   51CHL1    C2 6227   4.366   3.289  10.072 -0.1285  0.0514 -0.5573
   51CHL1   H2A 6228   4.280   3.345  10.114  0.0910 -0.1299  0.1514
   51CHL1   H2B 6229   4.461   3.334  10.111 -0.9343  3.8261 -2.5003
   51CHL1   C20 6230   4.528   3.331   9.124 -0.0338 -0.1233  0.0601
   51CHL1   H20 6231   4.639   3.321   9.118  0.0929  0.5175  1.1498
   51CHL1   C21 6232   4.501   3.479   9.143  0.5293 -0.8527  0.0438
   51CHL1  H21A 6233   4.566   3.521   9.223  0.6200  0.0021 -0.4650
   51CHL1  H21B 6234   4.395   3.494   9.172  1.0885  1.4114  1.1965
   51CHL1  H21C 6235   4.509   3.532   9.045  0.0101 -1.5945 -0.4059
   51CHL1   C22 6236   4.465   3.292   8.984  0.4655  0.3436 -0.6668
   51CHL1  H22A 6237   4.429   3.187   8.981  1.4044  0.0054 -0.4322
   51CHL1  H22B 6238   4.382   3.363   8.966  1.5177  1.4048 -1.5251
   51CHL1   C23 6239   4.560   3.299   8.865  1.1233  1.0849  0.3852
   51CHL1  H23A 6240   4.613   3.396   8.855  0.6576  1.1531 -1.8773
   51CHL1  H23B 6241   4.632   3.218   8.888  2.7061  2.1741 -0.5975
   51CHL1   C24 6242   4.504   3.261   8.729 -0.7190  0.3221 -0.0582
   51CHL1  H24A 6243   4.464   3.159   8.747 -0.4355  0.0532 -0.9264
   51CHL1  H24B 6244   4.431   3.336   8.692 -0.3270 -0.3991 -2.4581
   51CHL1   C25 6245   4.616   3.254   8.617 -0.3481  0.9073 -0.1470
   51CHL1   H25 6246   4.650   3.360   8.608 -0.3133  1.1439  2.0863
   51CHL1   C26 6247   4.735   3.167   8.656  0.0747 -0.1918  0.0104
   51CHL1  H26A 6248   4.718   3.061   8.686  0.1807 -0.6846 -1.5767
   51CHL1  H26B 6249   4.812   3.152   8.577 -0.6206 -1.6958 -0.4268
   51CHL1  H26C 6250   4.795   3.215   8.736  1.7116 -1.3871 -0.4325
   51CHL1   C27 6251   4.555   3.209   8.483 -0.5153  0.4573 -0.3464
   51CHL1  H27A 6252   4.503   3.111   8.489 -2.2448  1.3839  0.6329
   51CHL1  H27B 6253   4.487   3.289   8.446 -2.5899 -0.9053  0.3146
   51CHL1  H27C 6254   4.640   3.199   8.412  0.7300  0.8341  1.0557
   52CHL1    C3 6255   1.207   1.531   9.968 -0.2375 -0.4891 -0.1849
   52CHL1    H3 6256   1.097   1.537   9.977 -0.2297 -0.0668 -0.3499
   52CHL1    O3 6257   1.264   1.507  10.098 -0.3053  0.5477  0.2247
   52CHL1   H3' 6258   1.360   1.502  10.095 -0.2054 -0.0544  2.6572
   52CHL1    C4 6259   1.248   1.423   9.873 -0.5092 -0.4894 -0.4391
   52CHL1   H4A 6260   1.357   1.405   9.868 -0.3159  0.3688  0.3936
   52CHL1   H4B 6261   1.206   1.325   9.905  0.5502 -0.2646  1.8078
   52CHL1    C5 6262   1.210   1.439   9.728 -0.6950 -0.5775  0.0982
   52CHL1    C6 6263   1.149   1.346   9.652 -0.7391  0.1973  0.4667
   52CHL1    H6 6264   1.120   1.251   9.700 -0.8803  1.0098  2.0557
   52CHL1    C7 6265   1.117   1.357   9.499 -0.4770 -0.2950 -0.1725
   52CHL1   H7A 6266   1.151   1.262   9.451  0.1941 -0.9443  1.5023
   52CHL1   H7B 6267   1.009   1.360   9.475 -0.5719 -0.6669  0.1880
   52CHL1    C8 6268   1.200   1.475   9.434 -0.0662  0.1982  0.2253
   52CHL1    H8 6269   1.301   1.431   9.418 -1.4285 -2.9950 -0.3870
   52CHL1   C14 6270   1.138   1.510   9.295 -0.4596 -0.4990 -0.0405
   52CHL1   H14 6271   1.033   1.540   9.313 -0.4067  0.0616 -0.6298
   52CHL1   C15 6272   1.133   1.390   9.193 -0.0864  0.3042 -0.3444
   52CHL1  H15A 6273   1.223   1.326   9.190 -2.0321 -2.6354 -0.8751
   52CHL1  H15B 6274   1.045   1.322   9.198  0.1187  0.0684  0.0890
   52CHL1   C16 6275   1.117   1.471   9.054 -0.4740  0.7569  0.3270
   52CHL1  H16A 6276   1.200   1.428   8.994  1.2982  1.1729  2.3715
   52CHL1  H16B 6277   1.028   1.439   8.996  1.5307 -2.0369 -1.4818
   52CHL1   C17 6278   1.147   1.626   9.077  0.4886  0.4738  0.0461
   52CHL1   H17 6279   1.050   1.673   9.102 -0.5267 -1.1218 -0.7049
   52CHL1   C13 6280   1.220   1.611   9.220  0.7253 -0.4554  0.7664
   52CHL1   C18 6281   1.368   1.571   9.190 -0.4758 -0.7422  0.2985
   52CHL1  H18A 6282   1.414   1.531   9.283 -1.5299 -0.3822  1.0024
   52CHL1  H18B 6283   1.391   1.493   9.114  2.2125  0.2578 -0.0375
   52CHL1  H18C 6284   1.423   1.657   9.146  2.0557 -1.6678  1.4456
   52CHL1   C12 6285   1.226   1.740   9.306  0.4668 -0.0527 -0.7326
   52CHL1  H12A 6286   1.299   1.814   9.266 -1.0899  1.6873 -0.4660
   52CHL1  H12B 6287   1.123   1.779   9.298 -0.4626 -2.6337 -3.8606
   52CHL1   C11 6288   1.275   1.723   9.454  0.4244 -0.1078  0.6587
   52CHL1  H11A 6289   1.385   1.709   9.453  0.6447  0.9379 -2.8612
   52CHL1  H11B 6290   1.255   1.815   9.514  0.2403 -2.0697  3.8266
   52CHL1    C9 6291   1.211   1.599   9.528 -0.4964 -0.2402 -0.0255
   52CHL1    H9 6292   1.106   1.627   9.549 -0.0591  2.9594 -1.6333
   52CHL1   C10 6293   1.269   1.565   9.668  0.9667 -0.4903 -0.2855
   52CHL1   C19 6294   1.420   1.557   9.660  0.2533 -0.5931  0.2727
   52CHL1  H19A 6295   1.463   1.500   9.745 -1.6945 -0.2156  1.5753
   52CHL1  H19B 6296   1.450   1.523   9.559  0.6046  1.6492 -0.4335
   52CHL1  H19C 6297   1.458   1.661   9.669 -1.3420 -0.0025  0.5565
   52CHL1    C1 6298   1.224   1.682   9.767 -1.0716 -0.1449 -0.8424
   52CHL1   H1A 6299   1.279   1.769   9.724  0.9991 -1.5162 -1.1129
   52CHL1   H1B 6300   1.114   1.686   9.757 -0.9377 -1.3757 -4.8740
   52CHL1    C2 6301   1.266   1.668   9.916  0.3937 -0.0487 -0.5420
   52CHL1   H2A 6302   1.219   1.755   9.968 -0.2576  1.2838 -3.2103
   52CHL1   H2B 6303   1.375   1.665   9.936 -0.1171 -1.6515  2.7446
   52CHL1   C20 6304   1.218   1.709   8.965 -0.1626 -0.3328  0.6784
   52CHL1   H20 6305   1.324   1.677   8.963 -0.3789 -1.2049 -2.6190
   52CHL1   C21 6306   1.208   1.858   8.990 -0.1454  0.1911  0.2840
   52CHL1  H21A 6307   1.253   1.925   8.913 -1.9740  0.3710 -0.6761
   52CHL1  H21B 6308   1.248   1.899   9.085 -1.3053  3.2148 -0.3947
   52CHL1  H21C 6309   1.104   1.892   9.005 -0.9482 -2.2508  0.6257
   52CHL1   C22 6310   1.163   1.667   8.826 -0.6336 -0.5979  1.1049
   52CHL1  H22A 6311   1.171   1.557   8.810 -1.6214 -0.6419  0.8864
   52CHL1  H22B 6312   1.054   1.688   8.819 -0.3451  0.4505 -1.5658
   52CHL1   C23 6313   1.237   1.739   8.702  0.1147  0.1175  0.2773
   52CHL1  H23A 6314   1.194   1.692   8.611 -0.1030  1.9184 -0.5805
   52CHL1  H23B 6315   1.202   1.844   8.709 -2.2250 -0.6348  0.6852
   52CHL1   C24 6316   1.392   1.713   8.689 -0.4030 -0.2833 -0.1769
   52CHL1  H24A 6317   1.433   1.751   8.593  2.2211 -1.1792  0.5203
   52CHL1  H24B 6318   1.443   1.764   8.773  2.0231 -3.3020  0.3552
   52CHL1   C25 6319   1.435   1.564   8.694  0.1285  0.0574  0.0282
   52CHL1   H25 6320   1.397   1.516   8.787 -1.1965 -0.6429 -0.8308
   52CHL1   C26 6321   1.382   1.482   8.575 -0.1726  0.0614  0.3726
   52CHL1  H26A 6322   1.383   1.372   8.593  0.2351 -0.7226 -3.4855
   52CHL1  H26B 6323   1.277   1.502   8.543 -0.5900 -0.6492  1.2436
   52CHL1  H26C 6324   1.452   1.497   8.490  1.5835 -1.7513  1.3919
   52CHL1   C27 6325   1.593   1.540   8.693  0.6194 -0.1485 -0.4589
   52CHL1  H27A 6326   1.627   1.594   8.784 -0.8622  1.2671 -0.6768
   52CHL1  H27B 6327   1.625   1.434   8.696  4.8661  0.8474 -2.5702
   52CHL1  H27C 6328   1.625   1.598   8.604 -2.0754  2.5197  0.1397
   53CHL1    C3 6329   2.325   1.235   9.903 -0.0714  0.1075 -0.0464
   53CHL1    H3 6330   2.361   1.337   9.875 -2.5964  1.2125  0.3865
   53CHL1    O3 6331   2.290   1.252  10.042 -0.0978  0.6795 -0.2743
   53CHL1   H3' 6332   2.220   1.192  10.068  1.0731 -1.7298 -2.2231
   53CHL1    C4 6333   2.213   1.208   9.811 -0.4452 -0.2935  0.1712
   53CHL1   H4A 6334   2.162   1.115   9.845 -1.7021  1.6895  4.3485
   53CHL1   H4B 6335   2.139   1.290   9.824 -2.1036 -1.8388  0.9486
   53CHL1    C5 6336   2.255   1.202   9.665 -0.1122  0.1729 -0.1949
   53CHL1    C6 6337   2.203   1.279   9.567  0.5929 -0.4979  0.3794
   53CHL1    H6 6338   2.131   1.362   9.579  2.4754  1.2460  0.0819
   53CHL1    C7 6339   2.242   1.255   9.422  0.5018 -0.0836 -0.0215
   53CHL1   H7A 6340   2.147   1.245   9.364  0.0128  1.0780  0.5376
   53CHL1   H7B 6341   2.284   1.351   9.386  1.3259  0.1757  1.5503
   53CHL1    C8 6342   2.336   1.134   9.398 -0.3297 -0.7333 -0.4891
   53CHL1    H8 6343   2.272   1.044   9.391  0.0940 -1.1331  0.6626
   53CHL1   C14 6344   2.421   1.153   9.274  0.7427  0.3350  0.2584
   53CHL1   H14 6345   2.490   1.238   9.294  0.2270  0.5191  1.2755
   53CHL1   C15 6346   2.352   1.199   9.146  0.9872 -0.0153  0.2651
   53CHL1  H15A 6347   2.255   1.152   9.120  0.7862  0.9813 -0.8683
   53CHL1  H15B 6348   2.341   1.309   9.138  1.5035 -0.0506 -1.2292
   53CHL1   C16 6349   2.445   1.149   9.035 -0.4296 -0.1330  0.8447
   53CHL1  H16A 6350   2.400   1.074   8.967  0.9739 -1.5053  1.3517
   53CHL1  H16B 6351   2.471   1.241   8.979 -0.6476  0.4734  1.7214
   53CHL1   C17 6352   2.564   1.081   9.102  0.3629 -0.0611  0.1426
   53CHL1   H17 6353   2.639   1.158   9.127  2.4355 -1.6335 -0.9471
   53CHL1   C13 6354   2.508   1.034   9.235 -0.0954 -0.4036 -0.2177
   53CHL1   C18 6355   2.425   0.915   9.208 -0.0996  0.4823 -0.3208
   53CHL1  H18A 6356   2.492   0.827   9.199  0.3250  0.4313  2.4203
   53CHL1  H18B 6357   2.358   0.892   9.293 -0.6954  2.0857 -0.3148
   53CHL1  H18C 6358   2.369   0.919   9.112  1.8407  0.5555 -1.5043
   53CHL1   C12 6359   2.610   1.024   9.344  0.5945  0.4761  0.1136
   53CHL1  H12A 6360   2.686   0.945   9.330  0.5873  0.5864 -0.6326
   53CHL1  H12B 6361   2.665   1.120   9.355 -1.7566  2.0760 -1.0805
   53CHL1   C11 6362   2.547   1.005   9.481  0.9433 -0.5366 -0.4915
   53CHL1  H11A 6363   2.515   0.901   9.499  1.6586 -0.6814 -0.0078
   53CHL1  H11B 6364   2.634   1.027   9.547  0.6351  2.5700 -0.9354
   53CHL1    C9 6365   2.437   1.119   9.505  0.3225 -0.4392 -0.5342
   53CHL1    H9 6366   2.494   1.213   9.521  1.7614 -1.0276 -1.9986
   53CHL1   C10 6367   2.369   1.100   9.644  0.1689 -0.5463 -0.5178
   53CHL1   C19 6368   2.307   0.958   9.656  0.6828 -0.0942  0.7820
   53CHL1  H19A 6369   2.225   0.940   9.584  2.2454  1.2897 -1.4846
   53CHL1  H19B 6370   2.376   0.874   9.636 -2.2645 -2.4605 -0.1844
   53CHL1  H19C 6371   2.264   0.955   9.758  0.8329  0.1105  0.8531
   53CHL1    C1 6372   2.479   1.104   9.755  0.3229  0.1314 -0.1362
   53CHL1   H1A 6373   2.518   1.000   9.747 -0.8076 -0.1820 -3.7889
   53CHL1   H1B 6374   2.550   1.187   9.733  0.6479 -0.0580  0.1848
   53CHL1    C2 6375   2.431   1.119   9.896 -0.2521  0.0686 -0.3773
   53CHL1   H2A 6376   2.519   1.140   9.961  0.4038  0.9873 -1.5168
   53CHL1   H2B 6377   2.377   1.031   9.938  0.4821  0.1990  0.9132
   53CHL1   C20 6378   2.639   0.975   9.008  0.1091  0.4029 -0.0392
   53CHL1   H20 6379   2.560   0.903   8.978  0.8044  0.6000 -2.5393
   53CHL1   C21 6380   2.755   0.897   9.071 -1.2208  0.0490 -0.7071
   53CHL1  H21A 6381   2.731   0.811   9.138 -0.3393 -1.1499 -1.8847
   53CHL1  H21B 6382   2.810   0.969   9.137 -1.3228 -0.0964 -0.4608
   53CHL1  H21C 6383   2.819   0.859   8.989  0.2524  0.2218  0.3166
   53CHL1   C22 6384   2.687   1.049   8.882  0.2048 -0.6846 -0.2895
   53CHL1  H22A 6385   2.608   1.120   8.851  0.1384  0.2315  1.8577
   53CHL1  H22B 6386   2.775   1.109   8.913  0.4068 -1.3382  0.4325
   53CHL1   C23 6387   2.724   0.971   8.760  0.5133 -0.2616  0.7419
   53CHL1  H23A 6388   2.830   0.940   8.770  0.6831  0.4725  1.2991
   53CHL1  H23B 6389   2.650   0.888   8.757  0.4167 -0.1536 -0.0275
   53CHL1   C24 6390   2.710   1.051   8.636  0.5883  0.5923 -0.7758
   53CHL1  H24A 6391   2.602   1.075   8.623  0.7533  0.1178 -3.8730
   53CHL1  H24B 6392   2.769   1.145   8.633  0.7813  0.4444 -1.6956
   53CHL1   C25 6393   2.730   0.968   8.510 -0.1587 -0.0652  0.2282
   53CHL1   H25 6394   2.815   0.898   8.522 -1.4236 -1.6344  0.4162
   53CHL1   C26 6395   2.607   0.889   8.474  0.7902 -0.3493  0.4973
   53CHL1  H26A 6396   2.533   0.951   8.419 -1.2749 -1.6482  1.6671
   53CHL1  H26B 6397   2.625   0.805   8.404  0.2804 -1.4073  1.5921
   53CHL1  H26C 6398   2.560   0.852   8.568 -0.1618 -0.3982  0.0201
   53CHL1   C27 6399   2.761   1.071   8.399 -0.0686 -0.5049 -0.4584
   53CHL1  H27A 6400   2.846   1.126   8.446 -1.0572 -0.4669  1.3763
   53CHL1  H27B 6401   2.789   1.025   8.302 -2.0238  0.7438 -1.6940
   53CHL1  H27C 6402   2.682   1.148   8.387 -1.7079 -1.9894  0.4677
   54CHL1    C3 6403   2.466   2.705  10.020  0.0103  0.2314 -0.1818
   54CHL1    H3 6404   2.381   2.761   9.975 -0.8064 -0.7981  0.0318
   54CHL1    O3 6405   2.473   2.681  10.164 -0.0554 -1.1749 -0.1211
   54CHL1   H3' 6406   2.456   2.588  10.178 -4.3733 -0.4603  1.0113
   54CHL1    C4 6407   2.470   2.567   9.955 -0.0676 -0.2609 -0.6159
   54CHL1   H4A 6408   2.549   2.514  10.014 -0.3721  3.5459  3.8277
   54CHL1   H4B 6409   2.382   2.503   9.976  0.9024 -1.7153 -0.7725
   54CHL1    C5 6410   2.484   2.564   9.803  0.0881  0.0936 -0.3097
   54CHL1    C6 6411   2.395   2.508   9.725  0.0600  0.6913  0.4893
   54CHL1    H6 6412   2.310   2.446   9.757  0.0747 -0.1031 -0.9018
   54CHL1    C7 6413   2.403   2.517   9.573 -0.9617 -0.0483  0.0366
   54CHL1   H7A 6414   2.388   2.415   9.533  1.9770 -0.5047 -0.0770
   54CHL1   H7B 6415   2.319   2.586   9.548 -0.4249  0.8514  0.6443
   54CHL1    C8 6416   2.542   2.566   9.515  0.0454 -0.6309 -0.0539
   54CHL1    H8 6417   2.623   2.490   9.523  0.7940 -0.1823 -2.4971
   54CHL1   C14 6418   2.526   2.616   9.375  0.3212 -0.3792  0.1448
   54CHL1   H14 6419   2.464   2.707   9.372 -0.1985 -0.7267  0.2140
   54CHL1   C15 6420   2.457   2.532   9.269  0.0190  0.1853  0.7906
   54CHL1  H15A 6421   2.497   2.429   9.264  2.6697  1.2032 -0.5683
   54CHL1  H15B 6422   2.346   2.534   9.272  0.0130  0.9203  3.5720
   54CHL1   C16 6423   2.509   2.583   9.132 -0.0547 -0.7863 -0.7535
   54CHL1  H16A 6424   2.562   2.506   9.072 -0.4773 -1.7588  0.0962
   54CHL1  H16B 6425   2.430   2.617   9.061 -1.6481  0.3073  1.4085
   54CHL1   C17 6426   2.607   2.697   9.169  0.0892  0.3445 -0.4154
   54CHL1   H17 6427   2.564   2.799   9.178  0.0414  0.4406 -1.5325
   54CHL1   C13 6428   2.663   2.664   9.307 -0.2290  0.4488  0.5438
   54CHL1   C18 6429   2.770   2.551   9.295  0.0218 -0.2614 -0.4759
   54CHL1  H18A 6430   2.804   2.508   9.392  1.7089  1.4287 -0.2675
   54CHL1  H18B 6431   2.750   2.468   9.224  1.8729 -1.2596  0.1000
   54CHL1  H18C 6432   2.866   2.586   9.251  1.6810 -3.2763  0.4168
   54CHL1   C12 6433   2.712   2.783   9.391  0.0717  0.1436 -1.1296
   54CHL1  H12A 6434   2.815   2.810   9.358  1.0169 -0.4779  1.1260
   54CHL1  H12B 6435   2.648   2.869   9.362 -0.7065 -0.0737 -0.1115
   54CHL1   C11 6436   2.718   2.751   9.538  1.0354  0.3964 -0.3189
   54CHL1  H11A 6437   2.794   2.670   9.544  0.6830 -0.1360 -2.2675
   54CHL1  H11B 6438   2.755   2.839   9.595  0.5909 -0.2400  0.9993
   54CHL1    C9 6439   2.596   2.682   9.595 -0.0783 -0.4312 -0.2123
   54CHL1    H9 6440   2.515   2.758   9.593 -2.3940 -2.7422  0.2981
   54CHL1   C10 6441   2.601   2.654   9.750 -0.4801 -0.1852 -0.5136
   54CHL1   C19 6442   2.728   2.565   9.777  0.7379  0.3201  0.3434
   54CHL1  H19A 6443   2.814   2.633   9.754  0.7268 -0.1850 -1.3548
   54CHL1  H19B 6444   2.737   2.548   9.886 -0.7757 -0.7092  0.3412
   54CHL1  H19C 6445   2.722   2.476   9.711 -2.9130  0.7935 -0.1905
   54CHL1    C1 6446   2.606   2.786   9.826 -0.1994 -0.5879 -0.4737
   54CHL1   H1A 6447   2.690   2.849   9.790  0.1630 -2.0934 -2.4304
   54CHL1   H1B 6448   2.515   2.836   9.785 -0.4518 -1.9746 -1.6927
   54CHL1    C2 6449   2.596   2.771   9.983  0.3529  0.1664  0.0618
   54CHL1   H2A 6450   2.598   2.875  10.023 -1.5485 -0.1691  1.1460
   54CHL1   H2B 6451   2.689   2.723  10.019  1.7198  1.3979 -1.6385
   54CHL1   C20 6452   2.701   2.717   9.054  0.2715 -0.0639 -0.2228
   54CHL1   H20 6453   2.759   2.628   9.020  0.8267  0.8002 -1.6033
   54CHL1   C21 6454   2.813   2.825   9.089  0.9424  0.2087  0.4932
   54CHL1  H21A 6455   2.880   2.775   9.162  0.6138 -1.3113 -0.2165
   54CHL1  H21B 6456   2.768   2.916   9.134 -1.5645  0.1868 -1.7401
   54CHL1  H21C 6457   2.880   2.867   9.011 -1.3058  0.0848 -1.5890
   54CHL1   C22 6458   2.619   2.771   8.928  0.3289  0.3095  0.0443
   54CHL1  H22A 6459   2.523   2.721   8.904  0.2238  0.1362  0.7935
   54CHL1  H22B 6460   2.587   2.874   8.951  0.0589  0.5208 -1.2137
   54CHL1   C23 6461   2.710   2.755   8.801  0.8643  0.5109  0.1080
   54CHL1  H23A 6462   2.776   2.844   8.800 -0.0199  1.2910  3.1529
   54CHL1  H23B 6463   2.784   2.671   8.802  0.4112  0.1097  0.5327
   54CHL1   C24 6464   2.625   2.767   8.664  0.0198 -0.4249 -0.5180
   54CHL1  H24A 6465   2.574   2.671   8.643 -2.0898  0.6728 -0.6098
   54CHL1  H24B 6466   2.551   2.850   8.672  1.1634  0.4309  2.6670
   54CHL1   C25 6467   2.716   2.804   8.537 -0.9655 -0.5465  0.4030
   54CHL1   H25 6468   2.739   2.911   8.558 -0.6886 -0.3042 -1.0469
   54CHL1   C26 6469   2.837   2.715   8.531  0.2239 -0.3043 -0.4304
   54CHL1  H26A 6470   2.896   2.718   8.437  2.0856 -0.9855  0.6559
   54CHL1  H26B 6471   2.912   2.730   8.612  0.0822  0.4550 -0.4382
   54CHL1  H26C 6472   2.793   2.614   8.542 -0.4694  0.0160 -0.2580
   54CHL1   C27 6473   2.623   2.789   8.411  1.3289  0.0521  0.2561
   54CHL1  H27A 6474   2.668   2.839   8.323 -1.0665  1.6847 -0.1169
   54CHL1  H27B 6475   2.609   2.682   8.382 -0.4128  0.0068  1.1526
   54CHL1  H27C 6476   2.523   2.834   8.428  1.5891  0.3034  1.1753
   55CHL1    C3 6477   2.550   6.844  10.161  0.4917  0.2613 -0.3971
   55CHL1    H3 6478   2.631   6.916  10.139  0.8667 -0.4366 -1.3176
   55CHL1    O3 6479   2.523   6.848  10.297  0.2886 -0.1324  0.0523
   55CHL1   H3' 6480   2.604   6.843  10.349 -0.1142 -0.0396  0.7073
   55CHL1    C4 6481   2.436   6.901  10.078 -0.3214  0.0123  0.0708
   55CHL1   H4A 6482   2.341   6.856  10.114 -0.8898  1.0176 -0.1407
   55CHL1   H4B 6483   2.431   7.011  10.096 -3.8707  0.1332 -0.8987
   55CHL1    C5 6484   2.435   6.871   9.928 -0.4746 -0.0021  0.0074
   55CHL1    C6 6485   2.427   6.975   9.844  0.0932  0.0659  0.1966
   55CHL1    H6 6486   2.410   7.073   9.891 -0.0811 -0.1151  0.5184
   55CHL1    C7 6487   2.419   6.954   9.695 -0.1885 -0.1025  0.2187
   55CHL1   H7A 6488   2.327   6.997   9.650 -0.5940 -0.8959  0.2694
   55CHL1   H7B 6489   2.510   6.996   9.646 -0.2112  1.5079  1.5100
   55CHL1    C8 6490   2.406   6.796   9.661 -0.7597 -1.1115  0.0281
   55CHL1    H8 6491   2.307   6.756   9.690 -0.4191 -1.5564  0.6033
   55CHL1   C14 6492   2.426   6.771   9.512 -0.5715  0.5447 -0.3112
   55CHL1   H14 6493   2.521   6.823   9.491  0.2444 -0.0880  1.5351
   55CHL1   C15 6494   2.320   6.836   9.425  0.7847  0.2187  0.3894
   55CHL1  H15A 6495   2.215   6.817   9.455  0.3323  1.1853 -0.4773
   55CHL1  H15B 6496   2.338   6.946   9.434 -1.3226  0.7771 -1.2508
   55CHL1   C16 6497   2.344   6.775   9.289  0.1413  0.4893  0.4061
   55CHL1  H16A 6498   2.252   6.749   9.231  0.2280  1.6856 -0.2849
   55CHL1  H16B 6499   2.396   6.849   9.226  0.3111 -1.4118 -1.8325
   55CHL1   C17 6500   2.433   6.647   9.317 -0.3546 -0.1386 -0.0871
   55CHL1   H17 6501   2.537   6.674   9.290 -1.1987  0.8265 -2.7347
   55CHL1   C13 6502   2.434   6.626   9.472 -0.3028  0.5005 -0.6018
   55CHL1   C18 6503   2.310   6.541   9.515 -0.2051  0.4162 -0.1580
   55CHL1  H18A 6504   2.269   6.574   9.612  0.2776 -0.1737  0.2517
   55CHL1  H18B 6505   2.224   6.545   9.444 -1.5712 -3.5732  0.9870
   55CHL1  H18C 6506   2.331   6.432   9.510 -1.9398  0.0514 -0.0940
   55CHL1   C12 6507   2.562   6.567   9.536  0.2869  0.0974  0.3799
   55CHL1  H12A 6508   2.604   6.465   9.523 -0.9248 -0.4888  0.8914
   55CHL1  H12B 6509   2.645   6.629   9.495 -0.6547 -0.0039 -1.8288
   55CHL1   C11 6510   2.545   6.570   9.693  0.3563  0.4451  0.0346
   55CHL1  H11A 6511   2.475   6.492   9.730  0.1670 -0.3280 -1.8040
   55CHL1  H11B 6512   2.639   6.543   9.745 -1.9962 -2.7278  3.1194
   55CHL1    C9 6513   2.506   6.712   9.745 -1.0026 -0.2349  0.2222
   55CHL1    H9 6514   2.598   6.768   9.717 -0.6106 -0.2874  1.3739
   55CHL1   C10 6515   2.474   6.730   9.897 -0.1269  0.4043  0.5154
   55CHL1   C19 6516   2.350   6.643   9.941 -0.2736  0.3071 -0.2321
   55CHL1  H19A 6517   2.364   6.539   9.904 -0.6040  0.2952 -0.3315
   55CHL1  H19B 6518   2.337   6.634  10.051  0.8442 -0.5408 -0.1570
   55CHL1  H19C 6519   2.254   6.684   9.901 -0.0155  3.0152  1.6795
   55CHL1    C1 6520   2.601   6.687   9.974 -0.2937  0.2707  0.1935
   55CHL1   H1A 6521   2.609   6.579   9.950  0.7018  0.4837 -0.4992
   55CHL1   H1B 6522   2.696   6.735   9.942 -1.4377  2.8855  0.5047
   55CHL1    C2 6523   2.595   6.700  10.129 -0.4642 -0.2585  0.1771
   55CHL1   H2A 6524   2.689   6.677  10.184 -0.1249 -0.6861 -0.5721
   55CHL1   H2B 6525   2.514   6.633  10.165  1.3965 -2.2826  0.8423
   55CHL1   C20 6526   2.407   6.534   9.214  0.6013 -0.2420 -0.9121
   55CHL1   H20 6527   2.308   6.485   9.224 -0.6580  2.5104  1.8395
   55CHL1   C21 6528   2.498   6.413   9.237 -0.6905  0.8642  0.2680
   55CHL1  H21A 6529   2.484   6.356   9.143  0.6651  0.9697 -0.0158
   55CHL1  H21B 6530   2.462   6.369   9.332 -0.9196 -2.1393 -1.1144
   55CHL1  H21C 6531   2.606   6.437   9.231 -0.5978  0.2414 -0.6634
   55CHL1   C22 6532   2.417   6.591   9.070 -0.1765 -0.5047 -0.0779
   55CHL1  H22A 6533   2.400   6.508   8.998  0.7250 -0.2635 -0.5952
   55CHL1  H22B 6534   2.322   6.648   9.066 -0.2814 -0.7082 -0.6511
   55CHL1   C23 6535   2.535   6.675   9.018  0.6920  0.4156 -0.2036
   55CHL1  H23A 6536   2.561   6.761   9.084 -1.1564 -1.0382  2.6256
   55CHL1  H23B 6537   2.630   6.616   9.016  0.4516  0.0301 -0.2379
   55CHL1   C24 6538   2.512   6.723   8.877  0.0964  0.2936  0.0308
   55CHL1  H24A 6539   2.504   6.643   8.800  0.3832  2.8619 -2.8461
   55CHL1  H24B 6540   2.414   6.775   8.878  0.9325  1.9566 -0.7825
   55CHL1   C25 6541   2.621   6.807   8.802 -0.3917  0.0785 -0.7288
   55CHL1   H25 6542   2.628   6.901   8.862  0.7676  1.1233 -2.4142
   55CHL1   C26 6543   2.757   6.750   8.792 -0.2769  0.5643  0.9777
   55CHL1  H26A 6544   2.799   6.737   8.894 -1.2469 -1.3517  1.1780
   55CHL1  H26B 6545   2.768   6.645   8.758  2.0624  1.1209 -0.2184
   55CHL1  H26C 6546   2.829   6.813   8.735 -0.3755  0.1414  0.3845
   55CHL1   C27 6547   2.577   6.844   8.662 -0.6495  0.8971  0.3354
   55CHL1  H27A 6548   2.642   6.921   8.616 -0.4431  0.7696  0.4164
   55CHL1  H27B 6549   2.571   6.751   8.603 -1.7323  0.8262  0.5374
   55CHL1  H27C 6550   2.471   6.878   8.656 -1.6620 -2.1734 -0.9812
   56CHL1    C3 6551   0.947   5.555   9.874  0.6439  0.0692 -0.0354
   56CHL1    H3 6552   0.841   5.535   9.848  0.7513  1.7227 -2.0414
   56CHL1    O3 6553   0.965   5.553  10.011 -0.0855 -0.7722 -0.1927
   56CHL1   H3' 6554   0.983   5.461  10.031 -2.7607 -1.3052  0.2332
   56CHL1    C4 6555   1.039   5.454   9.807 -0.1070 -0.0032 -0.0414
   56CHL1   H4A 6556   1.141   5.469   9.847 -0.0820  1.0415 -0.4620
   56CHL1   H4B 6557   1.007   5.351   9.835  2.7034 -1.3417 -1.3562
   56CHL1    C5 6558   1.046   5.465   9.658 -0.8872  0.5676 -0.1043
   56CHL1    C6 6559   1.021   5.347   9.594  0.2427 -0.1507 -0.1850
   56CHL1    H6 6560   1.003   5.253   9.649  0.2705 -0.1716 -0.2110
   56CHL1    C7 6561   1.028   5.337   9.446 -0.2271  0.4350  0.5522
   56CHL1   H7A 6562   1.076   5.243   9.412  0.3068  0.2241  1.8285
   56CHL1   H7B 6563   0.926   5.336   9.402 -0.0624 -2.7213  0.0684
   56CHL1    C8 6564   1.092   5.460   9.379 -0.1819  0.3500  0.4828
   56CHL1    H8 6565   1.202   5.447   9.388  0.0284  1.6836  0.1807
   56CHL1   C14 6566   1.055   5.462   9.233  0.7554 -0.1376 -0.1158
   56CHL1   H14 6567   0.949   5.495   9.230  0.2353 -1.7915 -0.9668
   56CHL1   C15 6568   1.074   5.333   9.156  0.0399 -0.4091  0.2541
   56CHL1  H15A 6569   1.168   5.275   9.168 -1.1825 -2.5341  0.0817
   56CHL1  H15B 6570   0.995   5.258   9.180  1.5333 -1.6828  1.3496
   56CHL1   C16 6571   1.064   5.377   9.007 -0.2322  0.0699  0.0024
   56CHL1  H16A 6572   1.126   5.314   8.940  1.4680 -0.2495  1.8104
   56CHL1  H16B 6573   0.959   5.356   8.975 -0.4180  1.6492 -0.5172
   56CHL1   C17 6574   1.082   5.529   9.002  0.1229  0.4421  0.6323
   56CHL1   H17 6575   0.982   5.577   8.994 -0.7167 -1.1932  0.9728
   56CHL1   C13 6576   1.128   5.572   9.145 -0.0449  0.0645  0.5247
   56CHL1   C18 6577   1.279   5.542   9.151 -0.1675 -0.3532 -0.0008
   56CHL1  H18A 6578   1.310   5.554   9.257  1.6143  1.5533 -0.6724
   56CHL1  H18B 6579   1.300   5.441   9.111 -0.0495 -0.5760  0.6209
   56CHL1  H18C 6580   1.343   5.613   9.094  2.4271 -0.4160  2.6301
   56CHL1   C12 6581   1.090   5.711   9.201  0.3060  0.7011  0.5245
   56CHL1  H12A 6582   1.145   5.798   9.158  1.7388 -0.7986 -0.8166
   56CHL1  H12B 6583   0.983   5.717   9.170  0.3732  2.9608  0.5260
   56CHL1   C11 6584   1.115   5.716   9.358  0.5801 -0.0457 -0.3120
   56CHL1  H11A 6585   1.225   5.715   9.370  0.9189 -3.1380 -2.4537
   56CHL1  H11B 6586   1.069   5.811   9.392  0.5291  0.7122 -2.3919
   56CHL1    C9 6587   1.053   5.595   9.437 -0.1076  0.0958 -0.6020
   56CHL1    H9 6588   0.944   5.606   9.421 -0.2876  0.2116  0.5989
   56CHL1   C10 6589   1.075   5.598   9.593  0.0940  0.3773  0.4675
   56CHL1   C19 6590   1.226   5.629   9.624 -0.2059  0.0403 -0.0073
   56CHL1  H19A 6591   1.253   5.590   9.725 -1.3093 -2.0153 -0.4510
   56CHL1  H19B 6592   1.289   5.581   9.547 -2.8948 -1.6336 -1.3411
   56CHL1  H19C 6593   1.231   5.739   9.609  1.0890  0.2951  1.9561
   56CHL1    C1 6594   0.979   5.695   9.660  0.1515 -0.1356  0.5315
   56CHL1   H1A 6595   1.014   5.793   9.621 -0.1746  0.5604  1.9306
   56CHL1   H1B 6596   0.875   5.691   9.621  0.4116  0.7668 -0.3050
   56CHL1    C2 6597   0.982   5.695   9.816 -0.1062 -0.1840 -0.2176
   56CHL1   H2A 6598   0.903   5.761   9.859  1.9178  2.5061 -0.3364
   56CHL1   H2B 6599   1.084   5.722   9.851 -0.4919  3.3037 -1.3191
   56CHL1   C20 6600   1.164   5.578   8.878  0.5492 -0.1673  0.9527
   56CHL1   H20 6601   1.267   5.537   8.888 -0.2401 -2.6257 -0.2774
   56CHL1   C21 6602   1.161   5.733   8.889 -0.1033 -0.2106 -0.3126
   56CHL1  H21A 6603   1.203   5.774   8.794  0.1198 -0.7678 -0.4641
   56CHL1  H21B 6604   1.227   5.766   8.972  0.8539 -2.0726 -0.2720
   56CHL1  H21C 6605   1.056   5.768   8.892  0.0363  0.2706 -0.8764
   56CHL1   C22 6606   1.100   5.526   8.743  0.3846 -0.0598 -0.3801
   56CHL1  H22A 6607   1.082   5.417   8.748  0.4709 -0.0205  2.1877
   56CHL1  H22B 6608   0.998   5.570   8.743  0.5215  0.2948 -1.7564
   56CHL1   C23 6609   1.167   5.569   8.609 -0.3146  0.1874  0.1960
   56CHL1  H23A 6610   1.171   5.680   8.602 -0.6240  0.2067  0.3157
   56CHL1  H23B 6611   1.272   5.533   8.610 -0.7630 -1.2336 -1.1164
   56CHL1   C24 6612   1.071   5.514   8.495 -0.4526  0.4932 -0.2850
   56CHL1  H24A 6613   1.073   5.403   8.494 -1.9372  0.4570 -0.3060
   56CHL1  H24B 6614   0.974   5.563   8.516 -0.0712  0.6827  1.1598
   56CHL1   C25 6615   1.112   5.561   8.354  0.4328 -0.6527  0.2589
   56CHL1   H25 6616   1.139   5.668   8.367 -0.8450 -0.3776  0.8502
   56CHL1   C26 6617   1.245   5.497   8.306  0.2521  0.1391 -0.7871
   56CHL1  H26A 6618   1.224   5.391   8.282  1.1012 -0.3183  0.3885
   56CHL1  H26B 6619   1.290   5.549   8.219 -2.4109  0.8568 -1.8508
   56CHL1  H26C 6620   1.317   5.513   8.389 -1.9091  1.1500  1.0186
   56CHL1   C27 6621   1.003   5.537   8.253 -0.2441 -0.8395 -1.3360
   56CHL1  H27A 6622   1.046   5.570   8.155  1.5846 -0.9334 -0.5958
   56CHL1  H27B 6623   0.973   5.431   8.237 -1.0989 -1.2635  2.3696
   56CHL1  H27C 6624   0.912   5.597   8.278 -1.3488 -2.7933 -0.4135
   57CHL1    C3 6625   3.482   0.210  10.051 -0.1940 -0.1925  1.1105
   57CHL1    H3 6626   3.582   0.244  10.015 -0.0109 -0.6441  1.1890
   57CHL1    O3 6627   3.484   0.202  10.193 -0.5434  0.1926  0.5658
   57CHL1   H3' 6628   3.488   0.290  10.231  1.5435 -0.0183  0.9931
   57CHL1    C4 6629   3.380   0.309  10.004 -0.4777 -0.4667  0.1029
   57CHL1   H4A 6630   3.279   0.288  10.046  0.0057 -0.1285  1.4741
   57CHL1   H4B 6631   3.400   0.411  10.041  0.6624 -1.0206  1.1035
   57CHL1    C5 6632   3.373   0.301   9.852 -0.2177 -0.7393  0.0833
   57CHL1    C6 6633   3.383   0.416   9.778  0.0408 -0.1304  0.2878
   57CHL1    H6 6634   3.399   0.512   9.827  0.0819 -0.4851  0.9769
   57CHL1    C7 6635   3.359   0.418   9.630  0.0249  0.2701 -0.3086
   57CHL1   H7A 6636   3.300   0.509   9.604  1.0108  1.0735  0.2075
   57CHL1   H7B 6637   3.462   0.439   9.593  0.0101  1.6003  0.3488
   57CHL1    C8 6638   3.299   0.292   9.565 -0.6874 -0.0970 -0.1931
   57CHL1    H8 6639   3.190   0.304   9.580 -0.4339  3.4794 -0.3166
   57CHL1   C14 6640   3.329   0.295   9.417  0.0726  0.0860 -0.1856
   57CHL1   H14 6641   3.438   0.292   9.397  0.0649 -0.3718 -0.1704
   57CHL1   C15 6642   3.272   0.412   9.334  0.5275  0.2584 -0.2969
   57CHL1  H15A 6643   3.169   0.429   9.374 -0.0593 -0.7164 -1.3288
   57CHL1  H15B 6644   3.342   0.497   9.346  0.3670  0.6459 -1.8910
   57CHL1   C16 6645   3.258   0.356   9.192  0.3299 -0.2400 -0.4791
   57CHL1  H16A 6646   3.152   0.369   9.160  0.6195  0.7241 -1.0746
   57CHL1  H16B 6647   3.325   0.405   9.118  0.6438 -0.4459 -0.3344
   57CHL1   C17 6648   3.308   0.216   9.199 -0.2739  1.0801  0.1141
   57CHL1   H17 6649   3.418   0.224   9.191  0.0182 -2.8527 -2.9830
   57CHL1   C13 6650   3.277   0.171   9.342  0.6165  0.1672 -0.2690
   57CHL1   C18 6651   3.126   0.159   9.359 -0.0775 -0.8018  0.0340
   57CHL1  H18A 6652   3.105   0.158   9.468 -0.2565  0.2337  0.0145
   57CHL1  H18B 6653   3.071   0.244   9.315 -0.9127 -0.8647  0.9388
   57CHL1  H18C 6654   3.081   0.069   9.311 -1.0777 -0.7130  0.7928
   57CHL1   C12 6655   3.348   0.048   9.412  0.6863 -1.0841  0.3594
   57CHL1  H12A 6656   3.316  -0.043   9.356  1.3345 -0.5695 -0.9082
   57CHL1  H12B 6657   3.457   0.048   9.389  0.4454  0.1362 -0.9693
   57CHL1   C11 6658   3.313   0.039   9.564 -0.3804 -0.4697  0.7445
   57CHL1  H11A 6659   3.207   0.008   9.571 -0.2359 -2.6437 -3.5043
   57CHL1  H11B 6660   3.369  -0.048   9.605 -0.3239  0.3866  2.5971
   57CHL1    C9 6661   3.356   0.166   9.639  1.1384 -0.0993  0.3117
   57CHL1    H9 6662   3.465   0.171   9.616  1.2288 -3.9001 -0.7837
   57CHL1   C10 6663   3.343   0.167   9.791 -0.1481  0.2498 -0.2381
   57CHL1   C19 6664   3.202   0.120   9.836 -0.4267 -0.2442 -0.1312
   57CHL1  H19A 6665   3.203   0.122   9.947  2.7917 -0.0161 -0.0735
   57CHL1  H19B 6666   3.127   0.190   9.794  1.2857  0.9933 -1.2662
   57CHL1  H19C 6667   3.184   0.020   9.791  0.5117 -0.9258  0.9508
   57CHL1    C1 6668   3.450   0.070   9.849  0.3132  0.4021  0.1640
   57CHL1   H1A 6669   3.418  -0.036   9.840 -1.2537  0.6751  1.7879
   57CHL1   H1B 6670   3.540   0.093   9.790  0.1532  0.4743 -0.0530
   57CHL1    C2 6671   3.472   0.075   9.997  0.5165  1.5511 -0.3253
   57CHL1   H2A 6672   3.549   0.002  10.032  0.3621  2.5987  2.4374
   57CHL1   H2B 6673   3.377   0.031  10.034  0.2133 -1.2937 -3.9118
   57CHL1   C20 6674   3.265   0.126   9.087 -0.1919 -0.0014 -0.0101
   57CHL1   H20 6675   3.168   0.076   9.109 -0.7084 -0.1087 -2.3065
   57CHL1   C21 6676   3.369   0.017   9.071 -0.4815  0.1332 -0.5265
   57CHL1  H21A 6677   3.394  -0.037   9.165  1.3122 -0.6232 -1.3803
   57CHL1  H21B 6678   3.463   0.059   9.030 -0.4820  1.5861  0.8536
   57CHL1  H21C 6679   3.346  -0.065   8.999 -0.5129  0.8800 -1.3885
   57CHL1   C22 6680   3.237   0.196   8.952  0.1221  0.5193 -0.3061
   57CHL1  H22A 6681   3.173   0.286   8.957  1.3731  1.3522  1.7641
   57CHL1  H22B 6682   3.336   0.226   8.911  1.4541  0.1303  2.4127
   57CHL1   C23 6683   3.163   0.106   8.850 -0.1511 -0.2482  0.2428
   57CHL1  H23A 6684   3.225   0.014   8.837  0.3286  0.0574  0.3673
   57CHL1  H23B 6685   3.061   0.079   8.885 -0.0189  0.0390  0.8591
   57CHL1   C24 6686   3.141   0.181   8.720  0.2851 -0.1451 -0.6578
   57CHL1  H24A 6687   3.071   0.266   8.740 -1.0489 -1.6206  1.2687
   57CHL1  H24B 6688   3.242   0.219   8.692  0.5517  0.0183  0.4729
   57CHL1   C25 6689   3.082   0.102   8.604  0.3268  0.2494  0.4989
   57CHL1   H25 6690   3.046   0.002   8.637 -0.4600 -0.0733 -1.2529
   57CHL1   C26 6691   2.971   0.177   8.525  0.3373 -0.2863 -0.7658
   57CHL1  H26A 6692   3.016   0.273   8.493  1.5313 -0.5296  0.1273
   57CHL1  H26B 6693   2.931   0.125   8.436  1.1425  0.7815 -1.7778
   57CHL1  H26C 6694   2.885   0.204   8.591 -0.8168  0.8632 -2.6503
   57CHL1   C27 6695   3.196   0.072   8.505 -0.0472 -0.4775  0.0763
   57CHL1  H27A 6696   3.264  -0.010   8.536  0.6205  0.5881  1.5683
   57CHL1  H27B 6697   3.137   0.035   8.418 -0.3598  2.3261 -1.0242
   57CHL1  H27C 6698   3.255   0.164   8.484  1.5342 -1.2395  1.0176
   58CHL1    C3 6699   0.001   5.513   9.904 -0.2056  0.2240  0.1719
   58CHL1    H3 6700   0.063   5.606   9.899  0.0337  0.0022 -1.2661
   58CHL1    O3 6701  -0.045   5.489  10.030 -0.6310  0.1814  0.0726
   58CHL1   H3' 6702   0.029   5.460  10.084 -0.2324 -0.7862 -0.9475
   58CHL1    C4 6703  -0.114   5.525   9.801 -0.0021  0.4307 -0.4582
   58CHL1   H4A 6704  -0.184   5.441   9.821  0.6956 -0.5178 -1.8508
   58CHL1   H4B 6705  -0.162   5.619   9.835 -2.8868 -1.2213  0.3742
   58CHL1    C5 6706  -0.084   5.518   9.652 -1.1847  0.8297  0.0102
   58CHL1    C6 6707  -0.134   5.597   9.557  0.4102 -0.4639 -0.4790
   58CHL1    H6 6708  -0.199   5.677   9.596  0.3008  0.3661 -2.2764
   58CHL1    C7 6709  -0.092   5.598   9.412 -0.1291 -0.1422 -0.2703
   58CHL1   H7A 6710  -0.189   5.620   9.363 -1.6758 -2.6535  1.4594
   58CHL1   H7B 6711  -0.019   5.680   9.392 -3.2378  2.6302 -1.1993
   58CHL1    C8 6712  -0.042   5.456   9.376  0.1697 -0.0135  0.3332
   58CHL1    H8 6713  -0.135   5.394   9.372 -0.0330  0.2418  1.0459
   58CHL1   C14 6714   0.016   5.458   9.230  0.3636  0.3932  0.1778
   58CHL1   H14 6715   0.111   5.516   9.234  0.6323  0.1049 -1.3215
   58CHL1   C15 6716  -0.073   5.516   9.115 -0.9667  0.3726  0.2023
   58CHL1  H15A 6717  -0.171   5.468   9.138 -0.6993 -0.8595 -1.0516
   58CHL1  H15B 6718  -0.069   5.627   9.123  1.0228  0.5262 -2.0207
   58CHL1   C16 6719  -0.006   5.464   8.986  0.2271  0.4859  0.5635
   58CHL1  H16A 6720  -0.089   5.405   8.942  0.7675 -1.7869  2.3926
   58CHL1  H16B 6721   0.037   5.532   8.909 -0.3202 -0.5758 -0.7169
   58CHL1   C17 6722   0.108   5.363   9.027 -0.2079 -0.0306 -0.1894
   58CHL1   H17 6723   0.194   5.432   9.032 -0.4342  0.2052  0.6615
   58CHL1   C13 6724   0.067   5.320   9.175 -0.2185  0.1373  0.3305
   58CHL1   C18 6725  -0.042   5.215   9.167  0.5319 -0.0164  0.5496
   58CHL1  H18A 6726  -0.097   5.193   9.261  1.6814 -2.8056  0.6729
   58CHL1  H18B 6727  -0.115   5.243   9.088  0.6400 -0.4556  0.2912
   58CHL1  H18C 6728   0.000   5.119   9.130 -1.7855 -0.7552 -0.3568
   58CHL1   C12 6729   0.183   5.290   9.270 -0.5373 -0.0998 -0.2156
   58CHL1  H12A 6730   0.229   5.192   9.246 -0.7269  0.0141 -1.1018
   58CHL1  H12B 6731   0.256   5.373   9.273  0.1812 -0.7250 -0.1573
   58CHL1   C11 6732   0.128   5.275   9.417 -0.2930  0.6839 -0.9737
   58CHL1  H11A 6733   0.049   5.197   9.414 -0.7940  1.1629 -0.4556
   58CHL1  H11B 6734   0.214   5.242   9.477 -0.6205 -0.7672 -1.2789
   58CHL1    C9 6735   0.068   5.405   9.470 -0.0768  0.1476 -0.0953
   58CHL1    H9 6736   0.143   5.486   9.457 -1.4008  1.7266  1.4855
   58CHL1   C10 6737   0.011   5.401   9.624 -1.0494 -0.5965 -0.0087
   58CHL1   C19 6738  -0.067   5.266   9.639  0.2955  0.2250 -0.7391
   58CHL1  H19A 6739  -0.112   5.265   9.740  0.7531 -0.0016 -0.5311
   58CHL1  H19B 6740  -0.156   5.262   9.573 -1.2053  1.9774  1.0665
   58CHL1  H19C 6741   0.001   5.178   9.630  1.1465  0.8128 -0.1819
   58CHL1    C1 6742   0.138   5.411   9.711 -0.0117  0.4872  0.2667
   58CHL1   H1A 6743   0.216   5.334   9.691 -1.5938 -0.9123 -0.7218
   58CHL1   H1B 6744   0.192   5.507   9.693  1.7988 -0.3977  0.7226
   58CHL1    C2 6745   0.098   5.396   9.857 -0.5228  0.0704  0.5541
   58CHL1   H2A 6746   0.194   5.403   9.914  0.7595  1.2413 -1.6021
   58CHL1   H2B 6747   0.042   5.304   9.882 -1.5249  1.0822  2.2850
   58CHL1   C20 6748   0.145   5.255   8.919  0.4265  0.6839  0.1572
   58CHL1   H20 6749   0.063   5.180   8.919  0.4165  0.6879 -0.5621
   58CHL1   C21 6750   0.279   5.189   8.949  0.0572  0.7100 -0.4889
   58CHL1  H21A 6751   0.309   5.140   8.854 -2.0198 -1.5242 -0.1023
   58CHL1  H21B 6752   0.279   5.115   9.032  4.2024  0.0895 -0.8394
   58CHL1  H21C 6753   0.353   5.265   8.981  0.4094 -0.0081  0.4686
   58CHL1   C22 6754   0.142   5.319   8.778 -0.2032  0.5545 -0.0925
   58CHL1  H22A 6755   0.038   5.352   8.756 -0.0683  0.0451 -1.6186
   58CHL1  H22B 6756   0.216   5.403   8.778  1.3625 -0.7838 -0.4201
   58CHL1   C23 6757   0.172   5.224   8.659 -0.0481 -0.6915 -0.0804
   58CHL1  H23A 6758   0.280   5.201   8.664  0.4093  0.6847 -2.2346
   58CHL1  H23B 6759   0.106   5.134   8.662 -0.0733 -0.6949 -0.5860
   58CHL1   C24 6760   0.162   5.295   8.522  0.3991 -0.5280  0.4132
   58CHL1  H24A 6761   0.056   5.329   8.515  0.7079  0.6312  1.1656
   58CHL1  H24B 6762   0.225   5.386   8.520 -0.4044  0.1086 -3.0817
   58CHL1   C25 6763   0.204   5.217   8.395  0.8092 -0.3546 -0.4341
   58CHL1   H25 6764   0.189   5.289   8.312  1.0884 -0.4432 -0.5617
   58CHL1   C26 6765   0.352   5.180   8.394 -0.4271  0.2477  0.3472
   58CHL1  H26A 6766   0.375   5.121   8.302 -1.6605 -0.0792  0.2193
   58CHL1  H26B 6767   0.414   5.272   8.392  0.2190 -0.1724 -1.2880
   58CHL1  H26C 6768   0.387   5.110   8.473  0.8989  0.0050 -0.4276
   58CHL1   C27 6769   0.121   5.092   8.367 -0.4296  0.1560  0.5783
   58CHL1  H27A 6770   0.016   5.121   8.391 -1.1132 -1.8034  0.1489
   58CHL1  H27B 6771   0.128   5.053   8.264 -0.2080 -0.5252  0.8463
   58CHL1  H27C 6772   0.145   5.016   8.444 -0.3868  1.8325  2.2935
   59CHL1    C3 6773   6.084   6.312  10.299  0.0143  0.2717  0.0648
   59CHL1    H3 6774   5.986   6.364  10.296 -0.7373 -0.8504  2.6539
   59CHL1    O3 6775   6.119   6.327  10.434 -0.1878  0.3561 -0.5441
   59CHL1   H3' 6776   6.041   6.313  10.488  1.2398 -0.8995  1.3285
   59CHL1    C4 6777   6.066   6.166  10.274 -0.1198 -0.3056  0.1475
   59CHL1   H4A 6778   6.159   6.112  10.303  0.2326  0.6346  0.8192
   59CHL1   H4B 6779   5.985   6.147  10.348 -0.0123  0.7196  0.5467
   59CHL1    C5 6780   6.019   6.133  10.137 -0.5737 -0.1854 -0.5735
   59CHL1    C6 6781   5.908   6.062  10.108  0.0543  0.5568 -0.7502
   59CHL1    H6 6782   5.844   6.018  10.185  0.1848  1.3722 -0.1605
   59CHL1    C7 6783   5.866   6.036   9.966  0.3802 -0.0899 -0.3209
   59CHL1   H7A 6784   5.856   5.926   9.963 -0.3142 -0.0331 -0.1653
   59CHL1   H7B 6785   5.767   6.081   9.945 -0.0237 -0.6041  0.4355
   59CHL1    C8 6786   5.974   6.075   9.858  0.4758 -0.1385 -0.1288
   59CHL1    H8 6787   6.048   5.993   9.857  2.7286  1.7787  0.1160
   59CHL1   C14 6788   5.902   6.080   9.723  0.8424 -0.9416 -0.6644
   59CHL1   H14 6789   5.823   6.156   9.740  0.9250 -0.8130 -0.8391
   59CHL1   C15 6790   5.842   5.951   9.680  0.6441  0.6026 -0.1594
   59CHL1  H15A 6791   5.924   5.878   9.687 -0.2754 -0.9691 -3.5615
   59CHL1  H15B 6792   5.750   5.922   9.736  2.2418 -1.5813  1.4681
   59CHL1   C16 6793   5.820   5.976   9.525  0.1600 -0.0532 -0.0775
   59CHL1  H16A 6794   5.864   5.906   9.451  0.2401 -0.0356 -0.0473
   59CHL1  H16B 6795   5.712   5.982   9.503 -0.2283 -1.0234  1.4111
   59CHL1   C17 6796   5.887   6.118   9.497 -0.1083  0.0023 -0.2733
   59CHL1   H17 6797   5.808   6.190   9.526 -0.0274  0.2039 -0.5490
   59CHL1   C13 6798   5.988   6.133   9.608 -0.6676  0.0314 -0.0948
   59CHL1   C18 6799   6.106   6.032   9.582 -0.2978 -0.5375  0.7583
   59CHL1  H18A 6800   6.174   6.024   9.670  0.1654 -2.3380  0.2859
   59CHL1  H18B 6801   6.074   5.928   9.558 -0.6924 -0.0497 -0.9668
   59CHL1  H18C 6802   6.168   6.062   9.495 -0.4108 -1.1949  0.4454
   59CHL1   C12 6803   6.044   6.271   9.643 -0.1562 -0.5538 -0.4992
   59CHL1  H12A 6804   6.125   6.305   9.575 -0.0449  0.9431  0.3138
   59CHL1  H12B 6805   5.966   6.351   9.642  0.7579  0.3870  0.4149
   59CHL1   C11 6806   6.122   6.261   9.777 -0.0201  0.0067 -0.1073
   59CHL1  H11A 6807   6.224   6.222   9.756  1.5677  3.9830 -0.6570
   59CHL1  H11B 6808   6.140   6.366   9.808  0.0678  0.0053 -0.1520
   59CHL1    C9 6809   6.041   6.207   9.891  0.5986 -0.2926  0.5624
   59CHL1    H9 6810   5.961   6.282   9.910 -0.1622 -0.9842  0.1331
   59CHL1   C10 6811   6.115   6.207  10.029  0.0087  0.0188  0.3685
   59CHL1   C19 6812   6.250   6.123  10.023 -0.4131  0.3622  0.0705
   59CHL1  H19A 6813   6.282   6.099  10.127 -2.0426  1.1032  0.7757
   59CHL1  H19B 6814   6.238   6.023   9.975 -2.0139  0.8293 -0.5491
   59CHL1  H19C 6815   6.337   6.169   9.972  1.5633 -0.3706  2.5527
   59CHL1    C1 6816   6.142   6.355  10.060  0.4713 -0.2394  0.0691
   59CHL1   H1A 6817   6.226   6.387   9.994 -2.6144  2.0536 -3.0644
   59CHL1   H1B 6818   6.056   6.413  10.022  1.3969  0.1111 -1.5772
   59CHL1    C2 6819   6.180   6.379  10.207 -0.0711  0.1636 -0.0434
   59CHL1   H2A 6820   6.180   6.486  10.237 -2.5406 -0.6160  3.3710
   59CHL1   H2B 6821   6.282   6.337  10.221  0.5437  1.0387 -1.5902
   59CHL1   C20 6822   5.936   6.139   9.348  0.5936 -0.0930  0.3137
   59CHL1   H20 6823   6.022   6.072   9.329  0.8845  0.5719 -0.7685
   59CHL1   C21 6824   5.975   6.292   9.332 -0.4617  0.4053 -0.2700
   59CHL1  H21A 6825   6.066   6.321   9.389 -0.3502 -0.0446 -0.2142
   59CHL1  H21B 6826   5.892   6.364   9.343  0.0501  1.0021 -0.2376
   59CHL1  H21C 6827   6.013   6.315   9.230  2.1504 -0.4329  0.4189
   59CHL1   C22 6828   5.818   6.117   9.256 -0.6839  0.0992  0.5795
   59CHL1  H22A 6829   5.790   6.010   9.263  1.3154 -0.6676 -1.8024
   59CHL1  H22B 6830   5.730   6.178   9.286 -1.4117 -0.5216 -0.2062
   59CHL1   C23 6831   5.856   6.132   9.104  0.4753 -0.3499 -0.4772
   59CHL1  H23A 6832   5.882   6.235   9.071  0.0114 -0.3274 -0.7964
   59CHL1  H23B 6833   5.952   6.080   9.084  1.2489  0.3821  1.1904
   59CHL1   C24 6834   5.746   6.084   9.014 -0.3688  0.0209  0.9188
   59CHL1  H24A 6835   5.735   5.973   9.014  0.7970 -0.1326 -0.5820
   59CHL1  H24B 6836   5.653   6.133   9.048 -1.0585 -0.3569 -0.3476
   59CHL1   C25 6837   5.755   6.143   8.866  0.3131  0.9590 -0.0729
   59CHL1   H25 6838   5.788   6.249   8.880 -0.6312  1.1406  0.8398
   59CHL1   C26 6839   5.867   6.072   8.794  0.7515 -0.1301 -0.1655
   59CHL1  H26A 6840   5.831   5.968   8.779  0.5326  0.2448 -2.6146
   59CHL1  H26B 6841   5.891   6.107   8.691  2.0148  1.8640  0.7247
   59CHL1  H26C 6842   5.956   6.075   8.861 -0.6320 -0.3439  1.7616
   59CHL1   C27 6843   5.623   6.138   8.791  0.0598  0.3613 -0.3702
   59CHL1  H27A 6844   5.625   6.048   8.726 -2.4780 -0.2972  0.3278
   59CHL1  H27B 6845   5.544   6.114   8.866 -0.6508  2.1296 -0.5132
   59CHL1  H27C 6846   5.594   6.229   8.735  0.4236  0.1862 -0.8467
   60CHL1    C3 6847   4.744   3.710  10.274 -0.6149 -0.0696 -0.5217
   60CHL1    H3 6848   4.854   3.722  10.262 -0.5067  2.8346  2.0016
   60CHL1    O3 6849   4.714   3.686  10.406  0.0573  1.0822 -0.2334
   60CHL1   H3' 6850   4.689   3.593  10.410  0.8048  0.8483 -0.7840
   60CHL1    C4 6851   4.678   3.836  10.218 -0.3591  0.0420  0.4287
   60CHL1   H4A 6852   4.573   3.835  10.255 -0.7422  1.3208 -0.5607
   60CHL1   H4B 6853   4.721   3.914  10.284 -1.3485 -0.8485  2.1940
   60CHL1    C5 6854   4.677   3.869  10.068 -0.4094  0.6321  0.2831
   60CHL1    C6 6855   4.709   3.992  10.028 -0.7659 -0.4211 -0.5181
   60CHL1    H6 6856   4.727   4.068  10.106  0.2997  1.5060 -2.5448
   60CHL1    C7 6857   4.727   4.037   9.886 -0.3284 -0.2447  0.3276
   60CHL1   H7A 6858   4.666   4.127   9.862 -1.8893 -2.0654 -3.3623
   60CHL1   H7B 6859   4.834   4.061   9.865 -1.1150  2.1824 -1.4409
   60CHL1    C8 6860   4.667   3.930   9.786 -0.9051  0.1470  0.2808
   60CHL1    H8 6861   4.557   3.944   9.785 -1.0369 -0.4069 -2.7625
   60CHL1   C14 6862   4.729   3.955   9.642 -0.2763 -0.2582 -0.1403
   60CHL1   H14 6863   4.839   3.940   9.654 -0.1230 -0.9882 -2.1230
   60CHL1   C15 6864   4.708   4.099   9.587 -0.0436 -0.1576 -0.3826
   60CHL1  H15A 6865   4.605   4.140   9.592 -0.6192 -1.7132  1.2005
   60CHL1  H15B 6866   4.768   4.178   9.638  0.2742 -1.2159  0.9416
   60CHL1   C16 6867   4.751   4.078   9.443  1.0904  0.2322  0.0672
   60CHL1  H16A 6868   4.660   4.112   9.390  0.9737  0.9366  0.6967
   60CHL1  H16B 6869   4.840   4.132   9.407  1.4444 -0.2607  0.1865
   60CHL1   C17 6870   4.755   3.923   9.416  0.0513 -0.3122  0.3556
   60CHL1   H17 6871   4.859   3.888   9.432  0.4341  0.4331 -0.4610
   60CHL1   C13 6872   4.684   3.855   9.536 -0.7626 -0.3432  0.9525
   60CHL1   C18 6873   4.539   3.865   9.517  0.9083 -0.0563  0.1581
   60CHL1  H18A 6874   4.511   3.953   9.456  0.1546 -0.3603  0.0587
   60CHL1  H18B 6875   4.497   3.778   9.461 -0.5739  0.9323 -0.3122
   60CHL1  H18C 6876   4.486   3.871   9.614 -0.5892  3.5148 -0.7466
   60CHL1   C12 6877   4.738   3.723   9.585  0.0045  0.2250  0.0029
   60CHL1  H12A 6878   4.709   3.641   9.516  0.4632 -0.2601  0.3774
   60CHL1  H12B 6879   4.848   3.733   9.571 -0.0184 -0.5474 -0.8177
   60CHL1   C11 6880   4.685   3.682   9.723  0.3460  0.1180  0.4470
   60CHL1  H11A 6881   4.575   3.674   9.707  0.6719 -0.2367 -2.1039
   60CHL1  H11B 6882   4.720   3.581   9.753 -1.4511 -0.3408  1.1093
   60CHL1    C9 6883   4.707   3.788   9.832 -0.1323 -0.0700 -0.4655
   60CHL1    H9 6884   4.816   3.790   9.852 -0.2659  1.6434  0.2534
   60CHL1   C10 6885   4.662   3.748   9.975 -0.6116  0.4035  0.3918
   60CHL1   C19 6886   4.514   3.719   9.977  0.1638 -0.3706  0.2281
   60CHL1  H19A 6887   4.466   3.697  10.075  1.5101  0.4833  1.1225
   60CHL1  H19B 6888   4.454   3.806   9.941 -1.4696 -2.5940 -2.8009
   60CHL1  H19C 6889   4.479   3.631   9.919 -0.8500 -0.6559  1.2340
   60CHL1    C1 6890   4.740   3.626  10.031 -0.2510 -0.1273 -0.0242
   60CHL1   H1A 6891   4.708   3.534   9.977 -0.4475 -0.6830  0.9987
   60CHL1   H1B 6892   4.849   3.635  10.014 -0.0727 -0.8471  0.6294
   60CHL1    C2 6893   4.713   3.595  10.176 -0.1883 -0.0108 -0.0174
   60CHL1   H2A 6894   4.777   3.506  10.190 -0.7114 -0.6337 -1.4051
   60CHL1   H2B 6895   4.610   3.560  10.197  0.2450 -0.8481  0.7545
   60CHL1   C20 6896   4.710   3.869   9.275  0.5506 -0.4891  0.2951
   60CHL1   H20 6897   4.601   3.889   9.269  1.0254  2.0716 -1.0362
   60CHL1   C21 6898   4.745   3.720   9.257 -0.1862 -0.0960 -0.1359
   60CHL1  H21A 6899   4.675   3.660   9.319 -1.7568  0.1308 -1.6290
   60CHL1  H21B 6900   4.843   3.687   9.299  0.1020 -0.2809 -0.9379
   60CHL1  H21C 6901   4.742   3.673   9.156  0.6791 -0.6909  0.1007
   60CHL1   C22 6902   4.773   3.947   9.156 -0.1292 -0.3863 -0.0406
   60CHL1  H22A 6903   4.793   4.049   9.196 -0.9912  0.2506 -1.1640
   60CHL1  H22B 6904   4.874   3.902   9.148 -0.1586 -0.5505  0.4741
   60CHL1   C23 6905   4.692   3.960   9.029  0.4137  0.2552  0.8579
   60CHL1  H23A 6906   4.647   3.862   9.004  0.4613  0.5961 -0.6575
   60CHL1  H23B 6907   4.607   4.024   9.063 -0.8773 -0.7860 -0.3010
   60CHL1   C24 6908   4.771   4.013   8.903 -0.6081 -0.0069  0.2956
   60CHL1  H24A 6909   4.859   3.951   8.876  0.0081  0.1879  1.7636
   60CHL1  H24B 6910   4.699   4.005   8.818 -2.1333  2.7365  1.2135
   60CHL1   C25 6911   4.812   4.163   8.901 -0.2360  0.8180 -0.2497
   60CHL1   H25 6912   4.866   4.182   8.996  1.5642  0.0974 -1.0772
   60CHL1   C26 6913   4.922   4.187   8.787  0.9487 -0.1098  0.2770
   60CHL1  H26A 6914   4.999   4.107   8.800 -0.5506 -1.7006 -0.2376
   60CHL1  H26B 6915   4.870   4.185   8.689  0.0566 -0.0928  0.7357
   60CHL1  H26C 6916   4.956   4.291   8.805  0.3629  0.2092 -0.4267
   60CHL1   C27 6917   4.684   4.260   8.894 -0.1907 -0.5747  0.0714
   60CHL1  H27A 6918   4.710   4.366   8.918 -0.6955 -0.1659 -1.1022
   60CHL1  H27B 6919   4.639   4.254   8.793  1.9083  1.1136 -1.0374
   60CHL1  H27C 6920   4.615   4.229   8.975 -0.1892  0.3479  0.4455
   61CHL1    C3 6921   2.463   3.850  10.151 -0.2824  0.5756 -0.3879
   61CHL1    H3 6922   2.493   3.747  10.124 -2.6137  0.0811 -1.3311
   61CHL1    O3 6923   2.463   3.859  10.294  0.0899 -0.2277  0.8758
   61CHL1   H3' 6924   2.445   3.951  10.315  0.7103 -0.0806  0.7695
   61CHL1    C4 6925   2.569   3.948  10.091 -0.2594  0.4845 -0.2331
   61CHL1   H4A 6926   2.547   4.049  10.132 -1.3717  1.4448 -2.9523
   61CHL1   H4B 6927   2.665   3.911  10.133 -1.9477 -1.0414  2.5967
   61CHL1    C5 6928   2.565   3.956   9.938 -0.3263 -0.2367 -0.0703
   61CHL1    C6 6929   2.681   3.944   9.862 -0.1611 -0.5918 -0.3972
   61CHL1    H6 6930   2.771   3.920   9.920 -2.0415 -0.2887  2.8736
   61CHL1    C7 6931   2.685   3.958   9.715  0.0287  0.3727 -0.6100
   61CHL1   H7A 6932   2.754   4.038   9.683  1.3175 -1.4818 -2.6872
   61CHL1   H7B 6933   2.715   3.864   9.664  1.0110  1.5737 -2.3328
   61CHL1    C8 6934   2.556   4.003   9.648 -0.1090  0.2194  0.4908
   61CHL1    H8 6935   2.555   4.114   9.654  2.2552  0.2422  1.5244
   61CHL1   C14 6936   2.554   3.951   9.500 -0.1643 -0.4716  0.2050
   61CHL1   H14 6937   2.543   3.841   9.507 -2.3025 -0.2208  2.6036
   61CHL1   C15 6938   2.677   3.988   9.411  0.1496  0.1857 -0.9956
   61CHL1  H15A 6939   2.729   4.084   9.432  0.8261 -0.5875  1.1523
   61CHL1  H15B 6940   2.750   3.910   9.440 -1.8238 -1.0505  0.9967
   61CHL1   C16 6941   2.622   3.970   9.271 -0.4406  0.3522  0.2825
   61CHL1  H16A 6942   2.628   4.061   9.206 -0.8649  0.1515 -0.0420
   61CHL1  H16B 6943   2.670   3.894   9.206 -3.0736  0.8885 -2.4704
   61CHL1   C17 6944   2.471   3.924   9.281  0.2170 -0.5203  0.4277
   61CHL1   H17 6945   2.472   3.813   9.290 -0.2530 -0.5726 -0.1692
   61CHL1   C13 6946   2.429   3.987   9.423  0.3900 -0.1706 -0.0685
   61CHL1   C18 6947   2.424   4.146   9.404  0.3340  0.2649  0.1526
   61CHL1  H18A 6948   2.399   4.192   9.502 -1.8399  0.8049 -0.5995
   61CHL1  H18B 6949   2.517   4.182   9.353  0.3192 -2.5453 -2.1570
   61CHL1  H18C 6950   2.333   4.166   9.343 -1.0064 -3.3885  0.7413
   61CHL1   C12 6951   2.302   3.943   9.496  0.5199 -0.5899  0.6175
   61CHL1  H12A 6952   2.205   3.973   9.451  0.3432 -1.0011  0.7226
   61CHL1  H12B 6953   2.294   3.832   9.498 -1.3995 -0.4886  0.1866
   61CHL1   C11 6954   2.299   3.986   9.638 -0.2362  0.2877  0.2689
   61CHL1  H11A 6955   2.282   4.096   9.650 -0.3619  0.5745 -2.1496
   61CHL1  H11B 6956   2.213   3.927   9.677  1.1464 -2.1097 -0.1443
   61CHL1    C9 6957   2.430   3.948   9.720 -0.0362 -0.0852 -0.6116
   61CHL1    H9 6958   2.437   3.839   9.704 -2.2832 -0.5183  0.9285
   61CHL1   C10 6959   2.428   3.973   9.872 -0.7608  0.2149 -0.6037
   61CHL1   C19 6960   2.387   4.122   9.894 -0.3275  0.1942 -0.1840
   61CHL1  H19A 6961   2.277   4.139   9.893 -0.0687  2.1613  0.1684
   61CHL1  H19B 6962   2.414   4.146   9.999 -1.6670 -1.3006  0.5320
   61CHL1  H19C 6963   2.430   4.192   9.818 -2.4141 -1.2517 -2.8501
   61CHL1    C1 6964   2.325   3.878   9.939  0.2588 -0.1960 -0.4803
   61CHL1   H1A 6965   2.230   3.926   9.906  0.3938  0.5638  0.2073
   61CHL1   H1B 6966   2.331   3.774   9.900  2.1910  0.7265 -2.9593
   61CHL1    C2 6967   2.325   3.883  10.093 -0.4838  0.1114 -0.1858
   61CHL1   H2A 6968   2.240   3.824  10.133 -2.4818  2.3231 -0.9117
   61CHL1   H2B 6969   2.288   3.985  10.114 -0.5615 -0.2186  1.3592
   61CHL1   C20 6970   2.387   3.963   9.159  0.9953  0.2266  0.2908
   61CHL1   H20 6971   2.371   4.073   9.153  1.0459  0.2225  0.0745
   61CHL1   C21 6972   2.245   3.899   9.165  0.1961 -0.1897 -0.4999
   61CHL1  H21A 6973   2.260   3.793   9.193  0.3666  0.0803  0.4651
   61CHL1  H21B 6974   2.196   3.897   9.065  2.6663 -0.5164 -1.7896
   61CHL1  H21C 6975   2.177   3.961   9.227  0.3848 -1.2904  0.8468
   61CHL1   C22 6976   2.452   3.916   9.026  0.4311 -0.6511  0.5906
   61CHL1  H22A 6977   2.398   3.957   8.938 -1.0500 -1.4822  1.0773
   61CHL1  H22B 6978   2.552   3.965   9.022 -0.5389  1.7471  2.8742
   61CHL1   C23 6979   2.473   3.763   9.006 -0.1547  0.6259 -0.0285
   61CHL1  H23A 6980   2.553   3.726   9.073 -0.2504  1.5556  0.6274
   61CHL1  H23B 6981   2.383   3.709   9.042 -0.2433 -0.5676 -1.9234
   61CHL1   C24 6982   2.513   3.731   8.864 -0.2635 -0.0277 -0.0028
   61CHL1  H24A 6983   2.605   3.786   8.836  0.7640 -1.5856  0.2079
   61CHL1  H24B 6984   2.544   3.625   8.880 -0.1890  0.1425  1.0385
   61CHL1   C25 6985   2.401   3.739   8.755  0.6405  0.4063  0.4429
   61CHL1   H25 6986   2.333   3.824   8.777  0.2580  0.4830 -0.9534
   61CHL1   C26 6987   2.456   3.768   8.613 -0.3760  0.0071 -0.1218
   61CHL1  H26A 6988   2.379   3.796   8.538 -1.0903  0.1549  0.6560
   61CHL1  H26B 6989   2.529   3.852   8.609  2.2903 -2.1984 -2.3445
   61CHL1  H26C 6990   2.515   3.678   8.585 -0.8683 -0.2864 -0.2195
   61CHL1   C27 6991   2.317   3.617   8.754 -0.0353  0.3694  0.6180
   61CHL1  H27A 6992   2.241   3.603   8.673  0.6921  1.7560 -0.3483
   61CHL1  H27B 6993   2.373   3.521   8.759 -1.8284 -0.8412 -0.8627
   61CHL1  H27C 6994   2.247   3.620   8.840 -1.2162  2.7568 -0.3458
   62CHL1    C3 6995   3.516   5.248  10.214  0.2639 -0.1020 -0.2733
   62CHL1    H3 6996   3.481   5.353  10.203  0.0159 -0.4133 -3.2028
   62CHL1    O3 6997   3.493   5.210  10.349  0.4507 -0.1332  0.0559
   62CHL1   H3' 6998   3.571   5.245  10.392  1.6340 -0.8574 -1.4295
   62CHL1    C4 6999   3.452   5.141  10.125  0.5288 -0.3434 -0.1937
   62CHL1   H4A 7000   3.477   5.040  10.162  2.8728  0.2169 -0.1198
   62CHL1   H4B 7001   3.344   5.157  10.145  0.6682  0.4264 -0.0115
   62CHL1    C5 7002   3.483   5.160   9.969  0.1028  0.7731 -0.0575
   62CHL1    C6 7003   3.381   5.179   9.881 -0.4580 -0.7054 -0.0223
   62CHL1    H6 7004   3.277   5.184   9.916 -0.3732  2.4926 -0.0146
   62CHL1    C7 7005   3.407   5.197   9.738  0.3557 -0.4159 -0.3477
   62CHL1   H7A 7006   3.336   5.132   9.682 -1.0954  1.0309 -0.2777
   62CHL1   H7B 7007   3.384   5.303   9.713  0.4978 -0.2530  0.1971
   62CHL1    C8 7008   3.543   5.153   9.683 -0.2138 -0.3018  0.4071
   62CHL1    H8 7009   3.540   5.042   9.680  0.0198 -0.2960 -0.5437
   62CHL1   C14 7010   3.579   5.217   9.544 -0.3937  0.6767 -0.3283
   62CHL1   H14 7011   3.567   5.327   9.551  1.0130  0.7829  1.0526
   62CHL1   C15 7012   3.497   5.175   9.419  0.4198  1.0812  0.2717
   62CHL1  H15A 7013   3.504   5.064   9.424 -1.3742  0.8486 -1.2099
   62CHL1  H15B 7014   3.390   5.202   9.411  0.3108  0.3221 -1.5215
   62CHL1   C16 7015   3.583   5.210   9.300  0.6554 -0.2587  0.4404
   62CHL1  H16A 7016   3.606   5.121   9.237  0.1523 -0.1222  0.0530
   62CHL1  H16B 7017   3.539   5.295   9.244 -1.1327 -1.5115 -0.1510
   62CHL1   C17 7018   3.711   5.263   9.360  0.1987  0.5187 -0.8350
   62CHL1   H17 7019   3.697   5.372   9.377 -1.0365  0.5766 -2.1126
   62CHL1   C13 7020   3.724   5.195   9.501 -0.1300  0.1452  0.0897
   62CHL1   C18 7021   3.760   5.042   9.502  0.0273  0.5199  0.2003
   62CHL1  H18A 7022   3.870   5.030   9.499  0.1060  1.2887 -0.3150
   62CHL1  H18B 7023   3.713   4.991   9.589  0.2879  1.4862  0.9311
   62CHL1  H18C 7024   3.714   4.995   9.413  0.7590 -1.7143  0.9502
   62CHL1   C12 7025   3.825   5.265   9.598  0.1109  0.3322  0.3085
   62CHL1  H12A 7026   3.926   5.253   9.554 -0.2919 -1.5630 -0.1980
   62CHL1  H12B 7027   3.803   5.373   9.593  0.0556  0.3025 -0.1867
   62CHL1   C11 7028   3.804   5.204   9.735 -0.3772  0.0116  0.0546
   62CHL1  H11A 7029   3.849   5.102   9.734 -2.1151 -0.8062  0.3481
   62CHL1  H11B 7030   3.871   5.269   9.795  0.2083  0.5605 -1.1698
   62CHL1    C9 7031   3.651   5.211   9.782  0.1410  0.1362 -0.2254
   62CHL1    H9 7032   3.635   5.321   9.787  0.4566  0.1474  0.5997
   62CHL1   C10 7033   3.634   5.164   9.933 -0.4975  0.0616  0.2173
   62CHL1   C19 7034   3.703   5.026   9.935 -0.6240  0.5388  0.4983
   62CHL1  H19A 7035   3.693   4.965  10.027  4.5747 -1.8243 -0.1370
   62CHL1  H19B 7036   3.653   4.959   9.863 -0.2386  0.5519  0.2134
   62CHL1  H19C 7037   3.813   5.031   9.919 -0.5855 -3.6875 -2.2517
   62CHL1    C1 7038   3.693   5.264  10.041 -0.3395  0.0717  0.0049
   62CHL1   H1A 7039   3.801   5.248  10.021 -0.0897  1.2466  0.3538
   62CHL1   H1B 7040   3.662   5.366  10.008  0.6169  0.8479  1.3712
   62CHL1    C2 7041   3.668   5.252  10.189  0.7634  0.3497 -0.3299
   62CHL1   H2A 7042   3.708   5.338  10.247 -0.3366  0.2846  0.5381
   62CHL1   H2B 7043   3.712   5.156  10.222 -1.6601 -0.6974  0.0480
   62CHL1   C20 7044   3.836   5.245   9.266  0.5670  0.7706 -0.4767
   62CHL1   H20 7045   3.927   5.274   9.321  0.6265 -1.0304  0.4639
   62CHL1   C21 7046   3.809   5.349   9.159 -0.1584 -0.2170  0.7819
   62CHL1  H21A 7047   3.758   5.439   9.201 -0.9721 -0.7114  0.8694
   62CHL1  H21B 7048   3.731   5.311   9.090  0.0841 -0.9420  0.8991
   62CHL1  H21C 7049   3.903   5.378   9.108  0.5791 -1.5448  1.3380
   62CHL1   C22 7050   3.878   5.109   9.202  0.0343 -0.7243 -0.1397
   62CHL1  H22A 7051   3.905   5.036   9.281  1.2137 -0.6965 -0.4845
   62CHL1  H22B 7052   3.784   5.077   9.154 -0.2092 -0.2154 -0.0054
   62CHL1   C23 7053   3.994   5.124   9.106  0.1017  0.5290 -0.2337
   62CHL1  H23A 7054   3.987   5.191   9.017  0.5761  1.6459  0.5470
   62CHL1  H23B 7055   4.081   5.150   9.170 -0.5137 -0.6360  1.1282
   62CHL1   C24 7056   4.032   4.988   9.053  0.3915 -0.0255  0.1647
   62CHL1  H24A 7057   4.057   4.919   9.137  0.2478 -0.0753  0.1671
   62CHL1  H24B 7058   3.951   4.938   8.996  1.4054 -0.2181 -1.1580
   62CHL1   C25 7059   4.152   5.003   8.954  0.5668 -0.3448  0.4214
   62CHL1   H25 7060   4.209   5.096   8.976  2.0769 -1.4391  1.3660
   62CHL1   C26 7061   4.241   4.881   8.956 -0.2309  0.0517 -0.5976
   62CHL1  H26A 7062   4.274   4.861   9.060 -1.2162 -1.0540 -0.4774
   62CHL1  H26B 7063   4.188   4.787   8.929 -1.5055 -0.4995  3.1447
   62CHL1  H26C 7064   4.333   4.890   8.895 -0.0972  0.9597 -0.2860
   62CHL1   C27 7065   4.099   5.029   8.810 -0.2897 -0.0543 -0.5220
   62CHL1  H27A 7066   4.062   5.133   8.802 -0.2994  0.1003  1.2653
   62CHL1  H27B 7067   4.182   5.025   8.736 -2.0574  0.5454 -2.6301
   62CHL1  H27C 7068   4.031   4.954   8.764 -2.4157  2.2573 -1.3765
   63CHL1    C3 7069   4.180   2.220  10.316  0.0410  0.4092  0.1591
   63CHL1    H3 7070   4.283   2.178  10.315  1.0255  2.7018 -0.1137
   63CHL1    O3 7071   4.141   2.234  10.451 -0.0046  0.0805 -0.0898
   63CHL1   H3' 7072   4.194   2.307  10.482  1.9724 -0.3655 -2.1092
   63CHL1    C4 7073   4.191   2.366  10.261 -0.9942 -0.4830 -0.1642
   63CHL1   H4A 7074   4.094   2.419  10.274 -0.2732  0.9038 -0.2314
   63CHL1   H4B 7075   4.258   2.428  10.325 -2.2046  0.1223  0.5625
   63CHL1    C5 7076   4.236   2.349  10.112 -0.2283  0.1152 -0.1644
   63CHL1    C6 7077   4.351   2.400  10.066  0.1695 -0.4397 -0.0898
   63CHL1    H6 7078   4.415   2.463  10.130  0.2945  2.5370 -2.8905
   63CHL1    C7 7079   4.390   2.383   9.927  0.2092  0.1943  0.0403
   63CHL1   H7A 7080   4.434   2.480   9.894 -0.6294  1.5887  2.7380
   63CHL1   H7B 7081   4.480   2.318   9.918 -1.5906 -2.2224 -1.7190
   63CHL1    C8 7082   4.287   2.334   9.819 -0.1988 -1.0304 -0.0328
   63CHL1    H8 7083   4.229   2.422   9.785  1.7284 -0.8222 -3.2035
   63CHL1   C14 7084   4.363   2.269   9.702  0.3636  0.0145  0.7764
   63CHL1   H14 7085   4.413   2.179   9.743 -0.1910 -1.5362 -1.7311
   63CHL1   C15 7086   4.476   2.346   9.636  0.5642 -0.7941 -0.2391
   63CHL1  H15A 7087   4.454   2.454   9.622  1.5670  0.2853  4.6394
   63CHL1  H15B 7088   4.570   2.329   9.692  0.8261  1.2394  0.0076
   63CHL1   C16 7089   4.481   2.275   9.493  0.1511  0.0142  0.0747
   63CHL1  H16A 7090   4.468   2.356   9.418  0.2548  0.2454  0.3048
   63CHL1  H16B 7091   4.578   2.222   9.477 -0.6735 -2.1117  1.6863
   63CHL1   C17 7092   4.369   2.176   9.484  0.0172  0.2326  0.2733
   63CHL1   H17 7093   4.414   2.084   9.526 -1.2216 -0.5694 -0.0905
   63CHL1   C13 7094   4.261   2.215   9.590  0.5144 -0.8227 -0.0199
   63CHL1   C18 7095   4.178   2.323   9.532 -0.7151 -0.2313 -0.2229
   63CHL1  H18A 7096   4.112   2.284   9.452 -1.2680 -0.7934  0.4885
   63CHL1  H18B 7097   4.107   2.363   9.608  1.0745  1.0301  0.8551
   63CHL1  H18C 7098   4.235   2.413   9.502 -0.4376 -0.1449  0.5347
   63CHL1   C12 7099   4.187   2.103   9.654 -0.5611 -0.4848 -0.5816
   63CHL1  H12A 7100   4.131   2.053   9.572 -0.1168 -0.0978 -1.1243
   63CHL1  H12B 7101   4.256   2.023   9.687  1.8296  1.6073 -0.2873
   63CHL1   C11 7102   4.111   2.161   9.776  0.0743 -0.1771  0.5262
   63CHL1  H11A 7103   4.029   2.228   9.744 -0.3493 -1.0297 -0.2161
   63CHL1  H11B 7104   4.045   2.079   9.813 -0.0241 -0.9031 -1.1568
   63CHL1    C9 7105   4.202   2.222   9.884 -0.1508 -0.5930 -0.5714
   63CHL1    H9 7106   4.278   2.144   9.907  0.1174 -0.5182 -1.1909
   63CHL1   C10 7107   4.144   2.253  10.029  1.0508 -0.4280 -0.1964
   63CHL1   C19 7108   4.005   2.326  10.017  0.0190  0.6137 -0.3589
   63CHL1  H19A 7109   4.012   2.412   9.947  0.7447  1.1953  0.4027
   63CHL1  H19B 7110   3.933   2.254   9.973 -1.2721  2.3867 -1.2594
   63CHL1  H19C 7111   3.965   2.353  10.117 -0.2586 -1.9484  0.3166
   63CHL1    C1 7112   4.119   2.112  10.096  0.6204 -0.4367  0.6856
   63CHL1   H1A 7113   4.039   2.049  10.050  1.2063  0.0520 -1.0799
   63CHL1   H1B 7114   4.207   2.045  10.091  1.0182  0.1436 -0.9283
   63CHL1    C2 7115   4.079   2.134  10.242 -0.2254 -0.3019 -0.7370
   63CHL1   H2A 7116   4.059   2.033  10.283  1.6075  0.2152  1.6581
   63CHL1   H2B 7117   3.984   2.190  10.230 -1.6527 -2.8392 -2.0980
   63CHL1   C20 7118   4.330   2.144   9.337  0.7452 -0.6941 -0.0259
   63CHL1   H20 7119   4.308   2.242   9.289  0.9440 -0.4505  0.3693
   63CHL1   C21 7120   4.194   2.069   9.330  0.9201 -0.2402 -0.0325
   63CHL1  H21A 7121   4.169   2.040   9.226 -0.0507  1.0852 -0.1993
   63CHL1  H21B 7122   4.106   2.129   9.360  1.9664  0.7561  1.1705
   63CHL1  H21C 7123   4.190   1.976   9.390 -2.2116 -0.0761  0.1904
   63CHL1   C22 7124   4.438   2.075   9.253  0.3134 -0.1615  0.3970
   63CHL1  H22A 7125   4.539   2.111   9.283  0.5020  1.1387 -1.5581
   63CHL1  H22B 7126   4.436   1.967   9.278  0.5550 -1.0236 -2.8590
   63CHL1   C23 7127   4.420   2.085   9.100 -0.4304  0.3932 -0.0492
   63CHL1  H23A 7128   4.334   2.033   9.054  0.0036  0.8840 -1.4697
   63CHL1  H23B 7129   4.396   2.193   9.088  0.7702  0.9871  2.1278
   63CHL1   C24 7130   4.551   2.049   9.006 -0.0228  0.1404 -0.6336
   63CHL1  H24A 7131   4.643   2.101   9.039  0.9855 -1.3402 -1.0345
   63CHL1  H24B 7132   4.567   1.941   9.023 -0.7929  0.3635  1.8150
   63CHL1   C25 7133   4.542   2.081   8.857  0.5249 -0.1129  0.3538
   63CHL1   H25 7134   4.456   2.032   8.807 -1.1803  0.5231  2.5351
   63CHL1   C26 7135   4.528   2.230   8.829  0.1824 -0.0949  0.8777
   63CHL1  H26A 7136   4.595   2.293   8.890  0.2251 -0.2795  1.0241
   63CHL1  H26B 7137   4.555   2.248   8.723  0.1815  0.5327  0.9809
   63CHL1  H26C 7138   4.422   2.254   8.854 -0.9369 -3.2881 -0.2006
   63CHL1   C27 7139   4.669   2.027   8.783  0.5234 -0.4734  0.4716
   63CHL1  H27A 7140   4.696   1.922   8.804 -3.4296 -1.8687 -0.4973
   63CHL1  H27B 7141   4.667   2.051   8.675 -0.1041  2.8851  1.1174
   63CHL1  H27C 7142   4.748   2.094   8.822 -0.5489  1.6421 -0.8261
   64CHL1    C3 7143   2.067   0.480   9.834  0.1702 -0.1055  1.0372
   64CHL1    H3 7144   1.968   0.492   9.787  1.3726  2.0378 -1.1687
   64CHL1    O3 7145   2.055   0.469   9.974  0.3072 -0.2539  0.0347
   64CHL1   H3' 7146   2.142   0.453  10.012  0.1974  0.3910  0.5671
   64CHL1    C4 7147   2.122   0.349   9.781  0.3990 -0.5789 -0.0981
   64CHL1   H4A 7148   2.219   0.322   9.828 -0.5254 -0.5420  1.9473
   64CHL1   H4B 7149   2.050   0.269   9.808  0.4985  0.1381  2.5283
   64CHL1    C5 7150   2.134   0.346   9.625 -0.0822 -0.7335 -0.2688
   64CHL1    C6 7151   2.067   0.258   9.550  0.3235 -0.1266  0.0306
   64CHL1    H6 7152   2.016   0.182   9.612 -0.6271  1.8549  1.8166
   64CHL1    C7 7153   2.068   0.258   9.392  0.1166 -0.0289  0.1500
   64CHL1   H7A 7154   2.073   0.153   9.358  0.8573  0.9517 -3.0427
   64CHL1   H7B 7155   1.967   0.285   9.356  0.4483  0.9340 -0.0965
   64CHL1    C8 7156   2.179   0.349   9.330  0.1174  0.3353  0.7407
   64CHL1    H8 7157   2.271   0.287   9.326  1.0396  1.7183 -0.8648
   64CHL1   C14 7158   2.140   0.374   9.187  0.6608  0.0709  0.3797
   64CHL1   H14 7159   2.042   0.425   9.186  0.9052  0.5622 -1.1820
   64CHL1   C15 7160   2.119   0.258   9.087 -0.3626 -0.1373 -0.3525
   64CHL1  H15A 7161   2.187   0.170   9.097 -1.5093 -1.1793 -1.3972
   64CHL1  H15B 7162   2.015   0.223   9.104  0.1200 -1.8304 -0.6036
   64CHL1   C16 7163   2.149   0.316   8.954  0.2524 -0.1399 -0.5676
   64CHL1  H16A 7164   2.233   0.267   8.901  1.4026  1.2608 -0.1128
   64CHL1  H16B 7165   2.058   0.305   8.891 -1.4681 -0.4741  1.8378
   64CHL1   C17 7166   2.184   0.463   8.980 -0.5501 -0.3272  0.6499
   64CHL1   H17 7167   2.088   0.517   8.988  0.2297  1.4483 -1.1651
   64CHL1   C13 7168   2.238   0.467   9.116 -0.4758  0.4150 -0.8624
   64CHL1   C18 7169   2.377   0.399   9.123  0.4219  0.3295  0.1473
   64CHL1  H18A 7170   2.378   0.297   9.081 -0.2277  0.2898  0.2243
   64CHL1  H18B 7171   2.445   0.464   9.064 -0.4390  0.8202 -0.3145
   64CHL1  H18C 7172   2.411   0.380   9.227  1.3986 -0.7379 -0.3446
   64CHL1   C12 7173   2.238   0.601   9.194 -0.1917 -0.0715  0.3148
   64CHL1  H12A 7174   2.306   0.674   9.146  0.1701 -0.1285  0.7342
   64CHL1  H12B 7175   2.140   0.652   9.191 -0.2943 -0.3118 -1.3603
   64CHL1   C11 7176   2.279   0.583   9.341 -0.0760  0.5131 -0.3142
   64CHL1  H11A 7177   2.386   0.553   9.342 -0.1252  0.1894  2.3963
   64CHL1  H11B 7178   2.271   0.679   9.396  0.2303 -0.2881  1.1999
   64CHL1    C9 7179   2.190   0.477   9.410  0.3918 -0.4438 -1.0098
   64CHL1    H9 7180   2.084   0.512   9.405  0.6105  0.7026  1.1745
   64CHL1   C10 7181   2.214   0.467   9.569  0.5591  0.3043 -0.2318
   64CHL1   C19 7182   2.362   0.436   9.591 -0.1290  0.0623  0.2170
   64CHL1  H19A 7183   2.390   0.416   9.696 -3.5305 -2.7602  0.7981
   64CHL1  H19B 7184   2.391   0.345   9.534 -0.5019  0.3130 -0.3794
   64CHL1  H19C 7185   2.429   0.513   9.547  3.3087 -2.2913  0.9366
   64CHL1    C1 7186   2.177   0.601   9.642 -0.0393 -0.0282  0.2471
   64CHL1   H1A 7187   2.246   0.684   9.617 -0.0496 -0.0850  0.0297
   64CHL1   H1B 7188   2.081   0.644   9.609 -0.4985 -0.5021  0.9365
   64CHL1    C2 7189   2.160   0.598   9.798 -0.2984  0.6588  0.5115
   64CHL1   H2A 7190   2.113   0.696   9.822 -2.0658  0.4184 -1.5992
   64CHL1   H2B 7191   2.263   0.580   9.834 -0.5169 -4.9920 -0.7875
   64CHL1   C20 7192   2.259   0.525   8.862  0.2082 -0.0606  0.6854
   64CHL1   H20 7193   2.363   0.485   8.861  0.5875  0.7922 -1.8023
   64CHL1   C21 7194   2.277   0.674   8.886 -0.1666 -0.4763 -0.4505
   64CHL1  H21A 7195   2.312   0.738   8.802 -1.2919  1.5770  0.5570
   64CHL1  H21B 7196   2.354   0.680   8.966 -2.2217  0.1878  1.6179
   64CHL1  H21C 7197   2.189   0.727   8.930 -0.2696 -2.1466  1.4827
   64CHL1   C22 7198   2.190   0.504   8.726  0.6563  0.1476 -0.6453
   64CHL1  H22A 7199   2.255   0.552   8.649  2.0171 -1.3460 -0.4749
   64CHL1  H22B 7200   2.193   0.396   8.700 -0.7702  0.3934 -1.9641
   64CHL1   C23 7201   2.048   0.554   8.712 -0.5430  0.5390  0.4287
   64CHL1  H23A 7202   1.997   0.503   8.797 -1.0137 -2.0458 -1.3011
   64CHL1  H23B 7203   2.051   0.665   8.717 -0.7531  0.6418 -1.1915
   64CHL1   C24 7204   1.973   0.502   8.583  0.2585 -0.3657 -0.5567
   64CHL1  H24A 7205   1.960   0.393   8.597 -0.8966 -0.2981 -1.0276
   64CHL1  H24B 7206   1.873   0.549   8.573  1.1424  2.4620  2.1963
   64CHL1   C25 7207   2.055   0.535   8.458 -0.9341  0.0964  0.3459
   64CHL1   H25 7208   2.163   0.522   8.480 -0.3895 -0.3168 -2.2730
   64CHL1   C26 7209   2.031   0.437   8.340  0.3068  0.0851 -0.0451
   64CHL1  H26A 7210   2.039   0.329   8.363  0.7363  0.3363  1.0625
   64CHL1  H26B 7211   1.931   0.454   8.296 -0.7598 -0.1671  2.1701
   64CHL1  H26C 7212   2.112   0.460   8.267  2.3431 -0.0434  2.0220
   64CHL1   C27 7213   2.033   0.687   8.417 -0.5704  0.7251  0.2359
   64CHL1  H27A 7214   2.057   0.745   8.509 -0.1152 -2.1673  2.0836
   64CHL1  H27B 7215   2.096   0.709   8.329 -1.6480 -1.2203 -1.0953
   64CHL1  H27C 7216   1.927   0.700   8.386 -0.2695 -0.6055 -1.4959
   65CHL1    C3 7217   6.066   5.608  10.145  0.3686 -0.1304  0.4628
   65CHL1    H3 7218   5.969   5.660  10.158 -0.0098 -0.4048 -1.1201
   65CHL1    O3 7219   6.141   5.612  10.265 -0.1016 -0.0697  0.0130
   65CHL1   H3' 7220   6.189   5.530  10.273 -0.7136 -0.4734 -0.3724
   65CHL1    C4 7221   6.046   5.459  10.104  0.0486  0.1965 -0.3626
   65CHL1   H4A 7222   6.144   5.406  10.103 -0.8609 -1.6101  0.8528
   65CHL1   H4B 7223   5.982   5.410  10.181 -0.5965 -1.3293 -1.8060
   65CHL1    C5 7224   5.967   5.451   9.971 -1.3085 -0.5315 -0.3246
   65CHL1    C6 7225   5.856   5.384   9.960  0.5124  0.2000  0.6511
   65CHL1    H6 7226   5.820   5.339  10.053  0.1478 -0.3468  0.2544
   65CHL1    C7 7227   5.775   5.354   9.832  0.8828 -0.3891 -0.6197
   65CHL1   H7A 7228   5.746   5.248   9.821  0.0171 -0.2876  0.5166
   65CHL1   H7B 7229   5.685   5.418   9.843 -0.7971 -2.7218 -0.1786
   65CHL1    C8 7230   5.862   5.400   9.708  0.1264 -0.2371 -0.0947
   65CHL1    H8 7231   5.944   5.328   9.688  0.1816  0.3172 -2.0275
   65CHL1   C14 7232   5.768   5.409   9.591 -0.0348 -0.9252  0.3394
   65CHL1   H14 7233   5.696   5.487   9.624 -0.7820 -1.3752 -0.1997
   65CHL1   C15 7234   5.688   5.285   9.548  0.1462 -0.4861 -0.9992
   65CHL1  H15A 7235   5.760   5.202   9.534  1.9863  0.5210  1.6928
   65CHL1  H15B 7236   5.614   5.249   9.623  1.3750 -1.5630 -0.2674
   65CHL1   C16 7237   5.637   5.318   9.400  0.3043  0.4798 -0.4323
   65CHL1  H16A 7238   5.648   5.230   9.334 -0.8693 -0.9723  1.2151
   65CHL1  H16B 7239   5.532   5.353   9.399  0.5186  1.1440 -2.0642
   65CHL1   C17 7240   5.715   5.444   9.357 -0.6223  0.4611 -0.8346
   65CHL1   H17 7241   5.642   5.526   9.375  0.2587  1.0266  0.2766
   65CHL1   C13 7242   5.833   5.454   9.463 -0.8956  0.0948  0.1174
   65CHL1   C18 7243   5.945   5.354   9.420  0.5911 -0.0390  0.1315
   65CHL1  H18A 7244   6.012   5.352   9.509 -0.6787 -1.8766  1.1202
   65CHL1  H18B 7245   5.905   5.253   9.394 -1.8235  0.9713 -0.3381
   65CHL1  H18C 7246   5.988   5.396   9.326 -2.1269  2.0656 -0.2918
   65CHL1   C12 7247   5.906   5.593   9.477 -0.1707  0.3339 -0.4982
   65CHL1  H12A 7248   5.979   5.607   9.395  0.9248 -0.1029  0.3812
   65CHL1  H12B 7249   5.826   5.670   9.479 -0.1305  0.3872 -0.9020
   65CHL1   C11 7250   5.998   5.600   9.605  0.8639 -0.6159  0.0789
   65CHL1  H11A 7251   6.095   5.551   9.582  0.7458  0.0347 -1.9989
   65CHL1  H11B 7252   6.016   5.708   9.627 -0.3799  0.2071 -2.5188
   65CHL1    C9 7253   5.930   5.544   9.739  0.6047 -0.2297  0.2663
   65CHL1    H9 7254   5.841   5.605   9.765  0.7204  0.0136  0.0822
   65CHL1   C10 7255   6.027   5.538   9.857 -0.6584 -0.3808 -0.0645
   65CHL1   C19 7256   6.157   5.466   9.813 -0.4205 -0.0639  0.3947
   65CHL1  H19A 7257   6.225   5.439   9.897  0.6003 -0.2210 -0.4700
   65CHL1  H19B 7258   6.128   5.372   9.762 -1.3052  0.7090 -0.5686
   65CHL1  H19C 7259   6.225   5.522   9.745  0.6450 -0.1314  1.3651
   65CHL1    C1 7260   6.063   5.678   9.907 -0.4627 -0.2250  0.4248
   65CHL1   H1A 7261   6.121   5.737   9.833 -0.9326 -0.9147 -0.5136
   65CHL1   H1B 7262   5.986   5.755   9.929 -0.1070  0.3761 -0.3641
   65CHL1    C2 7263   6.146   5.680  10.038 -0.4580  0.0666  0.2240
   65CHL1   H2A 7264   6.155   5.787  10.066  1.9773 -0.1396  0.4012
   65CHL1   H2B 7265   6.248   5.640  10.020 -0.8814 -0.4153 -1.3689
   65CHL1   C20 7266   5.743   5.444   9.203  0.1470 -0.5902  0.4352
   65CHL1   H20 7267   5.812   5.358   9.195 -0.5576 -1.0604 -0.9465
   65CHL1   C21 7268   5.800   5.580   9.169  0.1745 -0.8097 -0.1716
   65CHL1  H21A 7269   5.736   5.663   9.204  1.9779  0.9548 -0.8591
   65CHL1  H21B 7270   5.805   5.581   9.058 -0.1774  2.7012 -0.2640
   65CHL1  H21C 7271   5.904   5.598   9.204 -0.0987 -1.9473  1.3140
   65CHL1   C22 7272   5.611   5.409   9.122 -0.0749  0.2026  0.1293
   65CHL1  H22A 7273   5.569   5.313   9.156 -0.1278  0.1509 -0.0761
   65CHL1  H22B 7274   5.538   5.492   9.136 -0.7262 -0.8072  3.3954
   65CHL1   C23 7275   5.639   5.377   8.973  0.2339 -0.1736  0.1873
   65CHL1  H23A 7276   5.674   5.473   8.930 -0.2243  0.2570  0.7614
   65CHL1  H23B 7277   5.716   5.297   8.964 -1.2117 -1.4849 -1.3039
   65CHL1   C24 7278   5.513   5.331   8.905  1.1992  0.3400 -0.5775
   65CHL1  H24A 7279   5.505   5.225   8.937 -0.8829  1.0615  1.6031
   65CHL1  H24B 7280   5.428   5.394   8.938 -0.4954 -2.7938  1.5398
   65CHL1   C25 7281   5.512   5.318   8.754  0.1953  0.6191  0.0784
   65CHL1   H25 7282   5.545   5.420   8.723 -2.2120  1.6353  0.6101
   65CHL1   C26 7283   5.614   5.214   8.705  0.0721 -0.2577  0.1664
   65CHL1  H26A 7284   5.601   5.118   8.760  1.7340 -1.3463 -1.2386
   65CHL1  H26B 7285   5.616   5.198   8.595  2.6394  0.4919  0.0442
   65CHL1  H26C 7286   5.716   5.246   8.733  0.0348 -2.1357  2.8849
   65CHL1   C27 7287   5.362   5.291   8.711  0.2162  0.2764  0.1401
   65CHL1  H27A 7288   5.296   5.364   8.761 -1.6217 -0.2649 -1.3480
   65CHL1  H27B 7289   5.341   5.293   8.601  0.3687 -0.4765  0.0909
   65CHL1  H27C 7290   5.326   5.195   8.754 -0.7785  0.3317 -0.5469
   66CHL1    C3 7291   2.587   3.211  10.317  0.3953  0.0694 -0.1554
   66CHL1    H3 7292   2.668   3.283  10.341 -0.2027  1.2638 -1.6181
   66CHL1    O3 7293   2.543   3.135  10.423 -0.2666 -0.2269 -0.9134
   66CHL1   H3' 7294   2.457   3.097  10.402 -0.4224  0.5000 -1.5958
   66CHL1    C4 7295   2.470   3.284  10.236  0.2219  1.2119 -0.2726
   66CHL1   H4A 7296   2.404   3.196  10.221 -0.3443  1.3603  1.1342
   66CHL1   H4B 7297   2.422   3.359  10.302 -1.4192  1.1908 -1.4156
   66CHL1    C5 7298   2.508   3.333  10.100 -0.1450  0.4178 -0.0252
   66CHL1    C6 7299   2.477   3.456  10.059 -0.2978  0.0452  0.1344
   66CHL1    H6 7300   2.440   3.529  10.132 -0.1398 -0.0860  0.3487
   66CHL1    C7 7301   2.501   3.508   9.918  0.1819  0.7186  0.2624
   66CHL1   H7A 7302   2.408   3.562   9.892 -1.0503 -0.5988  1.7534
   66CHL1   H7B 7303   2.583   3.583   9.914  0.1165  0.8229  0.7983
   66CHL1    C8 7304   2.531   3.390   9.810  0.2687 -0.3259  0.2078
   66CHL1    H8 7305   2.433   3.345   9.783  0.6685 -1.3396  0.4126
   66CHL1   C14 7306   2.598   3.439   9.678 -0.2452 -1.2209 -0.6448
   66CHL1   H14 7307   2.687   3.492   9.718 -1.6815  1.6711 -0.9599
   66CHL1   C15 7308   2.538   3.555   9.606  0.2632  0.2589  0.3947
   66CHL1  H15A 7309   2.427   3.558   9.604  0.2678  2.3682  0.3287
   66CHL1  H15B 7310   2.578   3.651   9.645  2.1233  0.7575 -2.4318
   66CHL1   C16 7311   2.586   3.541   9.461 -0.1818  0.7028 -0.2081
   66CHL1  H16A 7312   2.493   3.525   9.402 -0.9557  2.7440  0.3816
   66CHL1  H16B 7313   2.640   3.630   9.425  0.3873 -0.1029 -1.3995
   66CHL1   C17 7314   2.685   3.416   9.458  0.4464 -0.3902 -0.3252
   66CHL1   H17 7315   2.785   3.448   9.494 -0.2310  3.1026 -1.1524
   66CHL1   C13 7316   2.629   3.330   9.579 -0.8453  0.0517 -0.3102
   66CHL1   C18 7317   2.505   3.255   9.530  0.8216  0.0269 -0.4948
   66CHL1  H18A 7318   2.445   3.213   9.614  0.9209 -1.3899 -1.0935
   66CHL1  H18B 7319   2.439   3.316   9.465 -1.5608  0.1104  1.8291
   66CHL1  H18C 7320   2.548   3.169   9.474  1.3902 -0.6591  0.9436
   66CHL1   C12 7321   2.727   3.233   9.646  0.1726  0.3600  0.3330
   66CHL1  H12A 7322   2.748   3.149   9.576 -0.2787 -1.2666  2.0430
   66CHL1  H12B 7323   2.822   3.275   9.684 -0.9998  1.5028  2.1381
   66CHL1   C11 7324   2.664   3.171   9.772  1.2167  0.3817 -0.0699
   66CHL1  H11A 7325   2.577   3.106   9.748  2.9673 -2.9526  1.8868
   66CHL1  H11B 7326   2.743   3.111   9.822 -1.2270 -0.0077  3.7079
   66CHL1    C9 7327   2.618   3.281   9.874  0.4050 -0.4433 -0.2973
   66CHL1    H9 7328   2.716   3.328   9.897 -0.2141  0.7462  0.0168
   66CHL1   C10 7329   2.566   3.228  10.005  0.3623 -0.0777  0.0094
   66CHL1   C19 7330   2.450   3.121   9.976 -0.2829 -0.1868 -0.2204
   66CHL1  H19A 7331   2.391   3.086  10.063  1.5362  0.5114  1.3688
   66CHL1  H19B 7332   2.390   3.171   9.897  4.5981  0.5706 -3.9975
   66CHL1  H19C 7333   2.496   3.036   9.921  0.7797  0.0364  0.2829
   66CHL1    C1 7334   2.685   3.162  10.082 -0.0344  0.0215  0.7298
   66CHL1   H1A 7335   2.728   3.079  10.022 -2.6040 -1.1309  0.3450
   66CHL1   H1B 7336   2.761   3.240  10.101 -0.2083 -0.1643  2.3206
   66CHL1    C2 7337   2.655   3.109  10.225 -0.3631  0.2428  0.4087
   66CHL1   H2A 7338   2.748   3.071  10.273 -1.8547 -3.0141  0.9910
   66CHL1   H2B 7339   2.582   3.027  10.210  1.3376 -1.3446  0.4592
   66CHL1   C20 7340   2.708   3.357   9.316 -0.3362 -0.4687  0.2476
   66CHL1   H20 7341   2.604   3.333   9.284 -0.9555  1.2379  0.8450
   66CHL1   C21 7342   2.786   3.226   9.324 -0.8194 -0.5115  0.2366
   66CHL1  H21A 7343   2.723   3.134   9.323 -1.1500 -0.2972  0.7877
   66CHL1  H21B 7344   2.849   3.223   9.415  0.4847 -0.5082 -0.6444
   66CHL1  H21C 7345   2.842   3.218   9.229 -2.1667 -0.4684 -0.5953
   66CHL1   C22 7346   2.786   3.455   9.215  0.1286  0.0743 -0.4319
   66CHL1  H22A 7347   2.764   3.561   9.240  0.1205 -0.1473  0.5647
   66CHL1  H22B 7348   2.896   3.458   9.236 -0.3320  1.7012  2.3677
   66CHL1   C23 7349   2.744   3.421   9.072  0.0573 -0.0166  0.5222
   66CHL1  H23A 7350   2.717   3.314   9.063 -1.2576  0.3039  0.4165
   66CHL1  H23B 7351   2.662   3.491   9.047  0.5173  0.6369  0.8129
   66CHL1   C24 7352   2.868   3.449   8.971  1.2561 -0.3540  0.1442
   66CHL1  H24A 7353   2.891   3.557   8.978  2.9350 -0.6693 -0.1604
   66CHL1  H24B 7354   2.958   3.404   9.017  1.5817 -0.7053 -0.8029
   66CHL1   C25 7355   2.837   3.394   8.828  0.2201  0.2861 -0.6682
   66CHL1   H25 7356   2.743   3.445   8.798 -1.3412 -0.8668  1.9138
   66CHL1   C26 7357   2.943   3.445   8.731  0.3141 -0.5713  0.3202
   66CHL1  H26A 7358   3.043   3.409   8.763  1.5576  2.8306  0.6359
   66CHL1  H26B 7359   2.909   3.423   8.627  0.4790 -1.4480  0.4480
   66CHL1  H26C 7360   2.947   3.556   8.739 -0.4827 -0.6058  1.3953
   66CHL1   C27 7361   2.822   3.240   8.812 -0.0761  0.0019  0.1292
   66CHL1  H27A 7362   2.835   3.213   8.705 -0.1505 -0.2256  0.1773
   66CHL1  H27B 7363   2.894   3.191   8.882 -2.1173 -0.9429  1.6981
   66CHL1  H27C 7364   2.720   3.206   8.840 -0.4636  1.0199 -0.0078
   67CHL1    C3 7365   1.557   4.465  10.179  0.0940  0.1107  0.1234
   67CHL1    H3 7366   1.578   4.554  10.115  2.1344  0.5674  1.3285
   67CHL1    O3 7367   1.593   4.491  10.319 -0.0402 -0.2582  0.7207
   67CHL1   H3' 7368   1.583   4.407  10.364  1.9977 -1.0948 -0.2918
   67CHL1    C4 7369   1.406   4.430  10.171  0.5925  0.2146  0.2691
   67CHL1   H4A 7370   1.397   4.354  10.252  1.2567 -0.6312 -0.4333
   67CHL1   H4B 7371   1.353   4.520  10.210  0.0927  0.2420 -0.4537
   67CHL1    C5 7372   1.350   4.396  10.033 -0.1895  0.8367 -0.9390
   67CHL1    C6 7373   1.246   4.463   9.977 -0.2480  0.4335  0.7060
   67CHL1    H6 7374   1.186   4.531  10.041 -1.3475 -0.6693  0.8923
   67CHL1    C7 7375   1.187   4.422   9.843 -0.3811  0.3020  0.6749
   67CHL1   H7A 7376   1.077   4.411   9.850 -0.5674  0.2883 -1.6104
   67CHL1   H7B 7377   1.211   4.494   9.761  2.6327 -0.6695  0.5684
   67CHL1    C8 7378   1.251   4.291   9.791  0.2489 -0.2385  0.5286
   67CHL1    H8 7379   1.194   4.206   9.834 -0.0698 -0.2315  0.1220
   67CHL1   C14 7380   1.228   4.283   9.634  0.4457 -0.0322  0.2658
   67CHL1   H14 7381   1.282   4.367   9.585 -0.3409  0.5048  0.3010
   67CHL1   C15 7382   1.083   4.308   9.577 -0.0474  0.6304 -0.6982
   67CHL1  H15A 7383   1.008   4.249   9.633 -0.2751 -0.5299 -2.1561
   67CHL1  H15B 7384   1.039   4.410   9.585  1.4900  1.3797 -1.3223
   67CHL1   C16 7385   1.091   4.247   9.440 -0.4046  0.0501  0.3384
   67CHL1  H16A 7386   1.012   4.169   9.435 -0.2385 -0.1986  1.3188
   67CHL1  H16B 7387   1.069   4.319   9.359 -1.4457  0.1259  0.6786
   67CHL1   C17 7388   1.227   4.178   9.421 -0.2630 -0.6274  0.1211
   67CHL1   H17 7389   1.286   4.263   9.380 -3.0378  1.0208 -0.6985
   67CHL1   C13 7390   1.276   4.153   9.564  0.1794 -0.7124  0.5515
   67CHL1   C18 7391   1.203   4.035   9.628 -0.2627  0.4256 -0.3116
   67CHL1  H18A 7392   1.093   4.032   9.621 -0.2626  0.7294 -0.4306
   67CHL1  H18B 7393   1.246   3.944   9.580 -0.5607 -0.5270  1.1598
   67CHL1  H18C 7394   1.229   4.034   9.737  1.5508 -0.9265 -0.7010
   67CHL1   C12 7395   1.425   4.143   9.593 -0.5980 -0.2408 -0.7318
   67CHL1  H12A 7396   1.449   4.035   9.582  0.0001 -0.4834  2.2047
   67CHL1  H12B 7397   1.477   4.209   9.522 -2.2617  0.3593 -1.4467
   67CHL1   C11 7398   1.462   4.163   9.742  0.1462 -0.3361  0.8326
   67CHL1  H11A 7399   1.421   4.069   9.786  0.2460 -0.7452  0.0659
   67CHL1  H11B 7400   1.572   4.144   9.751 -0.2252 -3.8699 -0.2691
   67CHL1    C9 7401   1.398   4.283   9.814 -0.1312  0.4155  0.0285
   67CHL1    H9 7402   1.448   4.365   9.758 -0.2961 -1.6209 -3.4461
   67CHL1   C10 7403   1.437   4.286   9.967  1.0653 -0.3335  0.7407
   67CHL1   C19 7404   1.394   4.156  10.040  0.3659  0.2293  0.1659
   67CHL1  H19A 7405   1.284   4.139  10.035  0.6609 -1.7370 -3.6484
   67CHL1  H19B 7406   1.444   4.069   9.992 -1.4006 -0.6368 -0.1836
   67CHL1  H19C 7407   1.421   4.146  10.147 -1.0072 -1.3772  0.4094
   67CHL1    C1 7408   1.591   4.299   9.981 -0.0343 -0.9042 -0.1011
   67CHL1   H1A 7409   1.643   4.207   9.947 -0.0032 -0.9067 -0.0457
   67CHL1   H1B 7410   1.629   4.383   9.918 -1.1842  1.3279  2.0024
   67CHL1    C2 7411   1.634   4.334  10.122 -0.2414  0.5907  0.5915
   67CHL1   H2A 7412   1.744   4.344  10.130 -0.1989  0.7952 -0.1636
   67CHL1   H2B 7413   1.613   4.249  10.191 -0.5323 -2.2709 -2.7512
   67CHL1   C20 7414   1.225   4.066   9.316  0.0408  0.3043  0.0985
   67CHL1   H20 7415   1.163   3.982   9.355 -1.4930  1.9062  1.2640
   67CHL1   C21 7416   1.367   4.021   9.278 -0.7509 -0.4421  0.0691
   67CHL1  H21A 7417   1.415   3.991   9.373 -1.7126 -1.1913  0.3437
   67CHL1  H21B 7418   1.427   4.097   9.224  1.3857 -2.8871 -1.1606
   67CHL1  H21C 7419   1.365   3.939   9.203  1.3957 -1.2365  0.8157
   67CHL1   C22 7420   1.137   4.094   9.184  0.6618 -0.2243  0.6389
   67CHL1  H22A 7421   1.151   4.014   9.109 -5.6947 -0.9753 -0.2610
   67CHL1  H22B 7422   1.032   4.115   9.212  0.3632  4.0993 -2.6117
   67CHL1   C23 7423   1.176   4.219   9.108 -0.4351 -0.8323  0.3584
   67CHL1  H23A 7424   1.175   4.310   9.171 -0.8746 -1.4924  1.3234
   67CHL1  H23B 7425   1.284   4.219   9.081 -0.8630  2.6007 -1.9316
   67CHL1   C24 7426   1.093   4.237   8.980 -0.2501  0.9456 -0.1881
   67CHL1  H24A 7427   1.095   4.142   8.922 -0.7448 -0.0469  1.3607
   67CHL1  H24B 7428   0.986   4.243   9.009 -0.4661  0.3331 -0.8265
   67CHL1   C25 7429   1.129   4.352   8.898  0.0793 -0.0454 -0.2931
   67CHL1   H25 7430   1.115   4.441   8.964 -3.2181 -0.9024  0.3529
   67CHL1   C26 7431   1.262   4.357   8.822  0.4425 -0.2273  0.0867
   67CHL1  H26A 7432   1.268   4.265   8.760 -0.9357 -1.5641  1.8381
   67CHL1  H26B 7433   1.273   4.453   8.768  0.6258 -0.0303  0.4747
   67CHL1  H26C 7434   1.343   4.347   8.898  1.3157  0.5195 -0.7237
   67CHL1   C27 7435   1.013   4.379   8.800  0.2480  0.7387 -0.1928
   67CHL1  H27A 7436   0.923   4.415   8.856 -0.9056  0.3181 -1.7098
   67CHL1  H27B 7437   1.048   4.462   8.736  0.3820  0.6135 -0.2787
   67CHL1  H27C 7438   0.990   4.294   8.733  1.6510  0.6263 -0.5575
   68CHL1    C3 7439   5.483   6.133  10.463 -0.1394 -0.2757 -0.2825
   68CHL1    H3 7440   5.586   6.093  10.454  0.1025 -0.0777  1.2878
   68CHL1    O3 7441   5.436   6.112  10.598  0.0304  0.4887  0.1628
   68CHL1   H3' 7442   5.384   6.190  10.615  0.2757  0.1848  2.6738
   68CHL1    C4 7443   5.490   6.287  10.424 -0.5620  0.3386  0.1613
   68CHL1   H4A 7444   5.387   6.326  10.440 -0.8323  0.2898 -1.3331
   68CHL1   H4B 7445   5.561   6.332  10.496  0.3520  1.4722 -1.3811
   68CHL1    C5 7446   5.534   6.294  10.281 -0.0532 -1.0282  0.2660
   68CHL1    C6 7447   5.641   6.368  10.258 -0.1483 -0.0737  0.3248
   68CHL1    H6 7448   5.702   6.411  10.338 -0.2352 -0.8902  0.8488
   68CHL1    C7 7449   5.688   6.410  10.116  0.2573 -0.1913 -0.6316
   68CHL1   H7A 7450   5.697   6.520  10.103 -2.0275 -0.0796 -1.7358
   68CHL1   H7B 7451   5.784   6.358  10.093  0.5254  0.1365 -0.2654
   68CHL1    C8 7452   5.577   6.380  10.013 -0.1923 -0.6270 -0.2387
   68CHL1    H8 7453   5.492   6.451  10.022  0.7870  0.7403 -1.3750
   68CHL1   C14 7454   5.635   6.398   9.877  1.0648 -0.6151  0.1222
   68CHL1   H14 7455   5.719   6.326   9.867  0.5324 -1.2270 -0.0510
   68CHL1   C15 7456   5.692   6.531   9.842  0.5855  0.3814 -0.2934
   68CHL1  H15A 7457   5.637   6.616   9.888 -2.7280  0.1499 -3.4216
   68CHL1  H15B 7458   5.797   6.543   9.879 -0.0577  0.4980  1.6268
   68CHL1   C16 7459   5.677   6.546   9.690  0.1274  0.0403 -0.2426
   68CHL1  H16A 7460   5.610   6.632   9.666  0.3250  0.6049  1.1454
   68CHL1  H16B 7461   5.775   6.556   9.638 -0.3815 -2.9493 -1.9984
   68CHL1   C17 7462   5.606   6.416   9.644 -0.1862  0.0909  0.7397
   68CHL1   H17 7463   5.675   6.332   9.623 -0.5258  0.1292 -0.6067
   68CHL1   C13 7464   5.537   6.369   9.768  0.0193 -0.4043 -0.3165
   68CHL1   C18 7465   5.404   6.448   9.787  0.5070 -0.7414 -0.2289
   68CHL1  H18A 7466   5.348   6.412   9.877 -0.8946 -0.2144 -0.8626
   68CHL1  H18B 7467   5.420   6.555   9.814 -0.0469 -0.8750  0.7001
   68CHL1  H18C 7468   5.328   6.432   9.708  1.2059 -1.1786 -0.8228
   68CHL1   C12 7469   5.502   6.215   9.787  0.3479 -0.2838 -0.4344
   68CHL1  H12A 7470   5.425   6.182   9.714  1.2415 -1.1379 -1.0141
   68CHL1  H12B 7471   5.585   6.148   9.757 -1.6837 -2.5734 -1.2415
   68CHL1   C11 7472   5.434   6.188   9.921 -0.4312 -0.1661  0.0585
   68CHL1  H11A 7473   5.331   6.230   9.921  0.1224  1.2997 -1.7048
   68CHL1  H11B 7474   5.428   6.077   9.914  0.3487 -0.1497 -1.1472
   68CHL1    C9 7475   5.522   6.236  10.044 -0.2065 -0.6559 -0.8954
   68CHL1    H9 7476   5.619   6.181  10.042  0.9758  1.3233 -1.1104
   68CHL1   C10 7477   5.451   6.229  10.177 -0.4716  0.0267 -0.4690
   68CHL1   C19 7478   5.307   6.289  10.175 -0.0184  0.0486 -0.7925
   68CHL1  H19A 7479   5.259   6.283  10.275  1.2149 -0.4776 -0.2232
   68CHL1  H19B 7480   5.313   6.395  10.140 -2.4489  1.4842  2.5723
   68CHL1  H19C 7481   5.253   6.219  10.108 -0.3313  1.3849 -1.9888
   68CHL1    C1 7482   5.433   6.075  10.222  0.3927  0.1211 -0.4134
   68CHL1   H1A 7483   5.350   6.039  10.157  0.5139  0.8283 -0.9806
   68CHL1   H1B 7484   5.517   6.015  10.181  1.3719  2.4858 -2.0464
   68CHL1    C2 7485   5.399   6.055  10.365 -0.7708  0.1026 -0.0707
   68CHL1   H2A 7486   5.399   5.948  10.393  1.9581  0.2809  0.8559
   68CHL1   H2B 7487   5.294   6.089  10.382 -1.3293 -1.1277 -0.9273
   68CHL1   C20 7488   5.533   6.428   9.509 -1.0248 -0.0605  0.1393
   68CHL1   H20 7489   5.451   6.504   9.514 -2.1496 -1.3230  2.5708
   68CHL1   C21 7490   5.457   6.300   9.468 -0.7034  0.2501  0.1316
   68CHL1  H21A 7491   5.349   6.298   9.493 -0.0723 -1.4790  3.2558
   68CHL1  H21B 7492   5.501   6.213   9.522 -1.7182 -0.5397 -0.2812
   68CHL1  H21C 7493   5.479   6.274   9.363 -0.6592  0.7049  0.0286
   68CHL1   C22 7494   5.629   6.474   9.399 -0.0502 -0.4431  1.1505
   68CHL1  H22A 7495   5.702   6.551   9.432 -0.5758  0.7673 -0.3866
   68CHL1  H22B 7496   5.689   6.384   9.373  0.2578 -0.1543  0.8580
   68CHL1   C23 7497   5.565   6.533   9.264 -0.1617  0.0483 -0.7529
   68CHL1  H23A 7498   5.468   6.487   9.238  0.4506 -1.0677 -1.1427
   68CHL1  H23B 7499   5.545   6.642   9.274  0.7120  0.1065  0.5891
   68CHL1   C24 7500   5.649   6.509   9.139 -0.8640  0.6197  0.1550
   68CHL1  H24A 7501   5.732   6.582   9.150 -0.3755  0.0541  0.2403
   68CHL1  H24B 7502   5.695   6.410   9.117  0.2097  1.1992 -0.3110
   68CHL1   C25 7503   5.577   6.545   9.003 -0.4490  0.4160  0.7195
   68CHL1   H25 7504   5.523   6.642   9.008  0.5239  0.9463  1.2452
   68CHL1   C26 7505   5.683   6.553   8.894  0.1975 -0.6154 -0.1787
   68CHL1  H26A 7506   5.747   6.640   8.920  2.0646 -1.9362 -0.2089
   68CHL1  H26B 7507   5.741   6.459   8.885  1.0119 -0.0746 -0.6866
   68CHL1  H26C 7508   5.634   6.582   8.798  0.9176  0.4145 -0.2522
   68CHL1   C27 7509   5.481   6.431   8.967  0.1893 -0.5601 -0.3915
   68CHL1  H27A 7510   5.516   6.326   8.970  0.8555 -0.4156 -1.9389
   68CHL1  H27B 7511   5.411   6.429   9.053 -1.0023  1.1833 -1.2632
   68CHL1  H27C 7512   5.419   6.447   8.875 -0.2883 -0.6124 -0.0811
   69CHL1    C3 7513   5.590   3.937   6.707 -0.6367 -0.2980  0.6013
   69CHL1    H3 7514   5.679   4.000   6.685 -1.3085  0.1459 -0.9792
   69CHL1    O3 7515   5.526   3.917   6.582  0.4330 -0.5866  0.4658
   69CHL1   H3' 7516   5.550   3.989   6.522  1.8055 -0.7652  0.7662
   69CHL1    C4 7517   5.628   3.806   6.769 -0.2342  0.4480  0.0761
   69CHL1   H4A 7518   5.526   3.761   6.759  0.3960 -0.6550 -2.0059
   69CHL1   H4B 7519   5.707   3.764   6.703  0.3854  1.0338  0.4416
   69CHL1    C5 7520   5.671   3.826   6.909 -0.1645 -0.7437  0.4939
   69CHL1    C6 7521   5.783   3.761   6.946 -0.5699  0.3974  0.4112
   69CHL1    H6 7522   5.835   3.683   6.889 -0.9410  0.5089 -0.0898
   69CHL1    C7 7523   5.839   3.787   7.086  0.0680  0.2084 -0.3023
   69CHL1   H7A 7524   5.877   3.692   7.131  2.0716  1.0216 -0.1971
   69CHL1   H7B 7525   5.931   3.848   7.082  0.2741 -0.0475  0.3667
   69CHL1    C8 7526   5.744   3.852   7.197 -0.4936  0.2722  1.1563
   69CHL1    H8 7527   5.670   3.774   7.224 -0.9764  0.5983  0.7964
   69CHL1   C14 7528   5.828   3.891   7.320  0.4442  0.7827  0.5575
   69CHL1   H14 7529   5.904   3.966   7.288  0.9257 -0.8798 -2.7065
   69CHL1   C15 7530   5.909   3.778   7.389  0.7940 -0.2702  1.0698
   69CHL1  H15A 7531   5.846   3.691   7.417  1.8115 -0.6721  2.1938
   69CHL1  H15B 7532   5.993   3.740   7.327 -0.6401 -0.9746 -0.5560
   69CHL1   C16 7533   5.949   3.850   7.515 -0.2291  0.3668  0.5867
   69CHL1  H16A 7534   5.937   3.777   7.598  1.1810 -0.9389 -0.3034
   69CHL1  H16B 7535   6.056   3.879   7.503  0.1203 -0.1999  2.0689
   69CHL1   C17 7536   5.858   3.983   7.526  1.1784  0.8417  0.4666
   69CHL1   H17 7537   5.915   4.068   7.482 -0.0388  1.0543 -0.7649
   69CHL1   C13 7538   5.742   3.955   7.422  0.5719  0.0675  1.0869
   69CHL1   C18 7539   5.639   3.857   7.480 -0.1225  0.2850  0.0159
   69CHL1  H18A 7540   5.549   3.856   7.414 -1.2893  4.5237  1.2484
   69CHL1  H18B 7541   5.684   3.757   7.499  0.2807  0.3102 -0.7571
   69CHL1  H18C 7542   5.590   3.896   7.571 -1.8906  1.3390 -1.3034
   69CHL1   C12 7543   5.675   4.084   7.353 -0.8215  0.0061  0.1900
   69CHL1  H12A 7544   5.613   4.142   7.424 -1.4587 -0.4697  0.0317
   69CHL1  H12B 7545   5.754   4.152   7.314  1.2228 -0.7963  2.7001
   69CHL1   C11 7546   5.593   4.059   7.225  0.0581 -0.3518  0.1165
   69CHL1  H11A 7547   5.495   4.020   7.259 -0.5415 -0.1787 -1.3217
   69CHL1  H11B 7548   5.563   4.160   7.189 -1.0597 -0.4959  0.6226
   69CHL1    C9 7549   5.678   3.969   7.134  0.1724 -0.4269 -0.1983
   69CHL1    H9 7550   5.762   4.028   7.094  0.2947 -1.1815 -1.1102
   69CHL1   C10 7551   5.603   3.934   6.998  0.2229 -0.4303 -0.1292
   69CHL1   C19 7552   5.469   3.863   7.035 -0.3483  0.1091 -1.1013
   69CHL1  H19A 7553   5.486   3.769   7.090 -0.0634 -0.2222 -1.7392
   69CHL1  H19B 7554   5.397   3.926   7.090 -1.4097 -0.3584 -1.9298
   69CHL1  H19C 7555   5.414   3.836   6.943 -0.6544 -0.4478 -0.7578
   69CHL1    C1 7556   5.571   4.065   6.915 -1.2234 -0.0551 -0.6006
   69CHL1   H1A 7557   5.498   4.130   6.967 -1.3083 -0.7073  0.1250
   69CHL1   H1B 7558   5.666   4.120   6.897 -0.6843 -1.1535 -1.2240
   69CHL1    C2 7559   5.509   4.037   6.776 -0.3103  0.3098 -0.7275
   69CHL1   H2A 7560   5.516   4.137   6.728  1.6076  0.5717 -0.0005
   69CHL1   H2B 7561   5.402   4.010   6.786 -0.0139 -1.6013 -2.1887
   69CHL1   C20 7562   5.810   4.015   7.672  0.6106  0.7971  0.1239
   69CHL1   H20 7563   5.751   3.926   7.702  1.1983 -2.0947 -5.7509
   69CHL1   C21 7564   5.719   4.129   7.677  0.0580 -0.2031 -0.9044
   69CHL1  H21A 7565   5.698   4.165   7.780 -1.1677 -1.2395 -0.7782
   69CHL1  H21B 7566   5.624   4.114   7.622  0.2946 -0.2229 -1.3157
   69CHL1  H21C 7567   5.760   4.217   7.622 -0.2638 -0.0934 -0.9659
   69CHL1   C22 7568   5.939   4.034   7.760 -0.2486 -0.1759  0.4418
   69CHL1  H22A 7569   6.003   3.944   7.747 -0.6532 -0.8655  2.7306
   69CHL1  H22B 7570   5.985   4.128   7.722 -0.7473  0.5461  1.5633
   69CHL1   C23 7571   5.912   4.053   7.914 -0.2241  0.1658 -0.1137
   69CHL1  H23A 7572   5.886   4.161   7.917 -1.0852 -0.0176 -0.6557
   69CHL1  H23B 7573   5.829   3.990   7.954 -0.6765  1.6218  1.3588
   69CHL1   C24 7574   6.033   4.036   8.000 -0.2103  0.1624 -0.4990
   69CHL1  H24A 7575   6.086   3.939   7.990 -1.4236 -0.4764 -0.9584
   69CHL1  H24B 7576   6.102   4.112   7.959  0.9369 -0.1785  0.7208
   69CHL1   C25 7577   6.014   4.060   8.146  0.2510 -0.2425 -0.4055
   69CHL1   H25 7578   6.113   4.052   8.196 -0.9084  1.6580  2.4911
   69CHL1   C26 7579   5.957   4.194   8.184 -0.0546 -0.8605 -0.0500
   69CHL1  H26A 7580   5.848   4.179   8.165 -0.3854 -0.1483  1.1966
   69CHL1  H26B 7581   5.960   4.222   8.291  0.0273 -1.2538  0.0503
   69CHL1  H26C 7582   6.006   4.278   8.130 -0.1759  0.3873  1.7177
   69CHL1   C27 7583   5.925   3.955   8.215  0.8112 -0.2544  0.2865
   69CHL1  H27A 7584   5.819   3.954   8.184  0.6823  0.9601  0.6515
   69CHL1  H27B 7585   5.967   3.858   8.182  1.0850  0.2801 -1.0375
   69CHL1  H27C 7586   5.946   3.963   8.324  1.7419  1.9485  0.0020
   70CHL1    C3 7587   5.424   6.022   7.175 -0.3246 -0.1678  0.0317
   70CHL1    H3 7588   5.495   5.936   7.176  2.1458  1.7170 -1.3032
   70CHL1    O3 7589   5.406   6.056   7.040 -0.9361 -0.5699 -0.7037
   70CHL1   H3' 7590   5.348   6.132   7.046  0.8159  0.7095  1.7075
   70CHL1    C4 7591   5.295   5.985   7.243  0.4766  0.5209 -0.2268
   70CHL1   H4A 7592   5.220   6.063   7.216  1.6337  0.6281 -3.5661
   70CHL1   H4B 7593   5.241   5.899   7.199  0.7461  0.6051 -0.7256
   70CHL1    C5 7594   5.316   5.968   7.394 -0.0169  0.4387 -0.5285
   70CHL1    C6 7595   5.285   5.856   7.465  0.3596 -0.2725  0.2693
   70CHL1    H6 7596   5.246   5.773   7.404 -0.4679 -0.6388  1.2652
   70CHL1    C7 7597   5.303   5.844   7.615  0.7527  0.8818  0.8108
   70CHL1   H7A 7598   5.212   5.799   7.661  0.5846  1.6331  1.2289
   70CHL1   H7B 7599   5.389   5.774   7.626  0.9007  0.6453 -1.4334
   70CHL1    C8 7600   5.320   5.978   7.686  0.6439  0.0497 -0.3054
   70CHL1    H8 7601   5.223   6.030   7.680 -0.2881 -1.7129 -1.5147
   70CHL1   C14 7602   5.355   5.958   7.834 -0.5008 -0.3279 -0.3512
   70CHL1   H14 7603   5.449   5.900   7.836 -0.6566 -0.6122 -0.8880
   70CHL1   C15 7604   5.243   5.889   7.918  0.4789  0.5229  0.4896
   70CHL1  H15A 7605   5.149   5.914   7.864  1.4829 -0.1566 -1.7156
   70CHL1  H15B 7606   5.259   5.780   7.903  1.1473  0.6624  0.1377
   70CHL1   C16 7607   5.274   5.930   8.059 -0.0120  0.1245 -0.4266
   70CHL1  H16A 7608   5.185   5.983   8.099  0.7146  1.0792 -0.0519
   70CHL1  H16B 7609   5.293   5.845   8.127  1.2835  1.2127  0.6118
   70CHL1   C17 7610   5.391   6.032   8.056 -0.0221 -0.1141 -0.0719
   70CHL1   H17 7611   5.486   5.975   8.070  2.2984  2.9431 -2.0534
   70CHL1   C13 7612   5.383   6.086   7.906  0.0777 -0.4045 -0.1411
   70CHL1   C18 7613   5.262   6.179   7.904 -0.0188 -0.0419 -0.1522
   70CHL1  H18A 7614   5.232   6.215   7.803  0.9258  0.0629 -0.4100
   70CHL1  H18B 7615   5.173   6.136   7.954  0.2619 -1.3730 -0.7599
   70CHL1  H18C 7616   5.289   6.277   7.950  1.2304 -1.0784  1.4235
   70CHL1   C12 7617   5.506   6.150   7.839 -0.1523 -0.2786 -0.3228
   70CHL1  H12A 7618   5.535   6.244   7.890 -1.4230 -0.1803  0.2431
   70CHL1  H12B 7619   5.594   6.082   7.842 -0.3592 -0.5553 -0.4569
   70CHL1   C11 7620   5.481   6.177   7.693  0.7815 -0.0871 -0.7617
   70CHL1  H11A 7621   5.403   6.256   7.691  1.3105  0.4920  0.4547
   70CHL1  H11B 7622   5.569   6.224   7.643 -0.9965  1.8218 -2.2773
   70CHL1    C9 7623   5.427   6.055   7.613 -0.4656 -0.1030 -0.5698
   70CHL1    H9 7624   5.525   6.004   7.599  0.6505  1.8227 -0.0122
   70CHL1   C10 7625   5.380   6.089   7.465 -0.5794  1.0919  0.0442
   70CHL1   C19 7626   5.266   6.190   7.461  0.2230  0.1638 -0.3511
   70CHL1  H19A 7627   5.302   6.283   7.509  3.3671 -0.9381 -0.3407
   70CHL1  H19B 7628   5.239   6.223   7.359 -1.1311 -0.1897 -0.1210
   70CHL1  H19C 7629   5.174   6.157   7.515  0.0514  0.3812 -0.5109
   70CHL1    C1 7630   5.517   6.117   7.392  0.0430  1.0790  0.0426
   70CHL1   H1A 7631   5.553   6.214   7.433  1.9148  1.4098 -2.1705
   70CHL1   H1B 7632   5.598   6.041   7.399 -0.3118  0.7827  1.2624
   70CHL1    C2 7633   5.501   6.140   7.241  0.0753 -0.1841  0.2385
   70CHL1   H2A 7634   5.601   6.162   7.200 -0.3430  0.0153 -0.7066
   70CHL1   H2B 7635   5.449   6.238   7.240  2.1520  0.9880  1.6559
   70CHL1   C20 7636   5.402   6.139   8.172 -0.2908  0.6821  0.2224
   70CHL1   H20 7637   5.347   6.231   8.141 -0.4201  0.1079 -1.3470
   70CHL1   C21 7638   5.556   6.178   8.180 -0.0816  0.7134  0.3739
   70CHL1  H21A 7639   5.574   6.275   8.230  2.5187 -0.2122  1.3960
   70CHL1  H21B 7640   5.600   6.189   8.079  1.0441 -1.2256  0.5979
   70CHL1  H21C 7641   5.621   6.108   8.237  0.8720  1.8588  0.7299
   70CHL1   C22 7642   5.344   6.086   8.311 -0.0809 -0.8296  0.3519
   70CHL1  H22A 7643   5.346   6.169   8.386 -0.7087  0.4453 -1.0036
   70CHL1  H22B 7644   5.238   6.058   8.297 -0.5343  1.2704 -0.8209
   70CHL1   C23 7645   5.419   5.964   8.366  0.4418 -0.3894  0.1349
   70CHL1  H23A 7646   5.448   5.894   8.285 -1.8288 -1.2154 -0.0309
   70CHL1  H23B 7647   5.519   5.998   8.401  0.8969  0.3031 -1.7565
   70CHL1   C24 7648   5.357   5.895   8.494 -0.1566  0.3717  0.1074
   70CHL1  H24A 7649   5.345   5.974   8.571  0.6305  1.3556 -0.7472
   70CHL1  H24B 7650   5.253   5.863   8.471 -0.5445  0.9019  1.0582
   70CHL1   C25 7651   5.427   5.770   8.545 -0.0866  0.3835 -0.5569
   70CHL1   H25 7652   5.535   5.788   8.563 -0.0706 -0.5781  0.4356
   70CHL1   C26 7653   5.351   5.726   8.672  0.3168 -0.5759  0.2312
   70CHL1  H26A 7654   5.245   5.717   8.639  0.1586  1.5473  0.0164
   70CHL1  H26B 7655   5.390   5.626   8.701 -0.9207 -1.3411 -0.6256
   70CHL1  H26C 7656   5.362   5.793   8.760  1.8786 -0.9727  0.3622
   70CHL1   C27 7657   5.410   5.658   8.445 -0.1296  1.0779 -0.2707
   70CHL1  H27A 7658   5.472   5.674   8.355  0.8387 -0.8286  0.0249
   70CHL1  H27B 7659   5.442   5.560   8.485 -1.9605  0.9087  0.9017
   70CHL1  H27C 7660   5.302   5.644   8.421  0.4254 -0.5849 -2.0033
   71CHL1    C3 7661   4.025   3.378   6.822  0.6338 -0.0251 -0.2660
   71CHL1    H3 7662   3.951   3.449   6.865  1.7592 -0.7606  3.1872
   71CHL1    O3 7663   4.010   3.366   6.683  0.3940  0.2660  0.3298
   71CHL1   H3' 7664   4.095   3.337   6.651 -1.1341 -0.6322 -3.4254
   71CHL1    C4 7665   4.167   3.409   6.858 -0.7526  0.0444  0.5721
   71CHL1   H4A 7666   4.238   3.342   6.804 -3.0020 -1.6184 -0.4953
   71CHL1   H4B 7667   4.188   3.507   6.810  0.2268 -1.3921 -2.1758
   71CHL1    C5 7668   4.200   3.412   7.005 -0.2510 -0.4178  0.7820
   71CHL1    C6 7669   4.270   3.521   7.055 -0.0707  0.4269  0.0215
   71CHL1    H6 7670   4.297   3.611   6.998  2.3024  0.2476  0.7630
   71CHL1    C7 7671   4.313   3.535   7.194 -0.8850  0.4322 -0.1817
   71CHL1   H7A 7672   4.422   3.559   7.202 -0.6035 -0.4513 -1.2590
   71CHL1   H7B 7673   4.257   3.615   7.247 -1.2194 -0.4261  0.7926
   71CHL1    C8 7674   4.299   3.405   7.274  0.3036 -0.0893 -0.5375
   71CHL1    H8 7675   4.387   3.342   7.248 -0.2591 -0.0553 -2.7406
   71CHL1   C14 7676   4.294   3.432   7.427  0.4345  0.1549  0.2251
   71CHL1   H14 7677   4.197   3.483   7.446 -0.5873 -1.2235 -1.0382
   71CHL1   C15 7678   4.395   3.527   7.489 -0.5983 -0.0423  0.3233
   71CHL1  H15A 7679   4.497   3.510   7.450 -0.7405 -0.4134  0.1128
   71CHL1  H15B 7680   4.386   3.635   7.462  1.2602 -0.0676 -0.5537
   71CHL1   C16 7681   4.384   3.499   7.641 -0.7234  0.6377 -0.4084
   71CHL1  H16A 7682   4.485   3.480   7.683  0.2820 -0.0780 -2.9230
   71CHL1  H16B 7683   4.337   3.571   7.712  0.8247  0.2564  1.0569
   71CHL1   C17 7684   4.309   3.364   7.656 -0.5629 -0.5134  0.2498
   71CHL1   H17 7685   4.210   3.397   7.694  0.1580  1.4416  0.5540
   71CHL1   C13 7686   4.294   3.307   7.512 -0.1896 -0.0567  0.4515
   71CHL1   C18 7687   4.422   3.211   7.480  0.6600  0.6435  0.1904
   71CHL1  H18A 7688   4.508   3.273   7.515  0.6232  0.5972  0.3666
   71CHL1  H18B 7689   4.402   3.114   7.531  0.7847  0.2142 -0.5669
   71CHL1  H18C 7690   4.441   3.191   7.372  1.3745 -1.6394  0.6809
   71CHL1   C12 7691   4.161   3.243   7.481  0.1597  0.2963 -0.3486
   71CHL1  H12A 7692   4.155   3.148   7.538  0.1052  0.1515 -0.5952
   71CHL1  H12B 7693   4.082   3.317   7.507 -0.7379  0.3602 -2.9592
   71CHL1   C11 7694   4.144   3.204   7.335 -0.1470 -0.1762  0.6601
   71CHL1  H11A 7695   4.207   3.116   7.310 -0.4737  0.4929 -3.1555
   71CHL1  H11B 7696   4.040   3.168   7.323 -0.9166  2.2998 -0.8642
   71CHL1    C9 7697   4.169   3.329   7.242 -0.3039  0.0331 -0.0309
   71CHL1    H9 7698   4.091   3.407   7.253 -1.1279 -0.5620 -1.4003
   71CHL1   C10 7699   4.160   3.293   7.090  0.2223  0.0054  0.0095
   71CHL1   C19 7700   4.266   3.178   7.059 -0.4935 -0.0292 -0.0172
   71CHL1  H19A 7701   4.258   3.143   6.954 -0.2756  1.2524 -0.4848
   71CHL1  H19B 7702   4.373   3.201   7.079 -0.2776 -0.1848 -0.9483
   71CHL1  H19C 7703   4.244   3.088   7.120  1.7886 -0.0670  0.8275
   71CHL1    C1 7704   4.016   3.258   7.048 -0.0762 -0.3745 -0.8052
   71CHL1   H1A 7705   3.971   3.173   7.103 -1.6413  0.3150 -0.9877
   71CHL1   H1B 7706   3.955   3.340   7.091 -0.0807 -0.8086  0.0431
   71CHL1    C2 7707   3.996   3.252   6.896 -0.2766  0.2772 -0.0107
   71CHL1   H2A 7708   3.892   3.225   6.869  0.0801 -2.3559  0.8904
   71CHL1   H2B 7709   4.056   3.165   6.862 -1.2832 -0.5198  0.1953
   71CHL1   C20 7710   4.350   3.266   7.774 -0.6171  0.6418  0.5709
   71CHL1   H20 7711   4.308   3.166   7.751 -0.1366  0.3670  0.8610
   71CHL1   C21 7712   4.286   3.318   7.902  0.5004  1.0132  0.5849
   71CHL1  H21A 7713   4.319   3.268   7.996  3.5198 -0.2658 -1.0240
   71CHL1  H21B 7714   4.177   3.304   7.884  0.6045  1.0410 -0.0989
   71CHL1  H21C 7715   4.298   3.428   7.915  0.0681  1.3614 -1.5827
   71CHL1   C22 7716   4.508   3.257   7.799  1.0057  0.4727 -0.1352
   71CHL1  H22A 7717   4.558   3.263   7.700 -1.3194  0.0699 -1.4212
   71CHL1  H22B 7718   4.541   3.333   7.872 -0.9878  1.8646 -0.5877
   71CHL1   C23 7719   4.561   3.119   7.848 -0.4641 -0.5342  0.3767
   71CHL1  H23A 7720   4.527   3.031   7.790 -0.0871 -0.2803 -0.2293
   71CHL1  H23B 7721   4.671   3.130   7.848 -0.5007  1.1642  3.5882
   71CHL1   C24 7722   4.502   3.091   7.990  0.0222  0.0298 -0.3060
   71CHL1  H24A 7723   4.505   3.180   8.057 -0.6177 -0.6096  0.5823
   71CHL1  H24B 7724   4.394   3.069   7.983  0.2309 -1.0124 -0.3395
   71CHL1   C25 7725   4.584   2.977   8.064 -0.3336  0.7644 -0.5053
   71CHL1   H25 7726   4.690   3.011   8.065 -0.2156  0.3947  0.7937
   71CHL1   C26 7727   4.534   2.944   8.203  0.3390 -0.6773 -0.5034
   71CHL1  H26A 7728   4.500   3.037   8.254  0.3094  0.4395 -2.4578
   71CHL1  H26B 7729   4.446   2.876   8.208 -0.4978  0.4307  0.5008
   71CHL1  H26C 7730   4.609   2.894   8.268 -0.0587 -1.6712 -0.7731
   71CHL1   C27 7731   4.583   2.841   7.986 -1.3214  0.4805  0.2318
   71CHL1  H27A 7732   4.482   2.806   7.958 -1.6691  3.3072 -2.6036
   71CHL1  H27B 7733   4.632   2.856   7.887  0.7082  2.4848  1.4513
   71CHL1  H27C 7734   4.641   2.761   8.038  1.8603  0.3353 -3.0512
   72CHL1    C3 7735   4.870   6.793   7.216 -0.0973 -0.6743 -0.3195
   72CHL1    H3 7736   4.842   6.700   7.269 -0.1848  0.3584  1.5541
   72CHL1    O3 7737   4.839   6.788   7.080  0.1350  0.2734 -0.2869
   72CHL1   H3' 7738   4.917   6.823   7.037  1.1808  2.3205  2.9125
   72CHL1    C4 7739   4.786   6.896   7.284  0.4296  0.4464  0.4537
   72CHL1   H4A 7740   4.789   6.998   7.241 -1.4292  0.1301 -0.5245
   72CHL1   H4B 7741   4.679   6.874   7.267 -0.1668  1.2953  2.6913
   72CHL1    C5 7742   4.815   6.908   7.431  0.3711 -0.0949 -0.0457
   72CHL1    C6 7743   4.717   6.903   7.524  0.1573  0.0887 -1.0880
   72CHL1    H6 7744   4.609   6.893   7.502 -0.3418  0.8897  0.7652
   72CHL1    C7 7745   4.731   6.923   7.669  0.1492 -0.0449 -0.7092
   72CHL1   H7A 7746   4.649   6.982   7.715  1.4228  0.1347  1.4753
   72CHL1   H7B 7747   4.715   6.822   7.712 -2.1942 -0.3113 -2.0142
   72CHL1    C8 7748   4.870   6.971   7.708 -0.7026 -0.2537 -0.4637
   72CHL1    H8 7749   4.861   7.082   7.698 -1.4953 -0.0674  1.7777
   72CHL1   C14 7750   4.908   6.943   7.856  0.5233 -0.0416 -0.0199
   72CHL1   H14 7751   4.900   6.832   7.859  2.8851 -0.2769 -0.4348
   72CHL1   C15 7752   4.813   6.993   7.970  0.7909  0.2375  0.0622
   72CHL1  H15A 7753   4.806   7.103   7.958 -1.1898 -0.0963 -2.8174
   72CHL1  H15B 7754   4.712   6.949   7.959  0.2770  1.5066 -0.4740
   72CHL1   C16 7755   4.892   6.965   8.091  0.4393  0.3533 -0.0586
   72CHL1  H16A 7756   4.911   7.061   8.145  2.1100  2.3691 -3.8536
   72CHL1  H16B 7757   4.845   6.891   8.159 -1.9626  0.0249 -1.9377
   72CHL1   C17 7758   5.036   6.921   8.043  0.1155 -0.0813 -0.2519
   72CHL1   H17 7759   5.031   6.811   8.032 -0.7311 -0.5859  3.6515
   72CHL1   C13 7760   5.048   6.981   7.905 -0.2427  0.1409 -1.0781
   72CHL1   C18 7761   5.075   7.136   7.905 -0.2541  0.3170 -0.3841
   72CHL1  H18A 7762   5.180   7.162   7.926 -1.0043  1.3541  2.6929
   72CHL1  H18B 7763   5.044   7.180   7.808 -1.4432  0.1940 -0.0880
   72CHL1  H18C 7764   5.022   7.190   7.986 -0.2634  1.0942 -0.9012
   72CHL1   C12 7765   5.148   6.910   7.807 -0.1878 -0.3707 -0.8370
   72CHL1  H12A 7766   5.251   6.937   7.841 -1.6060  1.7112  2.3206
   72CHL1  H12B 7767   5.136   6.800   7.801 -2.1178 -0.1382 -1.7746
   72CHL1   C11 7768   5.128   6.955   7.665 -0.2137  0.9008 -0.4548
   72CHL1  H11A 7769   5.137   7.066   7.660 -0.1876  0.8934 -0.5570
   72CHL1  H11B 7770   5.204   6.912   7.596  1.4830  2.8536  0.0926
   72CHL1    C9 7771   4.987   6.916   7.618  0.2332  0.4974  0.2174
   72CHL1    H9 7772   4.977   6.806   7.633 -1.4776  0.8393  2.1304
   72CHL1   C10 7773   4.963   6.938   7.469  0.3037  0.1691 -0.3201
   72CHL1   C19 7774   4.987   7.087   7.429  0.4444  0.1958  0.0101
   72CHL1  H19A 7775   4.933   7.156   7.497 -0.0900 -0.3027  0.1048
   72CHL1  H19B 7776   5.096   7.103   7.448  0.6318  0.1618 -0.9813
   72CHL1  H19C 7777   4.958   7.123   7.328  0.6361  0.5499  0.0812
   72CHL1    C1 7778   5.047   6.835   7.380  0.3679  0.3325 -0.2809
   72CHL1   H1A 7779   5.155   6.856   7.396 -0.1384  0.7400  3.7831
   72CHL1   H1B 7780   5.047   6.741   7.439  2.0548 -1.4388 -2.9051
   72CHL1    C2 7781   5.014   6.833   7.235 -0.3885  0.2742  0.3752
   72CHL1   H2A 7782   5.079   6.761   7.180 -0.4069 -0.9355  1.8638
   72CHL1   H2B 7783   5.024   6.931   7.184  0.5439 -0.6680 -1.3302
   72CHL1   C20 7784   5.149   6.943   8.146 -0.1262  0.6175  0.2066
   72CHL1   H20 7785   5.244   6.922   8.091 -1.6170  0.4715 -2.5161
   72CHL1   C21 7786   5.134   6.830   8.252  0.4186 -0.3380 -0.0216
   72CHL1  H21A 7787   5.139   6.732   8.200  2.1928 -0.8749  1.0626
   72CHL1  H21B 7788   5.045   6.822   8.317  0.5257  0.7583  0.2849
   72CHL1  H21C 7789   5.221   6.835   8.321  1.2497 -0.7742 -1.0083
   72CHL1   C22 7790   5.161   7.079   8.218 -0.6854  0.9456  0.6572
   72CHL1  H22A 7791   5.169   7.155   8.138 -2.2654 -1.0614 -1.5293
   72CHL1  H22B 7792   5.079   7.097   8.291 -0.2795  0.5900  1.2129
   72CHL1   C23 7793   5.287   7.094   8.304 -0.2480  0.0817  0.4065
   72CHL1  H23A 7794   5.279   7.035   8.398 -2.9955 -1.6606 -0.7908
   72CHL1  H23B 7795   5.383   7.081   8.250 -0.1629  0.1216  0.5494
   72CHL1   C24 7796   5.301   7.242   8.344  1.0381 -0.0006  0.0911
   72CHL1  H24A 7797   5.328   7.308   8.259 -0.1410 -0.4745 -0.6858
   72CHL1  H24B 7798   5.197   7.270   8.372 -0.6440 -3.4431 -2.0648
   72CHL1   C25 7799   5.404   7.271   8.460 -0.1477 -0.2784 -0.3810
   72CHL1   H25 7800   5.393   7.196   8.541  0.8081  1.2894  1.2742
   72CHL1   C26 7801   5.555   7.260   8.419  0.2211  0.0129  0.0096
   72CHL1  H26A 7802   5.568   7.335   8.338 -0.3565  0.3513  0.2226
   72CHL1  H26B 7803   5.632   7.267   8.499  0.2953  0.0482 -0.0655
   72CHL1  H26C 7804   5.561   7.158   8.374 -1.1508  0.7928 -2.0587
   72CHL1   C27 7805   5.387   7.413   8.511  0.0773 -0.3850  0.5459
   72CHL1  H27A 7806   5.409   7.489   8.433 -1.8309 -1.4997 -1.1728
   72CHL1  H27B 7807   5.286   7.425   8.555 -0.1224  1.7755 -0.4072
   72CHL1  H27C 7808   5.457   7.424   8.597  1.8716 -0.5860 -0.8218
   73CHL1    C3 7809   2.634   4.158   6.876 -1.3112 -0.2337 -0.2973
   73CHL1    H3 7810   2.548   4.228   6.870 -2.0341 -0.7424  2.5934
   73CHL1    O3 7811   2.684   4.147   6.744 -0.3482  0.2647 -0.1984
   73CHL1   H3' 7812   2.636   4.070   6.711 -0.6255  1.1649 -2.0458
   73CHL1    C4 7813   2.745   4.220   6.970 -0.9592 -0.3264 -0.0339
   73CHL1   H4A 7814   2.830   4.153   6.943 -0.8556  0.9996 -3.4927
   73CHL1   H4B 7815   2.768   4.323   6.937 -0.2543 -0.7554 -0.9433
   73CHL1    C5 7816   2.704   4.216   7.117 -0.3171 -0.6435  0.1086
   73CHL1    C6 7817   2.718   4.334   7.181 -0.7567  1.0718 -0.5589
   73CHL1    H6 7818   2.767   4.418   7.131 -1.3270  2.3241  0.9251
   73CHL1    C7 7819   2.680   4.352   7.322  0.1349 -0.7261 -0.1190
   73CHL1   H7A 7820   2.756   4.404   7.385 -0.3132 -0.5235  0.2697
   73CHL1   H7B 7821   2.585   4.410   7.329 -0.2402 -1.3115 -0.2715
   73CHL1    C8 7822   2.649   4.213   7.397 -0.4327  0.2068 -0.2962
   73CHL1    H8 7823   2.747   4.164   7.412  1.4041  3.0533 -2.1239
   73CHL1   C14 7824   2.584   4.224   7.534  0.2278 -0.9942 -0.7910
   73CHL1   H14 7825   2.499   4.296   7.525  2.2721  1.4213 -2.4703
   73CHL1   C15 7826   2.666   4.304   7.645 -0.0673 -0.1599  0.0265
   73CHL1  H15A 7827   2.771   4.268   7.652  0.5364  1.6788  1.2954
   73CHL1  H15B 7828   2.679   4.414   7.636  0.9676 -0.3472 -0.9452
   73CHL1   C16 7829   2.603   4.252   7.775  0.2458 -0.5902  0.0786
   73CHL1  H16A 7830   2.679   4.204   7.841 -2.1452 -1.8904  2.0480
   73CHL1  H16B 7831   2.557   4.332   7.837  0.4403  1.0122 -1.7599
   73CHL1   C17 7832   2.498   4.152   7.732 -0.3082  0.3427 -0.0730
   73CHL1   H17 7833   2.401   4.196   7.699  0.1075  1.6040  0.3296
   73CHL1   C13 7834   2.550   4.094   7.599 -0.5786 -0.2710  0.1315
   73CHL1   C18 7835   2.672   4.012   7.620 -0.0083  1.0753  0.4034
   73CHL1  H18A 7836   2.702   3.960   7.526 -1.5216  0.8662  0.0048
   73CHL1  H18B 7837   2.761   4.060   7.667  0.9794 -1.3473  1.1894
   73CHL1  H18C 7838   2.649   3.923   7.682  0.2774  0.1451 -0.7651
   73CHL1   C12 7839   2.444   4.020   7.519 -0.3544  0.6908  0.1917
   73CHL1  H12A 7840   2.428   3.926   7.575  1.0402 -0.4025 -1.1514
   73CHL1  H12B 7841   2.357   4.088   7.508 -1.5506 -0.6244  1.2143
   73CHL1   C11 7842   2.494   3.995   7.375  0.0882 -0.4198  0.7243
   73CHL1  H11A 7843   2.560   3.906   7.366  2.3611  1.3227 -1.6106
   73CHL1  H11B 7844   2.402   3.969   7.319  0.9337 -2.5966  0.2526
   73CHL1    C9 7845   2.564   4.121   7.305  0.4802 -0.2847 -0.4116
   73CHL1    H9 7846   2.475   4.186   7.293  2.1530  2.3272  0.4337
   73CHL1   C10 7847   2.632   4.092   7.169 -0.3170 -0.1390  0.2617
   73CHL1   C19 7848   2.749   3.988   7.196  0.2127  0.5557 -0.2002
   73CHL1  H19A 7849   2.820   4.031   7.270 -1.1340 -0.8524  2.0394
   73CHL1  H19B 7850   2.701   3.897   7.238 -0.9895  1.6507  0.8935
   73CHL1  H19C 7851   2.789   3.943   7.103  0.5998 -0.4931  0.4575
   73CHL1    C1 7852   2.533   4.032   7.069  0.0905 -0.1605 -0.2753
   73CHL1   H1A 7853   2.493   3.933   7.099  0.8940 -0.5262 -0.3865
   73CHL1   H1B 7854   2.445   4.099   7.076 -1.2804 -2.0397  2.7514
   73CHL1    C2 7855   2.583   4.021   6.924 -1.0674  0.3460 -0.1250
   73CHL1   H2A 7856   2.503   3.982   6.857  0.4761 -0.3985 -1.6094
   73CHL1   H2B 7857   2.666   3.948   6.916 -1.6416 -0.2722 -0.6615
   73CHL1   C20 7858   2.463   4.056   7.851  0.6481  0.1532  0.4876
   73CHL1   H20 7859   2.405   3.976   7.802 -1.2304  0.5047  2.0145
   73CHL1   C21 7860   2.371   4.138   7.946  0.4394 -0.6756 -0.1887
   73CHL1  H21A 7861   2.425   4.207   8.014  0.4303 -0.8882  0.0375
   73CHL1  H21B 7862   2.318   4.069   8.015 -1.7006  1.0831  0.0382
   73CHL1  H21C 7863   2.293   4.195   7.892 -0.5084  0.7579  2.5242
   73CHL1   C22 7864   2.565   3.986   7.945 -0.8082 -0.3234 -0.0561
   73CHL1  H22A 7865   2.642   3.933   7.884 -1.9650 -1.8590 -0.2393
   73CHL1  H22B 7866   2.613   4.060   8.013  0.1007 -0.5700 -0.4057
   73CHL1   C23 7867   2.508   3.863   8.013  0.4402  0.0352 -0.7602
   73CHL1  H23A 7868   2.427   3.904   8.077  1.7244 -0.7837  1.4989
   73CHL1  H23B 7869   2.463   3.786   7.947 -1.2534 -0.9390  1.4140
   73CHL1   C24 7870   2.616   3.797   8.101  0.4318  0.1769 -0.4911
   73CHL1  H24A 7871   2.693   3.766   8.027 -1.2096 -2.6486 -1.1464
   73CHL1  H24B 7872   2.677   3.858   8.171 -1.2189  0.8945  0.3711
   73CHL1   C25 7873   2.570   3.679   8.193 -0.4647 -0.3098 -0.0389
   73CHL1   H25 7874   2.485   3.721   8.251  0.5158 -1.0106  1.9942
   73CHL1   C26 7875   2.521   3.551   8.118 -0.2592 -0.4672  0.3575
   73CHL1  H26A 7876   2.591   3.509   8.043  0.0239  2.2286 -0.9963
   73CHL1  H26B 7877   2.480   3.468   8.180 -0.8191  0.0265  0.6620
   73CHL1  H26C 7878   2.435   3.580   8.054  0.8763 -1.2081 -1.5788
   73CHL1   C27 7879   2.685   3.624   8.286  0.7573 -0.9927 -0.5268
   73CHL1  H27A 7880   2.771   3.604   8.219  2.0386  2.2321 -0.0117
   73CHL1  H27B 7881   2.725   3.702   8.354 -0.7288  0.3516 -1.1336
   73CHL1  H27C 7882   2.641   3.534   8.336 -1.0531 -0.3074 -0.8039
   74CHL1    C3 7883   3.792   2.965   6.686  0.2296 -0.9212  0.1309
   74CHL1    H3 7884   3.837   3.055   6.731  0.0497 -1.0216  0.5159
   74CHL1    O3 7885   3.751   2.977   6.553  0.6010  0.4294  0.1552
   74CHL1   H3' 7886   3.707   2.895   6.529  1.0162 -0.0634  1.0343
   74CHL1    C4 7887   3.897   2.853   6.686  0.1128  0.3491 -0.2785
   74CHL1   H4A 7888   3.849   2.755   6.665 -1.9631  1.1685  0.4079
   74CHL1   H4B 7889   3.971   2.882   6.608 -0.4654 -0.5289 -1.1848
   74CHL1    C5 7890   3.946   2.830   6.822  0.3898 -0.0095  0.0145
   74CHL1    C6 7891   4.079   2.819   6.847  0.0520 -0.1133  0.0148
   74CHL1    H6 7892   4.139   2.824   6.755 -1.2967 -1.0142 -0.9390
   74CHL1    C7 7893   4.139   2.803   6.979  0.2454 -0.3554  0.0728
   74CHL1   H7A 7894   4.224   2.733   6.963  0.1209 -0.6639  0.7657
   74CHL1   H7B 7895   4.175   2.906   7.000 -1.0667  0.0533  0.4394
   74CHL1    C8 7896   4.046   2.760   7.093  0.2233  0.0530  0.3140
   74CHL1    H8 7897   4.035   2.650   7.081 -0.0297 -0.0824  1.6660
   74CHL1   C14 7898   4.106   2.806   7.227  0.5335 -0.1546 -0.7049
   74CHL1   H14 7899   4.101   2.917   7.236  1.5743 -0.1815  0.4479
   74CHL1   C15 7900   4.258   2.797   7.243  0.3029 -0.0655 -0.5500
   74CHL1  H15A 7901   4.296   2.695   7.218 -3.7750 -2.5101  2.0398
   74CHL1  H15B 7902   4.311   2.883   7.197  0.2361  0.9079  1.1333
   74CHL1   C16 7903   4.268   2.812   7.398  1.0031 -0.0938  0.3139
   74CHL1  H16A 7904   4.306   2.717   7.441  0.1956 -1.6609 -2.2203
   74CHL1  H16B 7905   4.327   2.904   7.417  0.7480  0.5403 -1.6752
   74CHL1   C17 7906   4.121   2.818   7.458 -0.5343  0.2703  0.7629
   74CHL1   H17 7907   4.094   2.925   7.454 -0.5478  0.2325 -1.0831
   74CHL1   C13 7908   4.031   2.758   7.353 -0.1309 -0.2114  0.4020
   74CHL1   C18 7909   4.034   2.602   7.354  0.1068  0.1723 -0.2464
   74CHL1  H18A 7910   3.960   2.564   7.427  1.1256 -0.9695  0.2261
   74CHL1  H18B 7911   3.993   2.563   7.258  1.0770 -0.6128 -0.3623
   74CHL1  H18C 7912   4.132   2.559   7.381 -0.4885 -1.2128 -0.2233
   74CHL1   C12 7913   3.878   2.807   7.343  0.0859 -0.2295 -0.5779
   74CHL1  H12A 7914   3.812   2.770   7.424 -0.4456  1.9747  0.0592
   74CHL1  H12B 7915   3.879   2.916   7.360 -1.7968 -0.4943  1.5641
   74CHL1   C11 7916   3.825   2.783   7.201 -0.0093  0.3053 -0.2740
   74CHL1  H11A 7917   3.812   2.672   7.196  0.6440  0.2103  0.0036
   74CHL1  H11B 7918   3.725   2.829   7.193  0.7307  1.6013 -3.6843
   74CHL1    C9 7919   3.912   2.830   7.076  1.2820  0.7100 -0.4105
   74CHL1    H9 7920   3.928   2.940   7.087  0.1068  0.8484  0.0289
   74CHL1   C10 7921   3.841   2.817   6.940 -0.1498 -0.7487  0.0616
   74CHL1   C19 7922   3.769   2.680   6.940  0.6223  0.3653 -1.0031
   74CHL1  H19A 7923   3.833   2.602   6.986  0.7477  0.4466 -1.0382
   74CHL1  H19B 7924   3.676   2.692   6.999  2.3574  0.8616  1.8119
   74CHL1  H19C 7925   3.748   2.645   6.837 -0.7583  0.0960 -0.6471
   74CHL1    C1 7926   3.729   2.928   6.909 -0.7248  0.5056 -0.9711
   74CHL1   H1A 7927   3.650   2.926   6.988  0.7136  1.1612  0.5363
   74CHL1   H1B 7928   3.782   3.025   6.921  2.0999 -0.8193 -1.9456
   74CHL1    C2 7929   3.673   2.919   6.772 -0.9890  0.1819  1.2114
   74CHL1   H2A 7930   3.588   2.990   6.765 -0.5883  0.7621  1.9564
   74CHL1   H2B 7931   3.650   2.813   6.748 -0.9433  0.1346  1.3731
   74CHL1   C20 7932   4.124   2.769   7.606  0.8246  0.6484  0.4025
   74CHL1   H20 7933   4.162   2.665   7.614 -0.7190  0.0459  0.1861
   74CHL1   C21 7934   3.977   2.774   7.665 -0.3750 -0.1994  0.3621
   74CHL1  H21A 7935   3.984   2.724   7.764  0.2745  1.4686  1.2003
   74CHL1  H21B 7936   3.925   2.723   7.581  2.5772  1.9934 -3.1419
   74CHL1  H21C 7937   3.949   2.882   7.665  0.4535  0.0235  0.5200
   74CHL1   C22 7938   4.221   2.848   7.692  0.8502  0.0802 -0.6369
   74CHL1  H22A 7939   4.328   2.824   7.674  1.5020  0.8410  1.8297
   74CHL1  H22B 7940   4.202   2.956   7.677  0.1212  0.1471  0.5912
   74CHL1   C23 7941   4.208   2.827   7.844  0.1931  0.6079 -0.1634
   74CHL1  H23A 7942   4.265   2.903   7.900  1.0853 -0.5762  0.5755
   74CHL1  H23B 7943   4.103   2.842   7.876  0.1179  0.7131 -0.4529
   74CHL1   C24 7944   4.246   2.676   7.874 -0.3485  0.3440 -0.4978
   74CHL1  H24A 7945   4.170   2.616   7.819 -1.7885  2.0655 -0.5186
   74CHL1  H24B 7946   4.350   2.659   7.839  0.2266 -0.0162  1.2683
   74CHL1   C25 7947   4.250   2.633   8.026  0.7071 -0.5718 -0.8868
   74CHL1   H25 7948   4.318   2.703   8.080 -1.8097  1.2724  0.1134
   74CHL1   C26 7949   4.108   2.633   8.087  0.0948 -0.1926  0.5888
   74CHL1  H26A 7950   4.109   2.586   8.187  0.7214  0.6948  1.0147
   74CHL1  H26B 7951   4.087   2.741   8.102 -2.3780 -0.2872 -1.5807
   74CHL1  H26C 7952   4.030   2.588   8.021 -2.2048  3.1117  0.8317
   74CHL1   C27 7953   4.304   2.489   8.056  0.0965 -0.6019  0.0122
   74CHL1  H27A 7954   4.242   2.415   8.002 -2.4975 -0.1141  2.1159
   74CHL1  H27B 7955   4.413   2.478   8.036 -0.2722 -2.3107 -1.2991
   74CHL1  H27C 7956   4.293   2.476   8.166 -0.4334  1.3016  0.2178
   75CHL1    C3 7957   6.563   2.504   6.729  0.2861  0.2545 -0.2558
   75CHL1    H3 7958   6.544   2.397   6.752  0.5485 -0.0788 -1.5187
   75CHL1    O3 7959   6.584   2.536   6.594  0.5745 -0.2905 -0.4428
   75CHL1   H3' 7960   6.614   2.627   6.593  1.2557 -0.4672  1.0507
   75CHL1    C4 7961   6.438   2.582   6.781 -0.2735  0.0176 -0.0761
   75CHL1   H4A 7962   6.441   2.688   6.749 -0.4886  0.2126  0.5265
   75CHL1   H4B 7963   6.352   2.546   6.722 -0.5791 -0.8340  0.8604
   75CHL1    C5 7964   6.411   2.579   6.929  0.4160  0.4335 -0.0152
   75CHL1    C6 7965   6.284   2.539   6.969 -0.3785 -0.2562  0.1533
   75CHL1    H6 7966   6.217   2.509   6.887  0.2217  1.9947 -1.2655
   75CHL1    C7 7967   6.249   2.531   7.118  0.5107 -0.1900  0.0178
   75CHL1   H7A 7968   6.158   2.589   7.144 -0.9751 -1.5593 -1.8673
   75CHL1   H7B 7969   6.235   2.425   7.148  0.4774 -0.0802  0.3993
   75CHL1    C8 7970   6.359   2.584   7.216 -0.4396  0.2291 -0.7236
   75CHL1    H8 7971   6.339   2.693   7.222  0.7402  0.4515 -0.5859
   75CHL1   C14 7972   6.355   2.510   7.353 -0.7436  0.8232  0.4952
   75CHL1   H14 7973   6.388   2.408   7.324  0.7299  1.7295 -1.2080
   75CHL1   C15 7974   6.220   2.482   7.421 -0.3815  0.1737  0.1758
   75CHL1  H15A 7975   6.157   2.573   7.431 -1.7819 -0.6827 -0.5817
   75CHL1  H15B 7976   6.151   2.408   7.377 -0.1762 -0.3065  0.6620
   75CHL1   C16 7977   6.258   2.459   7.568 -0.4564  0.1898 -0.1684
   75CHL1  H16A 7978   6.201   2.527   7.635  1.4309  1.4636  0.1963
   75CHL1  H16B 7979   6.242   2.354   7.601 -1.3159  0.5171  0.5088
   75CHL1   C17 7980   6.413   2.482   7.582  0.1147  0.0651 -0.2482
   75CHL1   H17 7981   6.461   2.387   7.553  2.3942  1.6398 -2.0285
   75CHL1   C13 7982   6.448   2.565   7.460  0.1685  0.0668  0.4611
   75CHL1   C18 7983   6.400   2.709   7.490 -1.3495 -0.2643  0.5339
   75CHL1  H18A 7984   6.477   2.767   7.546 -0.1876 -0.9763 -0.2855
   75CHL1  H18B 7985   6.386   2.767   7.396 -0.3001 -1.7495 -0.5811
   75CHL1  H18C 7986   6.308   2.706   7.552 -0.4657  0.9589  1.9778
   75CHL1   C12 7987   6.593   2.556   7.405  0.4306  0.2068 -0.1632
   75CHL1  H12A 7988   6.674   2.602   7.465  0.5270  0.0242 -0.1540
   75CHL1  H12B 7989   6.629   2.452   7.398 -1.1653 -0.6628  2.8875
   75CHL1   C11 7990   6.599   2.632   7.266  0.2061 -0.4721  0.2457
   75CHL1  H11A 7991   6.586   2.742   7.277  0.6236 -0.3164 -0.7844
   75CHL1  H11B 7992   6.698   2.603   7.224  0.0694 -0.6412  0.0424
   75CHL1    C9 7993   6.504   2.574   7.160 -0.3546  0.2256 -0.3510
   75CHL1    H9 7994   6.535   2.468   7.158 -2.8834 -0.6455  1.7374
   75CHL1   C10 7995   6.532   2.616   7.015 -0.3010 -0.1541 -0.3625
   75CHL1   C19 7996   6.538   2.774   7.017 -0.1091 -0.1090  0.1704
   75CHL1  H19A 7997   6.453   2.808   7.080 -0.5300 -1.4405  0.3747
   75CHL1  H19B 7998   6.640   2.793   7.056 -0.2297 -0.3280  0.6050
   75CHL1  H19C 7999   6.522   2.815   6.915 -0.2432 -1.5496 -0.4195
   75CHL1    C1 8000   6.654   2.539   6.957  0.1660  0.1639 -0.6540
   75CHL1   H1A 8001   6.741   2.573   7.017  0.0983  0.3461 -0.6586
   75CHL1   H1B 8002   6.633   2.433   6.986 -0.0031  0.0271 -1.2550
   75CHL1    C2 8003   6.682   2.550   6.813 -0.2180  0.1624  0.0087
   75CHL1   H2A 8004   6.777   2.494   6.796 -0.0007  0.6765 -0.5005
   75CHL1   H2B 8005   6.702   2.657   6.790  0.4942  0.7516  2.9482
   75CHL1   C20 8006   6.452   2.521   7.723  0.2794 -0.3533 -0.1124
   75CHL1   H20 8007   6.397   2.614   7.748  0.2091 -0.0170 -1.4160
   75CHL1   C21 8008   6.599   2.569   7.738 -0.0758  0.2540  0.6319
   75CHL1  H21A 8009   6.605   2.672   7.699  1.0161  0.3482  1.0224
   75CHL1  H21B 8010   6.664   2.512   7.669 -0.2294  1.1249 -0.2539
   75CHL1  H21C 8011   6.627   2.577   7.845 -0.6498  1.5875  0.6964
   75CHL1   C22 8012   6.426   2.403   7.817  0.5477  0.0306  0.1235
   75CHL1  H22A 8013   6.332   2.351   7.789 -0.2517  0.4052  1.9828
   75CHL1  H22B 8014   6.510   2.330   7.812 -0.9376 -1.7675  0.4662
   75CHL1   C23 8015   6.408   2.452   7.953  0.2902  0.5129 -0.3500
   75CHL1  H23A 8016   6.481   2.528   7.989  0.1039  0.3603  0.3470
   75CHL1  H23B 8017   6.304   2.488   7.969 -0.4266 -1.8050  0.6000
   75CHL1   C24 8018   6.408   2.329   8.052 -0.0966 -0.7110 -0.7282
   75CHL1  H24A 8019   6.328   2.260   8.020 -0.6652 -0.2321 -0.3538
   75CHL1  H24B 8020   6.510   2.284   8.049  0.9505  1.2441  1.7122
   75CHL1   C25 8021   6.403   2.379   8.199 -0.1442  0.1593 -0.0974
   75CHL1   H25 8022   6.462   2.472   8.213 -0.7379  0.3731  1.1195
   75CHL1   C26 8023   6.260   2.429   8.241 -0.3111  0.3923  0.3976
   75CHL1  H26A 8024   6.196   2.343   8.215  1.2809 -0.3942 -1.1385
   75CHL1  H26B 8025   6.262   2.453   8.350  0.6816 -0.2123  0.5241
   75CHL1  H26C 8026   6.228   2.519   8.185  2.4374  1.2912  0.0932
   75CHL1   C27 8027   6.444   2.279   8.306  0.1136 -0.0150 -0.4253
   75CHL1  H27A 8028   6.377   2.190   8.302 -1.4615  1.0313  1.3761
   75CHL1  H27B 8029   6.549   2.243   8.294  0.0402 -0.6254  0.6461
   75CHL1  H27C 8030   6.446   2.344   8.396  1.6055 -0.1125 -0.3525
   76CHL1    C3 8031   3.740   5.359   7.286 -0.0099 -0.7591  0.7502
   76CHL1    H3 8032   3.632   5.349   7.309 -0.1081  1.2372  1.3347
   76CHL1    O3 8033   3.744   5.393   7.145 -0.1599  0.4772 -1.2187
   76CHL1   H3' 8034   3.716   5.484   7.133 -0.1667  0.4891 -1.1143
   76CHL1    C4 8035   3.792   5.483   7.359  0.6838 -0.0256 -0.2326
   76CHL1   H4A 8036   3.896   5.502   7.327  0.1315 -0.0913 -2.1655
   76CHL1   H4B 8037   3.736   5.576   7.334  1.1327  0.2233 -0.3105
   76CHL1    C5 8038   3.789   5.451   7.509 -0.5089 -0.4717  0.3324
   76CHL1    C6 8039   3.720   5.526   7.596 -0.4979 -0.5413 -0.5975
   76CHL1    H6 8040   3.675   5.620   7.561  0.3569  0.4058  0.7458
   76CHL1    C7 8041   3.722   5.508   7.745  0.4491  0.1841 -0.0008
   76CHL1   H7A 8042   3.732   5.608   7.791  2.7300 -0.9335  2.1448
   76CHL1   H7B 8043   3.626   5.470   7.787  0.5092  1.6724  1.5800
   76CHL1    C8 8044   3.830   5.408   7.781 -0.6450 -0.0749 -0.0786
   76CHL1    H8 8045   3.931   5.450   7.761 -0.7187 -1.2381 -3.5637
   76CHL1   C14 8046   3.804   5.365   7.927  0.5074 -0.4144  0.5308
   76CHL1   H14 8047   3.708   5.310   7.926 -0.1384  0.6605  1.2967
   76CHL1   C15 8048   3.798   5.475   8.031 -0.0042 -0.5222 -0.0555
   76CHL1  H15A 8049   3.869   5.546   7.984 -0.0622 -0.6506 -0.3346
   76CHL1  H15B 8050   3.706   5.535   8.046 -0.0102 -0.4335 -0.4389
   76CHL1   C16 8051   3.838   5.406   8.162  0.1247 -0.4833 -0.1891
   76CHL1  H16A 8052   3.922   5.466   8.204 -0.6497  1.1123 -0.8370
   76CHL1  H16B 8053   3.757   5.399   8.237  0.6036 -0.3120  0.3556
   76CHL1   C17 8054   3.877   5.255   8.123  0.8600 -0.0057  0.2742
   76CHL1   H17 8055   3.779   5.202   8.125  0.9018 -0.1401 -0.7651
   76CHL1   C13 8056   3.915   5.262   7.975 -0.7059  0.3188  0.6603
   76CHL1   C18 8057   4.056   5.325   7.951  0.1645  0.0529  0.0881
   76CHL1  H18A 8058   4.069   5.424   8.000 -4.8929  1.2064 -0.3335
   76CHL1  H18B 8059   4.131   5.251   7.987 -0.5301 -1.5151 -1.6062
   76CHL1  H18C 8060   4.071   5.332   7.842 -3.0377 -1.9096 -0.5859
   76CHL1   C12 8061   3.894   5.133   7.898 -0.5449  0.3202 -0.5290
   76CHL1  H12A 8062   3.972   5.058   7.922  0.7779  0.7360 -3.1916
   76CHL1  H12B 8063   3.796   5.084   7.918 -0.0073 -0.4209  0.3862
   76CHL1   C11 8064   3.907   5.157   7.746  0.3489 -0.9495 -0.6120
   76CHL1  H11A 8065   4.011   5.177   7.712 -0.9759  2.7662 -2.9928
   76CHL1  H11B 8066   3.864   5.067   7.696 -2.8962  0.8148 -1.2914
   76CHL1    C9 8067   3.829   5.287   7.687  0.7243  0.4847  0.3436
   76CHL1    H9 8068   3.725   5.251   7.681  1.4991 -1.7302 -3.5299
   76CHL1   C10 8069   3.865   5.327   7.545  0.5448  0.8327  0.3476
   76CHL1   C19 8070   4.019   5.363   7.525  0.0105  0.7464  0.0469
   76CHL1  H19A 8071   4.086   5.280   7.557 -1.1067 -1.1871 -2.2590
   76CHL1  H19B 8072   4.038   5.380   7.417  0.9559 -0.2879  0.0335
   76CHL1  H19C 8073   4.052   5.453   7.581  1.7128 -0.5283  1.2014
   76CHL1    C1 8074   3.845   5.200   7.461  0.2031 -0.0411  0.5146
   76CHL1   H1A 8075   3.929   5.128   7.473 -0.6077 -0.9574  0.7626
   76CHL1   H1B 8076   3.752   5.146   7.488 -0.7994  0.6548 -1.3309
   76CHL1    C2 8077   3.827   5.242   7.308  0.6266  0.2732  0.5425
   76CHL1   H2A 8078   3.781   5.147   7.272  1.5237 -0.6099  1.6371
   76CHL1   H2B 8079   3.923   5.246   7.252 -0.5747  0.2730 -1.6436
   76CHL1   C20 8080   3.977   5.213   8.226 -0.1106  0.2937  0.0765
   76CHL1   H20 8081   4.058   5.288   8.223  1.3821 -1.2555  0.3310
   76CHL1   C21 8082   4.033   5.075   8.196  0.2220  0.1972 -0.5304
   76CHL1  H21A 8083   3.946   5.012   8.167  0.5557 -0.7259  0.4105
   76CHL1  H21B 8084   4.067   5.022   8.287  0.3177 -1.0259 -1.2490
   76CHL1  H21C 8085   4.111   5.089   8.118  2.0914 -3.1366  0.5462
   76CHL1   C22 8086   3.928   5.213   8.380  0.0954 -0.8169  0.0876
   76CHL1  H22A 8087   4.010   5.179   8.447  1.1065  0.9654 -0.2078
   76CHL1  H22B 8088   3.909   5.318   8.408 -2.0347 -0.9630 -0.6134
   76CHL1   C23 8089   3.799   5.131   8.413 -0.0772  0.4009  0.1057
   76CHL1  H23A 8090   3.709   5.183   8.374  0.4379  0.2842 -1.2844
   76CHL1  H23B 8091   3.812   5.032   8.364  4.6063  0.0436  1.5786
   76CHL1   C24 8092   3.775   5.107   8.569 -0.0814  0.4374  0.4761
   76CHL1  H24A 8093   3.683   5.045   8.578 -1.0518  1.9570  1.5647
   76CHL1  H24B 8094   3.861   5.054   8.614  1.2644  0.9788 -1.3418
   76CHL1   C25 8095   3.752   5.233   8.648 -0.3331 -0.5847  0.0607
   76CHL1   H25 8096   3.844   5.295   8.645 -0.5531 -0.2776 -0.3868
   76CHL1   C26 8097   3.634   5.311   8.593 -0.0237 -0.3726  0.6034
   76CHL1  H26A 8098   3.607   5.394   8.662  0.2313  0.8726 -0.7304
   76CHL1  H26B 8099   3.648   5.362   8.495 -1.8424  0.5686  0.8048
   76CHL1  H26C 8100   3.545   5.248   8.576  1.5078 -2.0317 -2.1846
   76CHL1   C27 8101   3.730   5.192   8.797  0.0284 -0.0451  0.4278
   76CHL1  H27A 8102   3.696   5.278   8.858 -1.6145  0.5588 -1.2485
   76CHL1  H27B 8103   3.657   5.108   8.801  0.0688 -0.2448 -1.7809
   76CHL1  H27C 8104   3.826   5.159   8.842  0.2490  0.9952  0.7564
   77CHL1    C3 8105   5.081   4.288   6.819 -0.1068 -0.3085 -0.1279
   77CHL1    H3 8106   5.108   4.396   6.829  3.9091 -0.7408 -3.2918
   77CHL1    O3 8107   5.067   4.258   6.679  0.1322 -0.1378 -0.6482
   77CHL1   H3' 8108   5.006   4.322   6.642 -0.8087 -1.0921 -0.7835
   77CHL1    C4 8109   5.201   4.215   6.885 -0.4264  0.3035  0.7832
   77CHL1   H4A 8110   5.203   4.105   6.871  0.1184  0.5431 -1.3295
   77CHL1   H4B 8111   5.296   4.246   6.836 -0.9018 -0.9747 -1.0659
   77CHL1    C5 8112   5.194   4.244   7.037 -0.0975  0.5362  0.4025
   77CHL1    C6 8113   5.302   4.298   7.097  0.3918  0.3150  0.1184
   77CHL1    H6 8114   5.390   4.316   7.033  0.5724 -2.0039 -0.3720
   77CHL1    C7 8115   5.304   4.323   7.246  0.1072  0.5318 -0.2227
   77CHL1   H7A 8116   5.403   4.299   7.291 -0.2285  0.5290  0.5227
   77CHL1   H7B 8117   5.279   4.429   7.267 -0.4953  0.3963 -0.2428
   77CHL1    C8 8118   5.197   4.246   7.323  0.6370  0.3954  0.5117
   77CHL1    H8 8119   5.222   4.138   7.319  1.6255  0.5862  1.1735
   77CHL1   C14 8120   5.193   4.294   7.470  0.0869 -0.6617 -0.3335
   77CHL1   H14 8121   5.164   4.401   7.463  1.4112 -0.3797 -2.5460
   77CHL1   C15 8122   5.330   4.296   7.549  0.1964  0.5843  0.2635
   77CHL1  H15A 8123   5.380   4.198   7.532  3.3045  1.9095  1.0762
   77CHL1  H15B 8124   5.402   4.375   7.522 -0.7098  0.8031 -1.6544
   77CHL1   C16 8125   5.283   4.305   7.699 -0.8822  0.2831  0.1031
   77CHL1  H16A 8126   5.321   4.215   7.751 -0.0114  1.8302  2.2836
   77CHL1  H16B 8127   5.314   4.399   7.749  0.2448  0.3713 -0.7114
   77CHL1   C17 8128   5.124   4.297   7.697  0.0311  0.1571  0.4653
   77CHL1   H17 8129   5.093   4.404   7.695  0.2181  0.3180  2.7729
   77CHL1   C13 8130   5.088   4.229   7.562 -0.1187 -0.0693  0.6292
   77CHL1   C18 8131   5.113   4.072   7.575  0.1638 -1.0382 -1.1010
   77CHL1  H18A 8132   5.201   4.056   7.641 -2.3941 -1.1792  2.5727
   77CHL1  H18B 8133   5.031   4.030   7.637  0.3599 -0.4164 -0.4022
   77CHL1  H18C 8134   5.123   4.016   7.480  1.5436 -1.9149 -0.4872
   77CHL1   C12 8135   4.948   4.262   7.503 -1.1555  0.6644  0.1625
   77CHL1  H12A 8136   4.865   4.216   7.561 -1.2201  1.2666  0.5628
   77CHL1  H12B 8137   4.933   4.372   7.502  2.1871  1.2508 -2.6955
   77CHL1   C11 8138   4.943   4.219   7.352  0.2690 -1.0184 -0.7076
   77CHL1  H11A 8139   4.946   4.108   7.361  0.5506 -1.0782 -1.4604
   77CHL1  H11B 8140   4.850   4.252   7.301  1.0822 -0.9091 -2.1782
   77CHL1    C9 8141   5.063   4.267   7.257  0.8292  0.4840 -0.7047
   77CHL1    H9 8142   5.039   4.375   7.249  1.4186  0.6910  0.1400
   77CHL1   C10 8143   5.063   4.211   7.113  0.1997 -0.0896 -0.4140
   77CHL1   C19 8144   5.038   4.061   7.124  0.2584  0.2137  0.4380
   77CHL1  H19A 8145   4.937   4.039   7.164  1.1537 -1.3779  1.9752
   77CHL1  H19B 8146   5.050   4.000   7.032 -0.5625 -0.1922  0.5943
   77CHL1  H19C 8147   5.104   4.010   7.198  0.1602 -0.1607  0.2728
   77CHL1    C1 8148   4.945   4.273   7.035  0.3627  0.1246 -0.1627
   77CHL1   H1A 8149   4.845   4.250   7.077  0.0480  0.8883 -0.4943
   77CHL1   H1B 8150   4.971   4.380   7.051 -0.7653  0.2733  0.7485
   77CHL1    C2 8151   4.945   4.239   6.885  0.3363 -0.5106 -0.2097
   77CHL1   H2A 8152   4.874   4.313   6.843 -1.6821 -0.6720  2.5876
   77CHL1   H2B 8153   4.905   4.137   6.866 -2.7735  0.8362 -1.6844
   77CHL1   C20 8154   5.075   4.234   7.829 -0.8203  0.4045 -0.2317
   77CHL1   H20 8155   5.119   4.133   7.845 -1.3141  0.0027 -1.3321
   77CHL1   C21 8156   4.925   4.207   7.828  0.3210 -0.0023 -0.0987
   77CHL1  H21A 8157   4.891   4.194   7.933  3.2815  1.8020  1.2331
   77CHL1  H21B 8158   4.896   4.114   7.774  3.3210  0.0481 -2.0882
   77CHL1  H21C 8159   4.870   4.294   7.787  2.8762  1.3436 -0.9487
   77CHL1   C22 8160   5.118   4.324   7.949 -0.4915 -1.1611 -0.0148
   77CHL1  H22A 8161   5.228   4.334   7.962 -0.7219  0.8708  0.7111
   77CHL1  H22B 8162   5.069   4.418   7.918 -0.1774 -0.8612  0.3891
   77CHL1   C23 8163   5.069   4.291   8.096 -0.1108 -0.1457 -0.7629
   77CHL1  H23A 8164   4.959   4.276   8.102 -0.2518  0.3355 -2.0449
   77CHL1  H23B 8165   5.119   4.198   8.130 -2.1218 -1.6364 -1.6916
   77CHL1   C24 8166   5.091   4.403   8.194  0.9127  0.5574 -0.0667
   77CHL1  H24A 8167   5.201   4.411   8.209  1.0267 -2.0202  1.0142
   77CHL1  H24B 8168   5.046   4.493   8.147 -0.4356 -0.3841 -0.6094
   77CHL1   C25 8169   5.021   4.397   8.341 -0.0046  0.4015  1.0521
   77CHL1   H25 8170   4.911   4.394   8.329  0.2672  0.2974 -2.0770
   77CHL1   C26 8171   5.065   4.268   8.411  0.0694 -0.9525 -0.2943
   77CHL1  H26A 8172   5.054   4.181   8.342  4.6922 -0.9176 -1.3617
   77CHL1  H26B 8173   5.175   4.266   8.428  0.2267  1.2034 -0.8557
   77CHL1  H26C 8174   5.009   4.259   8.507  0.1164 -1.0765 -0.2777
   77CHL1   C27 8175   5.065   4.511   8.421 -0.2555  0.9243 -0.1143
   77CHL1  H27A 8176   5.026   4.607   8.381  1.6161  0.7588 -2.5910
   77CHL1  H27B 8177   5.031   4.507   8.527  0.6784  0.6978  0.1916
   77CHL1  H27C 8178   5.176   4.501   8.417 -0.4833 -1.9229 -3.0516
   78CHL1    C3 8179   6.236   6.042   6.532 -0.4588 -0.3303  0.0755
   78CHL1    H3 8180   6.128   6.068   6.544 -1.6624 -3.5176 -2.2622
   78CHL1    O3 8181   6.257   6.037   6.395 -0.2616 -1.0398 -0.4513
   78CHL1   H3' 8182   6.328   5.974   6.379  1.4139  0.4854  0.6073
   78CHL1    C4 8183   6.326   6.147   6.596 -0.1700  0.4788 -0.9265
   78CHL1   H4A 8184   6.431   6.126   6.564 -0.8705 -1.6397 -1.9863
   78CHL1   H4B 8185   6.299   6.244   6.548  2.0286  1.1507 -0.9550
   78CHL1    C5 8186   6.312   6.152   6.748  0.4525  0.2266  0.4396
   78CHL1    C6 8187   6.267   6.263   6.807  0.4773  0.4664  0.0959
   78CHL1    H6 8188   6.236   6.353   6.752 -0.1954  0.5595  0.6134
   78CHL1    C7 8189   6.254   6.272   6.957 -0.2771 -0.7235 -0.4994
   78CHL1   H7A 8190   6.280   6.373   6.994  0.9434 -1.2573  0.1504
   78CHL1   H7B 8191   6.151   6.243   6.989 -0.6417  1.4093  0.4518
   78CHL1    C8 8192   6.322   6.159   7.045 -0.2211 -0.0993 -0.4756
   78CHL1    H8 8193   6.430   6.182   7.043 -0.1509 -0.1237  1.3481
   78CHL1   C14 8194   6.285   6.153   7.198 -0.0341  0.3865 -0.1920
   78CHL1   H14 8195   6.175   6.140   7.209  0.2013  0.4642  3.5500
   78CHL1   C15 8196   6.301   6.283   7.285 -0.7575 -0.3153 -0.0804
   78CHL1  H15A 8197   6.387   6.340   7.246 -0.3113 -0.8327  0.1344
   78CHL1  H15B 8198   6.207   6.341   7.272  0.3530  1.8833  1.1888
   78CHL1   C16 8199   6.313   6.228   7.421  0.0641  0.1576 -0.0872
   78CHL1  H16A 8200   6.416   6.248   7.460 -0.0626 -1.1728  0.9898
   78CHL1  H16B 8201   6.241   6.280   7.488 -0.0676  0.3188 -0.3568
   78CHL1   C17 8202   6.304   6.073   7.418 -0.3913 -0.2983 -0.0405
   78CHL1   H17 8203   6.195   6.051   7.411 -0.5515  0.4878 -0.1061
   78CHL1   C13 8204   6.353   6.039   7.279  0.3213  0.2469 -0.4863
   78CHL1   C18 8205   6.512   6.047   7.277 -0.1299 -0.1858 -0.6812
   78CHL1  H18A 8206   6.556   5.958   7.327 -0.1734 -0.1495 -0.5768
   78CHL1  H18B 8207   6.554   6.033   7.176  3.5958  1.2788  0.4827
   78CHL1  H18C 8208   6.553   6.138   7.325 -2.1750 -0.0295  0.9403
   78CHL1   C12 8209   6.291   5.904   7.215  0.1821 -1.3794 -0.3099
   78CHL1  H12A 8210   6.333   5.816   7.267 -1.1436 -0.6344  2.1869
   78CHL1  H12B 8211   6.182   5.895   7.234  0.4629 -3.3294  0.6141
   78CHL1   C11 8212   6.325   5.901   7.063 -0.4860 -0.1630  0.3129
   78CHL1  H11A 8213   6.435   5.890   7.060 -0.3594  1.0870 -0.3653
   78CHL1  H11B 8214   6.288   5.805   7.022  1.2606 -0.7277 -0.0242
   78CHL1    C9 8215   6.292   6.025   6.979 -0.0272 -0.3293  0.6057
   78CHL1    H9 8216   6.182   6.012   6.973 -0.0116  0.2790 -2.5097
   78CHL1   C10 8217   6.332   6.024   6.824 -0.4556 -0.3960  0.2986
   78CHL1   C19 8218   6.481   5.990   6.807  0.0667  0.2237  0.1686
   78CHL1  H19A 8219   6.496   5.882   6.832  2.3846  0.5785  0.5906
   78CHL1  H19B 8220   6.523   6.009   6.706  0.2368 -0.3011  0.1365
   78CHL1  H19C 8221   6.550   6.025   6.887  0.9472 -0.5793 -0.2064
   78CHL1    C1 8222   6.246   5.914   6.750 -0.7188  0.0119  0.1666
   78CHL1   H1A 8223   6.264   5.814   6.795 -0.5330 -0.6953 -1.4316
   78CHL1   H1B 8224   6.140   5.947   6.764 -1.2497 -1.3764 -0.4344
   78CHL1    C2 8225   6.264   5.909   6.603 -0.3122  0.1903 -0.5037
   78CHL1   H2A 8226   6.188   5.843   6.557  0.5567 -0.0428 -1.6534
   78CHL1   H2B 8227   6.360   5.865   6.569 -0.7597  0.6765 -2.5549
   78CHL1   C20 8228   6.345   5.996   7.547 -0.2864  0.0508 -0.0440
   78CHL1   H20 8229   6.440   5.938   7.543 -0.4390 -0.1403 -1.3971
   78CHL1   C21 8230   6.231   5.885   7.584 -0.7587 -0.4190 -0.4075
   78CHL1  H21A 8231   6.246   5.804   7.509  3.3557 -1.8359  1.6380
   78CHL1  H21B 8232   6.128   5.926   7.583 -0.0592  1.4925  0.7652
   78CHL1  H21C 8233   6.241   5.830   7.680  0.2339 -2.7879 -1.7778
   78CHL1   C22 8234   6.351   6.094   7.666  0.2306 -0.8824  0.0467
   78CHL1  H22A 8235   6.411   6.187   7.653  1.2389 -1.3151  1.2740
   78CHL1  H22B 8236   6.249   6.136   7.677  0.4385  0.1439 -1.6491
   78CHL1   C23 8237   6.382   6.035   7.805 -0.2671 -0.1659 -0.5137
   78CHL1  H23A 8238   6.307   5.966   7.849  0.8019 -1.1402 -0.1502
   78CHL1  H23B 8239   6.477   5.977   7.799  1.6737  2.8710 -0.8726
   78CHL1   C24 8240   6.406   6.141   7.913  0.0981 -0.2597  0.0187
   78CHL1  H24A 8241   6.494   6.195   7.873  0.2012 -0.9171 -0.6675
   78CHL1  H24B 8242   6.332   6.224   7.919  0.6835  0.2784 -0.1009
   78CHL1   C25 8243   6.419   6.087   8.056 -0.0166  0.3487 -0.4551
   78CHL1   H25 8244   6.327   6.026   8.070  1.6630 -2.2199  0.0487
   78CHL1   C26 8245   6.535   5.993   8.063  0.1112  0.4547  0.3630
   78CHL1  H26A 8246   6.517   5.889   8.030 -0.0753  0.1430  1.3921
   78CHL1  H26B 8247   6.620   6.034   8.004  0.6727  1.3053  1.7127
   78CHL1  H26C 8248   6.568   5.987   8.169 -2.4467  3.5107  1.4846
   78CHL1   C27 8249   6.428   6.193   8.165 -0.0373 -0.8694  0.1003
   78CHL1  H27A 8250   6.383   6.155   8.259  1.1569  0.9045  1.4608
   78CHL1  H27B 8251   6.535   6.222   8.180 -1.0739  2.7037  1.6962
   78CHL1  H27C 8252   6.382   6.287   8.127  1.7272  0.0240  0.0679
   79CHL1    C3 8253   4.535   4.695   7.117 -0.1798  0.6073 -0.6909
   79CHL1    H3 8254   4.432   4.733   7.133 -1.0687 -1.3030 -1.4978
   79CHL1    O3 8255   4.566   4.703   6.980  0.0133  0.4376  0.1779
   79CHL1   H3' 8256   4.583   4.798   6.978  0.0969  0.4120 -0.6656
   79CHL1    C4 8257   4.647   4.777   7.198  0.8206 -0.1975 -0.6354
   79CHL1   H4A 8258   4.748   4.741   7.170  1.3531  2.1166 -1.9176
   79CHL1   H4B 8259   4.642   4.881   7.160  0.2875  0.3188  0.7768
   79CHL1    C5 8260   4.629   4.770   7.348  0.3627  0.2025 -0.2633
   79CHL1    C6 8261   4.626   4.886   7.418 -0.0485 -0.6906 -0.1373
   79CHL1    H6 8262   4.623   4.986   7.371 -3.1023 -0.0049  1.2869
   79CHL1    C7 8263   4.630   4.889   7.565  0.9600 -0.5511  0.2266
   79CHL1   H7A 8264   4.696   4.971   7.598  1.5514 -0.8981 -0.0697
   79CHL1   H7B 8265   4.532   4.930   7.596  1.5738  1.6514 -0.6122
   79CHL1    C8 8266   4.647   4.743   7.629  0.1323  0.0968 -0.1707
   79CHL1    H8 8267   4.756   4.724   7.622 -0.0641 -0.5000 -2.2598
   79CHL1   C14 8268   4.605   4.741   7.773 -0.0630  0.8250 -0.2328
   79CHL1   H14 8269   4.494   4.741   7.764  0.0336  1.5490 -1.8248
   79CHL1   C15 8270   4.635   4.864   7.869 -0.7967  0.7312 -0.2089
   79CHL1  H15A 8271   4.745   4.878   7.860 -0.5111  0.4811  2.1032
   79CHL1  H15B 8272   4.569   4.948   7.841 -2.7630 -0.1451  1.5314
   79CHL1   C16 8273   4.590   4.804   8.006 -0.8121 -0.4223 -0.0196
   79CHL1  H16A 8274   4.673   4.821   8.078 -0.3234 -0.0887 -0.6512
   79CHL1  H16B 8275   4.498   4.850   8.050  0.5869  1.2376  1.3065
   79CHL1   C17 8276   4.579   4.648   7.994 -0.3136  0.8460 -0.0610
   79CHL1   H17 8277   4.470   4.628   7.998 -0.2553  0.7142  1.8171
   79CHL1   C13 8278   4.634   4.609   7.847  0.5472 -0.1389 -0.0095
   79CHL1   C18 8279   4.784   4.581   7.863 -0.8215  0.9357  1.1104
   79CHL1  H18A 8280   4.828   4.579   7.761  0.9161  2.2683  1.7773
   79CHL1  H18B 8281   4.836   4.658   7.924  0.8525  2.6246 -2.2059
   79CHL1  H18C 8282   4.810   4.480   7.902  0.2716  0.6984 -0.1661
   79CHL1   C12 8283   4.556   4.498   7.773 -0.4786  0.1817  0.0320
   79CHL1  H12A 8284   4.569   4.395   7.812  1.0965  0.5290  0.4759
   79CHL1  H12B 8285   4.448   4.521   7.786 -0.8937 -2.4292  2.1477
   79CHL1   C11 8286   4.575   4.503   7.620 -0.3417  0.3499  0.1406
   79CHL1  H11A 8287   4.675   4.455   7.609 -1.5971 -1.9372 -2.4961
   79CHL1  H11B 8288   4.504   4.426   7.584  0.1177  0.5310 -1.1931
   79CHL1    C9 8289   4.577   4.637   7.547  0.6865  0.4234 -0.2157
   79CHL1    H9 8290   4.470   4.667   7.552  0.0283 -1.8656  3.1110
   79CHL1   C10 8291   4.617   4.620   7.400  0.0396 -0.1430  0.0843
   79CHL1   C19 8292   4.751   4.558   7.393  0.0188  0.7472 -0.1133
   79CHL1  H19A 8293   4.805   4.578   7.298  1.4693 -1.6179  0.1486
   79CHL1  H19B 8294   4.824   4.593   7.470 -0.0347 -1.0256  0.8003
   79CHL1  H19C 8295   4.741   4.449   7.413  0.4944  0.9195  1.1970
   79CHL1    C1 8296   4.509   4.541   7.317  0.3639  0.1549 -0.1123
   79CHL1   H1A 8297   4.501   4.438   7.358 -0.6859 -0.4790 -1.8018
   79CHL1   H1B 8298   4.412   4.587   7.345  0.8676 -0.3924  2.8455
   79CHL1    C2 8299   4.527   4.549   7.171  0.4900 -0.2376  0.1550
   79CHL1   H2A 8300   4.438   4.500   7.127 -0.1580  2.2460 -1.4869
   79CHL1   H2B 8301   4.622   4.495   7.148  0.7739  1.0277 -1.8879
   79CHL1   C20 8302   4.638   4.578   8.117 -0.8541  0.3136  0.6224
   79CHL1   H20 8303   4.748   4.587   8.125 -0.8139  1.5278 -0.8324
   79CHL1   C21 8304   4.599   4.429   8.111  0.1620 -0.3125  0.0010
   79CHL1  H21A 8305   4.637   4.386   8.206  2.5313  1.9601  0.1970
   79CHL1  H21B 8306   4.630   4.372   8.021 -0.8945 -0.8724 -0.0300
   79CHL1  H21C 8307   4.488   4.433   8.110  0.1570 -0.3644  0.2722
   79CHL1   C22 8308   4.585   4.636   8.256  0.5774  0.5248  0.4673
   79CHL1  H22A 8309   4.563   4.745   8.254  1.0033  0.7218  3.1404
   79CHL1  H22B 8310   4.491   4.581   8.279  1.0622  0.4897  2.5665
   79CHL1   C23 8311   4.663   4.612   8.392 -0.4929 -0.2532  0.0987
   79CHL1  H23A 8312   4.682   4.505   8.416  0.4888 -0.5660 -1.8683
   79CHL1  H23B 8313   4.761   4.665   8.389 -0.5643 -0.0021  1.5756
   79CHL1   C24 8314   4.599   4.685   8.507 -0.3151  0.0529 -0.4146
   79CHL1  H24A 8315   4.578   4.792   8.484  0.2337  0.4479  0.8272
   79CHL1  H24B 8316   4.499   4.643   8.533  0.0184  0.4534  1.6984
   79CHL1   C25 8317   4.685   4.698   8.639 -0.7265 -0.1847 -0.1609
   79CHL1   H25 8318   4.766   4.767   8.609 -0.4051 -0.4672  0.0589
   79CHL1   C26 8319   4.625   4.750   8.767 -0.2179  0.1676 -0.6644
   79CHL1  H26A 8320   4.564   4.840   8.746 -1.0524 -0.2250 -0.0308
   79CHL1  H26B 8321   4.551   4.676   8.807 -0.1899  1.0936  1.1615
   79CHL1  H26C 8322   4.701   4.753   8.847  0.3948 -2.8934 -0.9864
   79CHL1   C27 8323   4.745   4.558   8.676 -0.2982  0.1101 -0.5362
   79CHL1  H27A 8324   4.809   4.580   8.764 -0.3204 -1.8863  0.0234
   79CHL1  H27B 8325   4.674   4.483   8.717 -1.6739  1.1692 -0.8876
   79CHL1  H27C 8326   4.809   4.506   8.602 -0.3011 -1.6025  0.6163
   80CHL1    C3 8327   2.855   5.053   7.017  0.7967  0.0222 -0.5330
   80CHL1    H3 8328   2.932   5.132   7.024 -0.6255  1.6244 -1.9785
   80CHL1    O3 8329   2.767   5.075   6.912 -0.2763 -0.6766  0.0924
   80CHL1   H3' 8330   2.679   5.043   6.934 -1.4883  0.8190 -2.2417
   80CHL1    C4 8331   2.917   4.908   7.017 -0.2033 -0.0242 -0.5513
   80CHL1   H4A 8332   2.841   4.833   6.985 -0.0228  0.7633 -3.0710
   80CHL1   H4B 8333   2.997   4.920   6.941  0.0018 -0.3853 -0.3921
   80CHL1    C5 8334   2.979   4.847   7.139  0.5809  0.2795 -0.6645
   80CHL1    C6 8335   3.106   4.800   7.134  0.6500 -0.6696 -0.6690
   80CHL1    H6 8336   3.156   4.796   7.036 -1.3428 -2.1909 -1.7267
   80CHL1    C7 8337   3.182   4.757   7.256 -0.3034 -0.7202  0.5470
   80CHL1   H7A 8338   3.244   4.669   7.228  0.7974  0.7807 -2.0509
   80CHL1   H7B 8339   3.256   4.837   7.274  0.0537 -1.1991  1.2788
   80CHL1    C8 8340   3.097   4.738   7.376 -0.9221  0.1620  0.2547
   80CHL1    H8 8341   3.035   4.649   7.353  3.2749 -3.9279  3.1833
   80CHL1   C14 8342   3.186   4.710   7.494 -0.1881 -0.1937 -1.1087
   80CHL1   H14 8343   3.245   4.804   7.504  1.6540 -1.3090 -1.0420
   80CHL1   C15 8344   3.294   4.601   7.488 -0.9526  0.6516 -0.3188
   80CHL1  H15A 8345   3.257   4.507   7.441  0.5545 -0.8667  1.3384
   80CHL1  H15B 8346   3.386   4.638   7.437 -0.1983  1.0789  1.2754
   80CHL1   C16 8347   3.319   4.560   7.635  0.0121  0.5915 -0.6783
   80CHL1  H16A 8348   3.277   4.457   7.643  0.6597  0.4066  0.7896
   80CHL1  H16B 8349   3.423   4.557   7.676 -0.5708  0.0670  0.8532
   80CHL1   C17 8350   3.229   4.654   7.719  0.5760 -0.3139 -0.6435
   80CHL1   H17 8351   3.282   4.749   7.740 -0.8189  0.3047  0.2667
   80CHL1   C13 8352   3.110   4.700   7.627  0.3234  1.3389  0.1310
   80CHL1   C18 8353   3.012   4.575   7.626 -1.2066  0.2518  0.3575
   80CHL1  H18A 8354   2.929   4.589   7.698 -0.1030  0.5053  1.6169
   80CHL1  H18B 8355   2.972   4.557   7.523  1.3943 -1.6571 -0.4399
   80CHL1  H18C 8356   3.070   4.485   7.655  1.4067  1.7360  0.0037
   80CHL1   C12 8357   3.034   4.824   7.654 -0.4536  0.1440  0.4556
   80CHL1  H12A 8358   2.971   4.803   7.743 -1.0509 -0.0540 -0.0092
   80CHL1  H12B 8359   3.104   4.908   7.672  1.5576 -0.5805 -2.9256
   80CHL1   C11 8360   2.945   4.861   7.530  0.1611 -0.3306 -0.6878
   80CHL1  H11A 8361   2.857   4.794   7.515  0.1752 -0.0616 -2.1314
   80CHL1  H11B 8362   2.893   4.957   7.549 -1.7306 -1.9884  3.9596
   80CHL1    C9 8363   3.006   4.865   7.390 -0.9311  0.8911 -0.7846
   80CHL1    H9 8364   3.074   4.953   7.393  0.4947 -0.1894  1.1337
   80CHL1   C10 8365   2.902   4.871   7.268  0.3800 -0.5951 -0.1672
   80CHL1   C19 8366   2.796   4.766   7.267  0.9395  0.2598 -0.0055
   80CHL1  H19A 8367   2.821   4.659   7.252 -0.8332 -0.1152 -0.5522
   80CHL1  H19B 8368   2.731   4.781   7.356  2.2156 -0.6167  1.1248
   80CHL1  H19C 8369   2.731   4.787   7.180 -0.9282  0.5110  1.3872
   80CHL1    C1 8370   2.845   5.017   7.275 -0.0129  0.2798 -0.7503
   80CHL1   H1A 8371   2.782   5.027   7.367  1.7441  2.6069  0.3068
   80CHL1   H1B 8372   2.925   5.093   7.283 -0.7037  1.1482 -1.8961
   80CHL1    C2 8373   2.770   5.067   7.147 -0.2489  1.1099 -0.2502
   80CHL1   H2A 8374   2.744   5.174   7.165  3.0118  1.7675  1.5686
   80CHL1   H2B 8375   2.679   5.005   7.146  0.5331 -0.1321  1.4662
   80CHL1   C20 8376   3.196   4.608   7.864 -0.3009  0.7902  0.7263
   80CHL1   H20 8377   3.097   4.559   7.866 -0.6600  1.3428 -1.3112
   80CHL1   C21 8378   3.189   4.729   7.957 -0.6692  0.1301  0.4706
   80CHL1  H21A 8379   3.273   4.801   7.945 -0.9775  0.5528  0.7948
   80CHL1  H21B 8380   3.187   4.695   8.062 -0.2658 -1.9026 -0.1387
   80CHL1  H21C 8381   3.095   4.787   7.945 -1.9570 -2.1835 -1.7722
   80CHL1   C22 8382   3.299   4.500   7.910  0.4655  0.4090  0.1460
   80CHL1  H22A 8383   3.281   4.402   7.861 -0.2031 -1.0990  3.2024
   80CHL1  H22B 8384   3.397   4.538   7.874  0.5200  0.1261 -0.0028
   80CHL1   C23 8385   3.287   4.479   8.062 -0.0377 -0.1622  0.2931
   80CHL1  H23A 8386   3.334   4.562   8.119  1.4292 -0.1994 -0.7891
   80CHL1  H23B 8387   3.186   4.456   8.100  0.9772 -2.7568  1.7061
   80CHL1   C24 8388   3.381   4.358   8.092 -0.5367  0.1509  0.6556
   80CHL1  H24A 8389   3.351   4.270   8.032 -0.8462  0.3792  0.4731
   80CHL1  H24B 8390   3.478   4.399   8.055 -1.4147  0.3697 -1.5249
   80CHL1   C25 8391   3.403   4.325   8.239  0.1565  0.3270 -0.4339
   80CHL1   H25 8392   3.448   4.418   8.280  1.7465 -1.5031  2.3556
   80CHL1   C26 8393   3.271   4.295   8.314 -0.5648  0.6520 -1.0319
   80CHL1  H26A 8394   3.214   4.206   8.280 -0.4109 -0.8317  2.2224
   80CHL1  H26B 8395   3.295   4.274   8.420 -0.6688  1.7333 -0.7829
   80CHL1  H26C 8396   3.198   4.379   8.316 -0.9761  0.3245  1.2151
   80CHL1   C27 8397   3.507   4.213   8.251  0.3303  0.0576  0.1829
   80CHL1  H27A 8398   3.534   4.176   8.353  2.0981 -0.4925 -0.4564
   80CHL1  H27B 8399   3.468   4.135   8.182 -3.5729  2.8135 -1.0951
   80CHL1  H27C 8400   3.596   4.245   8.193 -1.9219  0.2644 -3.4430
   81CHL1    C3 8401   6.678   3.239   6.866  0.2075  0.1397 -0.3402
   81CHL1    H3 8402   6.584   3.297   6.860 -0.2702 -0.4751  0.9608
   81CHL1    O3 8403   6.709   3.190   6.734 -0.1467  0.3109 -0.0447
   81CHL1   H3' 8404   6.650   3.118   6.713  1.3754 -1.1895  0.5478
   81CHL1    C4 8405   6.800   3.330   6.905  0.0491 -0.0581 -0.1024
   81CHL1   H4A 8406   6.893   3.274   6.882 -0.9214 -1.7045 -0.1362
   81CHL1   H4B 8407   6.807   3.417   6.835 -1.6271  0.0921 -0.1283
   81CHL1    C5 8408   6.787   3.381   7.052 -0.2746 -0.2209  0.3926
   81CHL1    C6 8409   6.793   3.512   7.085  0.1444 -0.3296 -0.1524
   81CHL1    H6 8410   6.796   3.591   7.008  0.3176  0.8360  1.0214
   81CHL1    C7 8411   6.793   3.556   7.224  0.3255  0.2517 -0.1229
   81CHL1   H7A 8412   6.850   3.650   7.240  0.5384  0.4492 -1.8338
   81CHL1   H7B 8413   6.687   3.581   7.248  0.7130  0.7969  1.0915
   81CHL1    C8 8414   6.832   3.453   7.329 -0.2843 -0.3728 -0.2401
   81CHL1    H8 8415   6.938   3.431   7.305  0.0330  2.3901 -1.6924
   81CHL1   C14 8416   6.808   3.511   7.466  0.4008 -0.1149  0.7294
   81CHL1   H14 8417   6.698   3.526   7.461  0.3527 -0.1804  1.4354
   81CHL1   C15 8418   6.858   3.649   7.511  0.0905  0.1070  0.2451
   81CHL1  H15A 8419   6.964   3.655   7.476  0.0362 -0.3890 -0.0234
   81CHL1  H15B 8420   6.805   3.735   7.465  1.5770  0.2115 -1.3866
   81CHL1   C16 8421   6.850   3.642   7.662  0.4322  0.5399 -0.0155
   81CHL1  H16A 8422   6.952   3.631   7.703  0.0118  0.4050  1.0271
   81CHL1  H16B 8423   6.791   3.724   7.709 -0.0992  1.2604 -1.8537
   81CHL1   C17 8424   6.781   3.505   7.698 -1.0413  0.1624  1.0130
   81CHL1   H17 8425   6.673   3.530   7.691 -0.8718  1.2353  1.9162
   81CHL1   C13 8426   6.823   3.409   7.582  0.1772 -0.4615  0.5948
   81CHL1   C18 8427   6.968   3.371   7.590  0.0514 -0.5476 -0.2669
   81CHL1  H18A 8428   7.035   3.458   7.573  0.7747 -1.4051 -1.9877
   81CHL1  H18B 8429   6.983   3.326   7.690 -0.4207 -1.2350 -0.4972
   81CHL1  H18C 8430   6.999   3.301   7.509 -0.7679 -0.5508 -0.5875
   81CHL1   C12 8431   6.735   3.285   7.554  0.1317 -0.3411 -0.4010
   81CHL1  H12A 8432   6.756   3.211   7.633  5.2561  1.8126  0.7214
   81CHL1  H12B 8433   6.625   3.299   7.562 -0.2645 -3.3809  0.4516
   81CHL1   C11 8434   6.753   3.219   7.418  0.7652 -0.4434  0.0443
   81CHL1  H11A 8435   6.852   3.169   7.417  0.7699 -0.4271 -0.2226
   81CHL1  H11B 8436   6.674   3.143   7.403  2.7451 -2.4603 -0.7642
   81CHL1    C9 8437   6.753   3.321   7.299 -0.8300  0.5413 -0.0048
   81CHL1    H9 8438   6.649   3.361   7.296 -1.9439 -2.1925 -1.1973
   81CHL1   C10 8439   6.786   3.268   7.158  0.8543 -0.0134 -0.0590
   81CHL1   C19 8440   6.919   3.185   7.166 -0.3896  0.2824 -0.5362
   81CHL1  H19A 8441   6.910   3.099   7.236  0.7997 -1.5638 -2.5233
   81CHL1  H19B 8442   6.955   3.148   7.068  2.4134 -0.4803  0.6816
   81CHL1  H19C 8443   6.998   3.251   7.206 -2.3219  2.9037 -0.7876
   81CHL1    C1 8444   6.668   3.177   7.105 -0.6064  0.8269 -0.5892
   81CHL1   H1A 8445   6.659   3.091   7.175 -2.2415 -0.2757 -2.0671
   81CHL1   H1B 8446   6.572   3.232   7.119  0.4309  2.3326  1.0324
   81CHL1    C2 8447   6.680   3.122   6.961  1.0770 -0.3254  0.0443
   81CHL1   H2A 8448   6.599   3.047   6.953 -0.0337  0.7861  0.4896
   81CHL1   H2B 8449   6.779   3.073   6.952  2.5115  2.3898 -0.1951
   81CHL1   C20 8450   6.809   3.463   7.849 -0.4223 -0.0194  0.1093
   81CHL1   H20 8451   6.895   3.393   7.849  0.5179  1.0936 -0.9463
   81CHL1   C21 8452   6.679   3.387   7.891  0.0539 -0.6109 -0.7728
   81CHL1  H21A 8453   6.681   3.378   8.001 -0.8832  0.7381 -0.6189
   81CHL1  H21B 8454   6.680   3.282   7.855  0.1787 -0.0802 -2.4044
   81CHL1  H21C 8455   6.587   3.443   7.863 -0.8829 -1.2702  0.8362
   81CHL1   C22 8456   6.835   3.581   7.952 -0.1646 -0.3083 -0.0933
   81CHL1  H22A 8457   6.916   3.647   7.915 -0.2456 -0.7511 -1.0957
   81CHL1  H22B 8458   6.741   3.638   7.972  0.2390 -0.2482  1.8179
   81CHL1   C23 8459   6.883   3.531   8.084 -0.8564  0.0145  0.4857
   81CHL1  H23A 8460   6.797   3.483   8.136 -1.2556  0.9142  0.6824
   81CHL1  H23B 8461   6.948   3.447   8.053 -0.3372 -0.7315  3.3043
   81CHL1   C24 8462   6.967   3.634   8.164 -0.1157 -0.0212 -0.0380
   81CHL1  H24A 8463   7.041   3.675   8.093 -0.8483 -0.8902 -1.3491
   81CHL1  H24B 8464   6.901   3.720   8.188 -2.2174 -1.6747  0.5049
   81CHL1   C25 8465   7.032   3.582   8.291 -0.7855  0.5529 -0.1369
   81CHL1   H25 8466   7.087   3.489   8.266  1.9270  2.3259 -1.1725
   81CHL1   C26 8467   7.141   3.674   8.325 -0.0302 -0.2563  0.1115
   81CHL1  H26A 8468   7.240   3.669   8.274  1.4503  1.7667  2.5390
   81CHL1  H26B 8469   7.116   3.782   8.318  1.5557  0.2010  0.9679
   81CHL1  H26C 8470   7.163   3.684   8.433 -1.7446  0.4040  0.4264
   81CHL1   C27 8471   6.932   3.556   8.408  0.4299  0.2079  0.8506
   81CHL1  H27A 8472   6.970   3.484   8.484 -1.5430  0.0505  1.7482
   81CHL1  H27B 8473   6.905   3.648   8.465 -2.9654  0.2457 -0.6034
   81CHL1  H27C 8474   6.835   3.530   8.361  1.2158  0.7034 -1.1450
   82CHL1    C3 8475   2.933   3.370   6.884 -0.2569 -0.5968 -0.5930
   82CHL1    H3 8476   2.860   3.435   6.937  0.9194  2.0857 -2.0693
   82CHL1    O3 8477   2.987   3.428   6.769 -0.1203  0.3072  0.5134
   82CHL1   H3' 8478   3.053   3.364   6.744  0.7957  0.7933  1.6074
   82CHL1    C4 8479   3.047   3.354   6.980  0.3323  0.3360  0.4658
   82CHL1   H4A 8480   3.130   3.298   6.932  1.0801 -0.1766  2.2682
   82CHL1   H4B 8481   3.077   3.460   6.994 -1.1908  0.6768  1.3491
   82CHL1    C5 8482   3.009   3.274   7.104 -0.4805 -0.4557  0.2966
   82CHL1    C6 8483   3.041   3.313   7.226  0.2272 -0.1965  0.0199
   82CHL1    H6 8484   3.097   3.408   7.226  0.2869 -0.2323  0.3103
   82CHL1    C7 8485   3.023   3.231   7.354  0.0841  0.0589 -0.4651
   82CHL1   H7A 8486   3.119   3.218   7.409 -0.4935  2.4097  1.2780
   82CHL1   H7B 8487   2.957   3.293   7.419  2.4736  1.5134  0.7331
   82CHL1    C8 8488   2.958   3.086   7.340 -0.2158 -0.2145 -0.5515
   82CHL1    H8 8489   3.044   3.017   7.325 -0.2640 -0.8032  1.5843
   82CHL1   C14 8490   2.884   3.039   7.464 -0.0809 -0.9088  0.5476
   82CHL1   H14 8491   2.802   3.113   7.473  0.0629 -0.8576  1.5506
   82CHL1   C15 8492   2.949   3.050   7.605 -0.1603 -0.1031  0.0663
   82CHL1  H15A 8493   3.048   3.001   7.599 -0.2515 -0.3632  0.6275
   82CHL1  H15B 8494   2.947   3.154   7.643 -2.1984  0.2489 -0.8294
   82CHL1   C16 8495   2.866   2.956   7.693  0.2916  0.0838 -0.6618
   82CHL1  H16A 8496   2.931   2.876   7.733  1.7188  0.4001 -2.2321
   82CHL1  H16B 8497   2.813   3.006   7.777 -1.7717 -1.4602 -0.9486
   82CHL1   C17 8498   2.756   2.899   7.602 -0.0443 -0.3565 -0.1177
   82CHL1   H17 8499   2.678   2.978   7.593 -0.5158 -0.9511 -1.5153
   82CHL1   C13 8500   2.815   2.906   7.458 -1.0327 -0.0380 -0.2046
   82CHL1   C18 8501   2.920   2.794   7.456  0.1736 -0.0359  0.2944
   82CHL1  H18A 8502   2.998   2.804   7.535 -0.3117 -0.6057  0.8585
   82CHL1  H18B 8503   2.876   2.693   7.468  2.2514 -1.2979 -1.9389
   82CHL1  H18C 8504   2.971   2.798   7.357  2.2732 -2.3476  1.1866
   82CHL1   C12 8505   2.722   2.903   7.331  0.3626  0.7500 -0.0736
   82CHL1  H12A 8506   2.687   2.799   7.314 -0.4113  0.7446  1.3633
   82CHL1  H12B 8507   2.632   2.966   7.350 -0.1624  1.1704 -3.2861
   82CHL1   C11 8508   2.787   2.948   7.203 -0.2833  0.2217 -0.0821
   82CHL1  H11A 8509   2.858   2.868   7.172  1.0124  2.1352 -2.3560
   82CHL1  H11B 8510   2.710   2.930   7.125  0.0655 -2.4325  0.0738
   82CHL1    C9 8511   2.869   3.086   7.217 -0.2241  1.3383  0.6173
   82CHL1    H9 8512   2.789   3.160   7.243 -2.2336  0.0240 -1.4254
   82CHL1   C10 8513   2.937   3.140   7.085 -0.5485 -0.2791 -0.3542
   82CHL1   C19 8514   3.044   3.036   7.043  0.3040 -0.2009 -0.4808
   82CHL1  H19A 8515   2.995   2.956   6.984  0.7741 -0.8556  0.0042
   82CHL1  H19B 8516   3.132   3.069   6.985  0.3984  0.4173  0.0006
   82CHL1  H19C 8517   3.090   2.995   7.136  0.9536 -0.5211 -0.9393
   82CHL1    C1 8518   2.822   3.158   6.973  0.5123  0.5762 -0.6252
   82CHL1   H1A 8519   2.793   3.053   6.952  1.2589 -0.0476  1.2477
   82CHL1   H1B 8520   2.744   3.222   7.020  1.8686  2.2804 -0.5843
   82CHL1    C2 8521   2.867   3.238   6.846  0.9870  0.1301  0.2552
   82CHL1   H2A 8522   2.786   3.249   6.772  0.7913  0.3112  0.4945
   82CHL1   H2B 8523   2.941   3.169   6.799  2.0148 -1.3993  3.7799
   82CHL1   C20 8524   2.711   2.758   7.660 -0.2612  0.3123  0.0511
   82CHL1   H20 8525   2.798   2.688   7.662 -0.6738 -0.1999  1.4821
   82CHL1   C21 8526   2.604   2.694   7.571  0.2886  0.5856 -0.4221
   82CHL1  H21A 8527   2.518   2.764   7.562 -2.5390 -1.9621  3.5238
   82CHL1  H21B 8528   2.567   2.600   7.617 -1.5224  1.5586  0.1971
   82CHL1  H21C 8529   2.655   2.686   7.472 -0.8077 -0.4240 -0.9250
   82CHL1   C22 8530   2.661   2.765   7.808 -0.4634 -0.4404  0.1998
   82CHL1  H22A 8531   2.647   2.660   7.842  3.2696 -1.0461  0.2787
   82CHL1  H22B 8532   2.737   2.798   7.881 -0.7924  0.5103  0.1247
   82CHL1   C23 8533   2.549   2.867   7.834 -0.3155 -0.2498 -0.2828
   82CHL1  H23A 8534   2.583   2.971   7.818 -0.7097 -0.1747 -0.6402
   82CHL1  H23B 8535   2.469   2.836   7.764 -0.9836 -0.4053  0.5269
   82CHL1   C24 8536   2.487   2.860   7.980 -0.2732  0.7812 -0.2983
   82CHL1  H24A 8537   2.462   2.754   8.005  1.0104  0.7996  1.1729
   82CHL1  H24B 8538   2.567   2.883   8.052  1.2616 -0.9926 -1.3529
   82CHL1   C25 8539   2.378   2.952   8.003  0.4557  0.0295  0.6029
   82CHL1   H25 8540   2.405   3.056   7.974 -0.5104 -0.3900 -2.0072
   82CHL1   C26 8541   2.253   2.923   7.921  0.0384  0.1207 -0.2431
   82CHL1  H26A 8542   2.221   2.817   7.928 -1.3259  0.4227 -1.3754
   82CHL1  H26B 8543   2.159   2.973   7.956 -0.6872 -1.0332 -0.4853
   82CHL1  H26C 8544   2.274   2.938   7.813  2.4331 -2.1161 -0.1515
   82CHL1   C27 8545   2.342   2.959   8.154  0.2162 -1.3423 -0.5575
   82CHL1  H27A 8546   2.241   3.006   8.162  1.4390  1.2116  1.1243
   82CHL1  H27B 8547   2.343   2.863   8.210  0.9388 -0.6288  0.6978
   82CHL1  H27C 8548   2.422   3.020   8.201 -1.9877 -0.3314  2.2075
   83CHL1    C3 8549   6.005   4.142   6.891 -0.0754 -0.2012  0.6309
   83CHL1    H3 8550   5.927   4.091   6.952  1.4527 -2.1828  1.0447
   83CHL1    O3 8551   5.989   4.120   6.751  0.1659 -0.4103  0.4047
   83CHL1   H3' 8552   5.927   4.186   6.718  1.4328  0.2604 -0.7185
   83CHL1    C4 8553   6.013   4.298   6.926 -0.8109 -0.4561  0.4151
   83CHL1   H4A 8554   6.092   4.345   6.864  0.1080 -0.5557  1.4740
   83CHL1   H4B 8555   5.915   4.338   6.893 -1.2028  0.0446  2.1085
   83CHL1    C5 8556   6.035   4.324   7.079  0.3983 -0.3867 -0.3825
   83CHL1    C6 8557   5.945   4.387   7.156 -0.0785  1.0736  0.1248
   83CHL1    H6 8558   5.860   4.422   7.096  0.8107  1.1018 -1.1496
   83CHL1    C7 8559   5.942   4.410   7.302 -0.3796 -0.1644 -0.4317
   83CHL1   H7A 8560   5.947   4.518   7.325  1.6818 -0.2840 -0.1545
   83CHL1   H7B 8561   5.855   4.365   7.354  1.2702 -1.1275  1.6237
   83CHL1    C8 8562   6.079   4.360   7.357  0.2144  0.2115 -0.6222
   83CHL1    H8 8563   6.144   4.440   7.316 -1.5669  1.6535 -0.7574
   83CHL1   C14 8564   6.082   4.342   7.502 -0.2181  0.1691  0.2187
   83CHL1   H14 8565   6.012   4.259   7.526  1.8551 -1.4662  1.0237
   83CHL1   C15 8566   6.035   4.471   7.583  0.0999 -0.4929 -0.3512
   83CHL1  H15A 8567   6.084   4.561   7.540 -0.2607  0.2108  0.6923
   83CHL1  H15B 8568   5.925   4.485   7.580 -0.2448 -2.7530 -0.0077
   83CHL1   C16 8569   6.093   4.458   7.724 -0.3249  0.0332  0.1502
   83CHL1  H16A 8570   6.144   4.544   7.772  3.5038 -2.0069  0.1576
   83CHL1  H16B 8571   6.019   4.437   7.804 -0.3589 -0.0421  0.1000
   83CHL1   C17 8572   6.197   4.343   7.717  0.6635  0.1066  0.2652
   83CHL1   H17 8573   6.136   4.263   7.763  0.2713 -0.4822 -1.2315
   83CHL1   C13 8574   6.219   4.313   7.565  0.0645  0.2142  0.2188
   83CHL1   C18 8575   6.328   4.415   7.515  0.3715 -1.0181 -0.4459
   83CHL1  H18A 8576   6.312   4.522   7.542  1.9890 -0.7802 -0.3404
   83CHL1  H18B 8577   6.427   4.389   7.557  0.6668  0.1241 -0.3971
   83CHL1  H18C 8578   6.344   4.416   7.405 -0.0616  1.2535 -0.5416
   83CHL1   C12 8579   6.252   4.170   7.513  0.2494  0.1180  0.2434
   83CHL1  H12A 8580   6.345   4.119   7.547 -0.0449 -0.3675  0.3197
   83CHL1  H12B 8581   6.185   4.086   7.540  1.4170 -0.0434  3.0307
   83CHL1   C11 8582   6.252   4.165   7.364 -0.7692 -0.1901  0.4508
   83CHL1  H11A 8583   6.343   4.217   7.327 -1.1845  0.2320  0.0021
   83CHL1  H11B 8584   6.269   4.066   7.318 -0.3230 -0.1381  0.4941
   83CHL1    C9 8585   6.130   4.229   7.288  0.1035 -0.0703 -0.5856
   83CHL1    H9 8586   6.053   4.154   7.317  2.5093 -3.0777 -1.5622
   83CHL1   C10 8587   6.151   4.245   7.133 -0.6321 -0.2154 -0.5759
   83CHL1   C19 8588   6.279   4.319   7.089 -1.3785 -0.0318 -0.0147
   83CHL1  H19A 8589   6.368   4.264   7.127 -0.9151  1.9788  2.0550
   83CHL1  H19B 8590   6.273   4.321   6.978 -0.3305 -0.1065 -0.0891
   83CHL1  H19C 8591   6.288   4.421   7.131  2.9739  0.2845 -1.2216
   83CHL1    C1 8592   6.167   4.100   7.078  0.7549 -0.4734 -0.3754
   83CHL1   H1A 8593   6.262   4.050   7.106  1.0954  0.0748 -0.5489
   83CHL1   H1B 8594   6.090   4.039   7.131  1.7117 -1.5346 -0.1580
   83CHL1    C2 8595   6.142   4.081   6.925 -0.8014 -0.4574  0.0603
   83CHL1   H2A 8596   6.147   3.972   6.904  2.0128 -0.8130  1.9732
   83CHL1   H2B 8597   6.227   4.126   6.870 -1.0159 -0.8717 -0.6262
   83CHL1   C20 8598   6.318   4.346   7.814  0.0028  0.6698  0.4088
   83CHL1   H20 8599   6.382   4.430   7.782  0.4158  0.4301  0.6003
   83CHL1   C21 8600   6.396   4.215   7.800 -0.1693 -0.1110 -0.9509
   83CHL1  H21A 8601   6.443   4.217   7.699 -0.6220  0.5795 -1.1486
   83CHL1  H21B 8602   6.328   4.128   7.813  1.2418 -0.9402  1.5659
   83CHL1  H21C 8603   6.487   4.198   7.861 -0.2454  0.9827 -0.5086
   83CHL1   C22 8604   6.288   4.387   7.959 -0.1269  0.0336 -0.5583
   83CHL1  H22A 8605   6.228   4.480   7.950  0.0914  0.0802 -1.6653
   83CHL1  H22B 8606   6.222   4.307   7.998  0.1969  0.5003  0.9781
   83CHL1   C23 8607   6.423   4.412   8.042  0.8544 -0.5333 -0.3731
   83CHL1  H23A 8608   6.479   4.317   8.059 -3.6327 -2.9629  3.0635
   83CHL1  H23B 8609   6.486   4.468   7.970 -0.5925 -1.9039 -2.8369
   83CHL1   C24 8610   6.401   4.477   8.182  0.5931 -0.2269  1.0170
   83CHL1  H24A 8611   6.347   4.574   8.179  0.6584 -0.0533  3.2747
   83CHL1  H24B 8612   6.329   4.406   8.228 -0.3356 -1.5683 -2.2377
   83CHL1   C25 8613   6.522   4.486   8.274 -0.0153  0.1511 -0.2609
   83CHL1   H25 8614   6.598   4.416   8.234 -0.4899  0.2848 -1.4112
   83CHL1   C26 8615   6.567   4.632   8.274 -0.6462  0.1357  0.1516
   83CHL1  H26A 8616   6.495   4.699   8.327 -1.6183  2.2291 -3.4991
   83CHL1  H26B 8617   6.657   4.644   8.337 -1.3780  1.4411  0.9966
   83CHL1  H26C 8618   6.571   4.672   8.171 -3.3657  0.4344  0.0896
   83CHL1   C27 8619   6.486   4.449   8.417  0.4461  0.4286 -0.8219
   83CHL1  H27A 8620   6.448   4.344   8.414  1.4623  0.0236 -0.2349
   83CHL1  H27B 8621   6.577   4.458   8.480  0.0689  0.5411 -0.2916
   83CHL1  H27C 8622   6.402   4.515   8.446  0.5013  1.3616 -2.6291
   84CHL1    C3 8623   0.998   0.876   6.710  0.2415 -0.2389  0.6661
   84CHL1    H3 8624   1.033   0.777   6.747  1.1831  0.0414  0.5613
   84CHL1    O3 8625   0.968   0.855   6.577 -0.3977  0.5181  0.3659
   84CHL1   H3' 8626   0.941   0.943   6.550 -1.5186  0.5445  1.4916
   84CHL1    C4 8627   0.874   0.921   6.791  0.7886  0.1071 -1.0341
   84CHL1   H4A 8628   0.841   1.022   6.759  1.1561 -0.1318 -2.1922
   84CHL1   H4B 8629   0.790   0.851   6.766  1.4341 -1.6607  1.3479
   84CHL1    C5 8630   0.912   0.916   6.938  0.1111  0.0316  0.4620
   84CHL1    C6 8631   0.845   0.832   7.015  0.3438  1.1146  0.2803
   84CHL1    H6 8632   0.764   0.769   6.974  0.4188  0.5242  1.0054
   84CHL1    C7 8633   0.878   0.829   7.168  0.7359  0.3773 -0.2918
   84CHL1   H7A 8634   0.785   0.818   7.227  1.4778 -0.2809  0.7886
   84CHL1   H7B 8635   0.940   0.740   7.194 -0.3555 -0.0434  0.9421
   84CHL1    C8 8636   0.964   0.951   7.215  0.1338 -0.2179  0.4704
   84CHL1    H8 8637   0.903   1.044   7.210  0.9588  0.2945 -0.0930
   84CHL1   C14 8638   1.017   0.934   7.355  0.8021  0.3644 -0.0045
   84CHL1   H14 8639   1.074   0.838   7.358  1.5506  0.8052  0.1655
   84CHL1   C15 8640   0.907   0.918   7.462 -1.3202  0.7230 -0.6048
   84CHL1  H15A 8641   0.825   0.989   7.438 -2.5603  0.0746  1.4330
   84CHL1  H15B 8642   0.873   0.813   7.455 -1.0153  0.6720 -1.3507
   84CHL1   C16 8643   0.989   0.939   7.593  0.2429 -0.0417 -0.6271
   84CHL1  H16A 8644   0.931   1.022   7.639  1.1782  1.5449 -2.1598
   84CHL1  H16B 8645   0.998   0.851   7.659  2.1732 -0.2470 -1.1102
   84CHL1   C17 8646   1.130   0.990   7.546 -0.3367  0.5771 -0.1603
   84CHL1   H17 8647   1.192   0.898   7.548 -1.2961 -0.0683  0.9172
   84CHL1   C13 8648   1.108   1.038   7.405  0.2705  0.7970  0.6811
   84CHL1   C18 8649   1.050   1.180   7.412 -0.2605 -0.0606 -0.2652
   84CHL1  H18A 8650   1.125   1.254   7.449 -2.3855  0.5384  3.3176
   84CHL1  H18B 8651   1.025   1.208   7.308  0.2530 -0.1700 -0.4199
   84CHL1  H18C 8652   0.961   1.185   7.479 -0.6531 -2.2837 -0.5699
   84CHL1   C12 8653   1.235   1.045   7.319  0.0516  0.2036 -0.3335
   84CHL1  H12A 8654   1.290   1.132   7.360 -0.1329 -0.8910  2.4694
   84CHL1  H12B 8655   1.292   0.951   7.340 -0.2347 -0.4497 -2.2422
   84CHL1   C11 8656   1.197   1.068   7.169 -0.6654  0.7124 -0.4391
   84CHL1  H11A 8657   1.168   1.175   7.160 -1.9071  0.4534  0.1726
   84CHL1  H11B 8658   1.293   1.074   7.113 -0.4065  3.1508  0.1512
   84CHL1    C9 8659   1.082   0.973   7.116  0.2626  0.2791 -0.6151
   84CHL1    H9 8660   1.131   0.874   7.103 -2.0936 -1.0980  0.5142
   84CHL1   C10 8661   1.029   1.009   6.981  0.0355 -0.1763  0.2395
   84CHL1   C19 8662   0.980   1.156   6.979  0.7619 -0.7191 -0.0537
   84CHL1  H19A 8663   0.932   1.171   6.880  0.2952 -0.1486  0.2467
   84CHL1  H19B 8664   0.897   1.175   7.051  1.6171  2.0463  0.3244
   84CHL1  H19C 8665   1.058   1.233   7.001  1.3586 -0.7514 -1.8797
   84CHL1    C1 8666   1.146   1.008   6.873 -0.8579  0.8492 -0.5787
   84CHL1   H1A 8667   1.198   1.106   6.870 -1.4287  1.1453 -0.9814
   84CHL1   H1B 8668   1.211   0.925   6.908 -0.1041  0.2709 -3.1115
   84CHL1    C2 8669   1.115   0.978   6.731 -0.4063 -0.2877 -0.0484
   84CHL1   H2A 8670   1.209   0.942   6.684 -0.8588 -1.5753 -0.0103
   84CHL1   H2B 8671   1.089   1.076   6.687 -1.3932 -0.7623 -0.5423
   84CHL1   C20 8672   1.191   1.088   7.651 -0.5767  0.0702 -0.1381
   84CHL1   H20 8673   1.147   1.189   7.648 -0.6351  0.0309 -0.5899
   84CHL1   C21 8674   1.341   1.111   7.614  0.4307 -0.0713 -0.6184
   84CHL1  H21A 8675   1.400   1.152   7.700 -0.5802  1.0611 -0.4355
   84CHL1  H21B 8676   1.345   1.181   7.528 -2.3339  1.3468  0.2923
   84CHL1  H21C 8677   1.386   1.013   7.587 -1.5495 -0.8620 -1.1927
   84CHL1   C22 8678   1.185   1.024   7.790  0.8105 -0.1544  0.2257
   84CHL1  H22A 8679   1.091   0.971   7.819  1.2885 -0.6782  0.8358
   84CHL1  H22B 8680   1.256   0.940   7.803 -0.1097 -1.2450 -1.4355
   84CHL1   C23 8681   1.207   1.124   7.906 -0.0704  0.5026  0.2573
   84CHL1  H23A 8682   1.304   1.176   7.891  0.4061 -0.7665 -1.3404
   84CHL1  H23B 8683   1.127   1.201   7.900 -1.0338 -0.4917 -0.1110
   84CHL1   C24 8684   1.206   1.045   8.037  0.4970 -0.9607  0.1636
   84CHL1  H24A 8685   1.111   0.989   8.050 -0.9581  1.3542  0.1074
   84CHL1  H24B 8686   1.297   0.981   8.036 -0.4236 -2.3696  1.6527
   84CHL1   C25 8687   1.233   1.146   8.150  0.0426 -0.7408  0.3001
   84CHL1   H25 8688   1.328   1.198   8.127 -1.1723  2.2289  1.4356
   84CHL1   C26 8689   1.134   1.266   8.152 -0.3618  0.4961 -0.7479
   84CHL1  H26A 8690   1.135   1.341   8.070  3.4415  1.3042 -0.1645
   84CHL1  H26B 8691   1.034   1.225   8.175 -0.1627 -0.3755 -1.3896
   84CHL1  H26C 8692   1.169   1.318   8.244  1.9864 -1.8201 -0.2110
   84CHL1   C27 8693   1.233   1.085   8.285 -0.1442 -0.0620 -0.1979
   84CHL1  H27A 8694   1.294   0.993   8.282 -0.2932 -0.2607  1.7993
   84CHL1  H27B 8695   1.268   1.155   8.363 -0.8916 -0.2773  0.3386
   84CHL1  H27C 8696   1.129   1.055   8.312  0.2476 -0.2481  1.1566
   85CHL1    C3 8697   6.613   5.650   6.649 -0.2900  0.2166 -0.6279
   85CHL1    H3 8698   6.587   5.758   6.656 -0.2506  0.1704  0.2993
   85CHL1    O3 8699   6.601   5.601   6.521 -0.2184 -0.0678  0.0982
   85CHL1   H3' 8700   6.511   5.617   6.491 -1.1944 -3.8277  0.5692
   85CHL1    C4 8701   6.754   5.627   6.706  0.5036 -0.4528 -0.8243
   85CHL1   H4A 8702   6.772   5.518   6.692  2.6932 -0.2160 -0.1903
   85CHL1   H4B 8703   6.829   5.677   6.640  0.6353 -2.3465 -2.2081
   85CHL1    C5 8704   6.765   5.666   6.849 -0.0620 -1.3471 -0.0656
   85CHL1    C6 8705   6.856   5.762   6.889 -0.4106  0.0714  0.3273
   85CHL1    H6 8706   6.919   5.821   6.821 -0.8089 -0.2925 -0.3655
   85CHL1    C7 8707   6.881   5.788   7.034  0.4170 -0.0154 -0.2284
   85CHL1   H7A 8708   6.989   5.805   7.048 -0.1399  4.3473  0.0959
   85CHL1   H7B 8709   6.835   5.886   7.060 -1.0219 -0.0131 -2.5187
   85CHL1    C8 8710   6.822   5.675   7.128 -0.4298  0.0518 -0.0678
   85CHL1    H8 8711   6.892   5.589   7.117  0.7900  1.0567 -0.3270
   85CHL1   C14 8712   6.809   5.729   7.268 -0.4866  0.5296 -0.2759
   85CHL1   H14 8713   6.755   5.826   7.259 -0.5343  0.3707 -1.9265
   85CHL1   C15 8714   6.944   5.769   7.338 -0.1021 -0.0180  0.2688
   85CHL1  H15A 8715   7.023   5.692   7.330 -0.4891 -0.2708 -1.5026
   85CHL1  H15B 8716   6.987   5.863   7.296  2.0866 -1.0822 -0.0150
   85CHL1   C16 8717   6.902   5.803   7.478 -0.1981  0.4840 -0.0088
   85CHL1  H16A 8718   6.987   5.773   7.542 -0.9416 -2.4093 -0.2642
   85CHL1  H16B 8719   6.888   5.913   7.486 -1.3265  0.4006 -0.6721
   85CHL1   C17 8720   6.763   5.743   7.500 -0.5324  0.0455  0.5202
   85CHL1   H17 8721   6.686   5.822   7.484 -0.9312 -0.4246  0.0469
   85CHL1   C13 8722   6.740   5.652   7.375  0.3143  0.0176  0.2543
   85CHL1   C18 8723   6.819   5.522   7.392 -0.1925  0.8465  1.1105
   85CHL1  H18A 8724   6.928   5.537   7.404 -0.3528  2.0601  1.1791
   85CHL1  H18B 8725   6.776   5.475   7.483  1.6841 -0.8289  1.2116
   85CHL1  H18C 8726   6.808   5.456   7.304  0.4034  0.7694  1.0931
   85CHL1   C12 8727   6.589   5.624   7.328 -0.2166 -0.2917 -1.2671
   85CHL1  H12A 8728   6.528   5.573   7.405  1.8233 -0.3129  0.4172
   85CHL1  H12B 8729   6.546   5.726   7.330  1.6089  0.5371 -1.4276
   85CHL1   C11 8730   6.595   5.561   7.189  0.0471  0.2290 -0.6861
   85CHL1  H11A 8731   6.644   5.462   7.201  0.2140  0.4584  0.6720
   85CHL1  H11B 8732   6.490   5.540   7.159  0.1636  0.2535 -1.1162
   85CHL1    C9 8733   6.682   5.646   7.087  0.3688  0.1714  0.6659
   85CHL1    H9 8734   6.627   5.741   7.073 -0.2488 -0.4238 -1.2359
   85CHL1   C10 8735   6.669   5.588   6.941  0.2956  0.5156  0.1483
   85CHL1   C19 8736   6.706   5.440   6.940  0.8988  0.4927 -0.1749
   85CHL1  H19A 8737   6.676   5.394   6.843  1.7570  0.4896 -0.4400
   85CHL1  H19B 8738   6.816   5.437   6.948  0.8768 -2.2923 -0.0550
   85CHL1  H19C 8739   6.673   5.374   7.022  3.9136 -0.4098  0.4269
   85CHL1    C1 8740   6.523   5.606   6.891  0.1013 -0.2499 -0.2488
   85CHL1   H1A 8741   6.459   5.535   6.947 -0.7652  0.4357 -0.3375
   85CHL1   H1B 8742   6.487   5.710   6.911  0.5698 -0.3020  0.9694
   85CHL1    C2 8743   6.509   5.577   6.738 -0.1056  0.8389 -0.8948
   85CHL1   H2A 8744   6.407   5.603   6.704 -0.5825 -0.9566 -0.9207
   85CHL1   H2B 8745   6.515   5.468   6.722  1.3631  0.6072  0.9391
   85CHL1   C20 8746   6.750   5.681   7.638 -0.9054  0.0844  0.4666
   85CHL1   H20 8747   6.825   5.600   7.656 -0.9708 -0.3188 -0.9592
   85CHL1   C21 8748   6.606   5.620   7.666  0.5410 -0.5316 -0.0653
   85CHL1  H21A 8749   6.597   5.578   7.768  0.7282 -0.5064 -0.0369
   85CHL1  H21B 8750   6.569   5.543   7.595  2.4712 -1.7288  0.1480
   85CHL1  H21C 8751   6.535   5.705   7.663  1.7604  0.5137  0.1200
   85CHL1   C22 8752   6.782   5.798   7.736 -0.0390  0.3630  0.5987
   85CHL1  H22A 8753   6.889   5.829   7.730 -0.1701  0.5430 -1.3957
   85CHL1  H22B 8754   6.731   5.889   7.697  0.2736 -0.4139 -1.8259
   85CHL1   C23 8755   6.752   5.771   7.883  0.4119  0.0764  0.2071
   85CHL1  H23A 8756   6.783   5.858   7.945  0.9306 -0.0646  0.1525
   85CHL1  H23B 8757   6.646   5.750   7.905  0.3385  1.4732  1.3102
   85CHL1   C24 8758   6.828   5.657   7.945  0.0837 -0.4490 -1.3081
   85CHL1  H24A 8759   6.815   5.570   7.878 -1.7597 -0.3236 -1.1715
   85CHL1  H24B 8760   6.936   5.683   7.951 -0.0679  0.0282 -0.3108
   85CHL1   C25 8761   6.772   5.617   8.083 -0.3288 -0.4370 -0.4218
   85CHL1   H25 8762   6.665   5.595   8.064 -0.9493  0.3528  1.8356
   85CHL1   C26 8763   6.843   5.491   8.136 -0.2284 -0.3110  0.3149
   85CHL1  H26A 8764   6.855   5.487   8.246  0.1434  1.3230  0.3471
   85CHL1  H26B 8765   6.786   5.400   8.104 -2.5612  1.0175  0.4584
   85CHL1  H26C 8766   6.938   5.484   8.079 -0.1138  3.0991 -0.0781
   85CHL1   C27 8767   6.777   5.725   8.193  0.9131  0.1294  0.3139
   85CHL1  H27A 8768   6.692   5.797   8.186 -1.0239 -1.9904  0.8226
   85CHL1  H27B 8769   6.784   5.676   8.293  3.2859  1.0127  0.6450
   85CHL1  H27C 8770   6.871   5.782   8.175 -0.3745  2.3870  0.2664
   86CHL1    C3 8771   0.400   3.396   6.829  0.2551  0.1998 -0.6647
   86CHL1    H3 8772   0.393   3.471   6.910  0.6340 -1.4369  0.9583
   86CHL1    O3 8773   0.311   3.423   6.716 -0.2582 -0.1944  0.3170
   86CHL1   H3' 8774   0.307   3.335   6.677  1.4130 -1.1548  2.1519
   86CHL1    C4 8775   0.541   3.374   6.788  0.5320  0.3611  0.2092
   86CHL1   H4A 8776   0.526   3.309   6.700 -1.0976  0.7560  0.1724
   86CHL1   H4B 8777   0.579   3.472   6.753  0.7306  0.9675  1.9931
   86CHL1    C5 8778   0.639   3.312   6.884 -0.9798 -0.8220  0.1191
   86CHL1    C6 8779   0.753   3.369   6.921 -0.5261 -0.1842 -0.8712
   86CHL1    H6 8780   0.774   3.472   6.886  0.5958 -0.6880 -1.7295
   86CHL1    C7 8781   0.846   3.313   7.016 -0.0313  0.4416  0.1075
   86CHL1   H7A 8782   0.944   3.303   6.964 -0.7326 -0.7922 -1.0536
   86CHL1   H7B 8783   0.847   3.374   7.108  0.0378  1.1554 -0.3560
   86CHL1    C8 8784   0.819   3.163   7.056 -0.1735  0.1508  0.0567
   86CHL1    H8 8785   0.849   3.093   6.975 -1.7205 -2.7567  1.8306
   86CHL1   C14 8786   0.894   3.121   7.183  0.8278  0.9625 -0.6341
   86CHL1   H14 8787   0.850   3.178   7.268  2.3841 -0.7207  1.4016
   86CHL1   C15 8788   1.051   3.140   7.177 -0.1622  0.1615 -0.8253
   86CHL1  H15A 8789   1.082   3.118   7.073  0.5049  0.2238 -0.6396
   86CHL1  H15B 8790   1.063   3.247   7.206 -0.3862  0.3382 -1.3628
   86CHL1   C16 8791   1.104   3.057   7.290  0.3852 -0.3819 -0.1277
   86CHL1  H16A 8792   1.188   2.992   7.259  0.3551 -1.1566  1.2986
   86CHL1  H16B 8793   1.132   3.119   7.378 -2.3687 -1.6057  1.7611
   86CHL1   C17 8794   0.977   2.966   7.335  0.2776 -0.1169 -0.9413
   86CHL1   H17 8795   0.933   3.020   7.421 -2.2518  0.4591 -2.4823
   86CHL1   C13 8796   0.871   2.976   7.225  0.0326  0.3621  0.0225
   86CHL1   C18 8797   0.918   2.876   7.118 -0.2178 -0.4864 -0.6353
   86CHL1  H18A 8798   1.027   2.880   7.099  0.2475  0.0436  1.8155
   86CHL1  H18B 8799   0.900   2.772   7.154 -0.0025  0.1947  1.5649
   86CHL1  H18C 8800   0.863   2.898   7.024 -0.1533 -0.8564 -0.7641
   86CHL1   C12 8801   0.721   2.965   7.259  0.4622 -0.1759 -0.4958
   86CHL1  H12A 8802   0.694   2.867   7.303  0.4812  0.6334  1.3958
   86CHL1  H12B 8803   0.703   3.032   7.346 -0.0419 -3.1835  1.8695
   86CHL1   C11 8804   0.636   3.007   7.134 -0.0048  0.1779  0.9518
   86CHL1  H11A 8805   0.651   2.924   7.062  1.9392  0.7977  0.5731
   86CHL1  H11B 8806   0.529   3.006   7.162 -0.5122 -0.3002 -0.8844
   86CHL1    C9 8807   0.673   3.146   7.074 -0.0419  0.5169  0.3691
   86CHL1    H9 8808   0.646   3.221   7.151  0.2300  1.2204 -0.2135
   86CHL1   C10 8809   0.589   3.183   6.948  0.5815 -0.2336 -0.5320
   86CHL1   C19 8810   0.593   3.067   6.845  0.3731  0.1277  1.4549
   86CHL1  H19A 8811   0.535   2.977   6.873  0.2640 -0.6704 -1.0876
   86CHL1  H19B 8812   0.542   3.095   6.750  2.1929  1.1311  0.7117
   86CHL1  H19C 8813   0.701   3.045   6.832  0.7846  2.1283  1.1476
   86CHL1    C1 8814   0.444   3.212   7.002  0.1159 -0.2151 -0.8537
   86CHL1   H1A 8815   0.399   3.116   7.035  0.8318 -0.8623 -1.6900
   86CHL1   H1B 8816   0.447   3.283   7.087  0.2404 -2.5803  1.2246
   86CHL1    C2 8817   0.346   3.260   6.893  0.1757 -0.2347  0.9952
   86CHL1   H2A 8818   0.244   3.268   6.937 -0.5827 -0.8194 -0.5595
   86CHL1   H2B 8819   0.331   3.182   6.815 -1.6637 -0.8775  1.9417
   86CHL1   C20 8820   1.025   2.828   7.386  0.0461 -0.5715 -0.5106
   86CHL1   H20 8821   1.071   2.764   7.308  0.9834 -2.8211  1.7584
   86CHL1   C21 8822   0.906   2.738   7.430  0.3398  0.4789  0.4268
   86CHL1  H21A 8823   0.851   2.710   7.338 -0.6749  0.2895  1.0804
   86CHL1  H21B 8824   0.838   2.795   7.497 -2.8020  1.2748 -3.1454
   86CHL1  H21C 8825   0.941   2.649   7.487  0.3077  0.0210 -0.2565
   86CHL1   C22 8826   1.132   2.829   7.499 -0.6419 -0.5883  0.5089
   86CHL1  H22A 8827   1.184   2.730   7.502  0.1233 -0.1634  2.6735
   86CHL1  H22B 8828   1.212   2.898   7.463 -1.2806  0.4255  1.0013
   86CHL1   C23 8829   1.099   2.873   7.638 -0.1822 -0.0055 -0.4885
   86CHL1  H23A 8830   1.065   2.978   7.635  1.2559  0.4977 -0.2815
   86CHL1  H23B 8831   1.023   2.804   7.680 -2.6979  1.6832 -1.9986
   86CHL1   C24 8832   1.226   2.857   7.726  0.1522  0.1935  0.3711
   86CHL1  H24A 8833   1.259   2.753   7.706 -1.9153 -0.5769  0.6522
   86CHL1  H24B 8834   1.297   2.934   7.689 -1.4291  1.6267  0.1799
   86CHL1   C25 8835   1.202   2.881   7.876 -0.3654  0.2119 -0.3591
   86CHL1   H25 8836   1.160   2.983   7.890  1.2680  1.3520 -2.9362
   86CHL1   C26 8837   1.119   2.766   7.946  0.4988  0.1914  1.0950
   86CHL1  H26A 8838   1.019   2.757   7.899  0.5659  1.3205  0.6896
   86CHL1  H26B 8839   1.175   2.670   7.942 -0.0481 -0.0885 -0.2698
   86CHL1  H26C 8840   1.107   2.790   8.054  0.8987 -3.0287  1.9592
   86CHL1   C27 8841   1.335   2.887   7.948  0.0149 -0.1003  0.0621
   86CHL1  H27A 8842   1.401   2.803   7.915  0.5702 -0.2247  1.4102
   86CHL1  H27B 8843   1.384   2.984   7.927  0.0962  0.3279  2.0559
   86CHL1  H27C 8844   1.321   2.874   8.058  3.3212  0.6687  0.7107
   87CHL1    C3 8845   1.565   2.860   6.889  0.1680 -0.1699  0.3089
   87CHL1    H3 8846   1.650   2.796   6.858 -1.3785 -1.3100 -1.9261
   87CHL1    O3 8847   1.502   2.917   6.774  0.2604 -0.0399  0.3107
   87CHL1   H3' 8848   1.408   2.909   6.793  0.6556 -1.3042  1.9057
   87CHL1    C4 8849   1.458   2.775   6.961 -1.1150  1.3424  0.1530
   87CHL1   H4A 8850   1.373   2.844   6.980  0.1195  2.9342  0.0746
   87CHL1   H4B 8851   1.426   2.701   6.885 -0.9175  0.1490  1.2026
   87CHL1    C5 8852   1.511   2.727   7.094  0.2025 -0.0003  0.4914
   87CHL1    C6 8853   1.515   2.591   7.119  0.1218 -1.2396 -0.3907
   87CHL1    H6 8854   1.484   2.516   7.046 -0.8801 -1.0746 -0.1424
   87CHL1    C7 8855   1.566   2.534   7.250  0.3583 -0.8786  0.1993
   87CHL1   H7A 8856   1.509   2.447   7.288  1.1711 -0.9669  1.2803
   87CHL1   H7B 8857   1.674   2.511   7.239  0.0948 -2.6005  0.9769
   87CHL1    C8 8858   1.567   2.642   7.360  0.9372  0.2038 -0.7540
   87CHL1    H8 8859   1.460   2.654   7.388  1.0478 -1.3023  0.4205
   87CHL1   C14 8860   1.636   2.586   7.488  0.0935 -0.1802  0.5630
   87CHL1   H14 8861   1.733   2.559   7.441  0.0810  0.4438  0.1627
   87CHL1   C15 8862   1.593   2.451   7.550  0.3822  0.0583  0.2849
   87CHL1  H15A 8863   1.484   2.439   7.568  0.3427  0.1503  0.1018
   87CHL1  H15B 8864   1.626   2.371   7.481  2.0230  1.3601 -0.5012
   87CHL1   C16 8865   1.673   2.443   7.680  0.3373  0.5346 -0.2315
   87CHL1  H16A 8866   1.596   2.441   7.760  0.1739 -1.7717 -0.3771
   87CHL1  H16B 8867   1.721   2.343   7.674 -1.6100 -0.3976 -1.3442
   87CHL1   C17 8868   1.766   2.570   7.683 -0.2489  0.2336 -0.2505
   87CHL1   H17 8869   1.856   2.534   7.628 -0.9558 -3.3391  0.6272
   87CHL1   C13 8870   1.680   2.676   7.597 -0.0523  0.1226 -0.2260
   87CHL1   C18 8871   1.552   2.722   7.675 -0.1527  0.1235  0.0391
   87CHL1  H18A 8872   1.482   2.777   7.608 -2.0571 -2.5265 -0.3123
   87CHL1  H18B 8873   1.511   2.636   7.732  2.3152 -0.4216  1.1446
   87CHL1  H18C 8874   1.585   2.793   7.753  0.0217 -1.1833  1.2086
   87CHL1   C12 8875   1.748   2.802   7.542 -0.7235 -0.9440  1.0106
   87CHL1  H12A 8876   1.786   2.864   7.625 -0.8560  0.6685 -0.0845
   87CHL1  H12B 8877   1.839   2.761   7.493  0.3718  1.8577  0.5223
   87CHL1   C11 8878   1.665   2.871   7.429 -0.6888 -0.0245 -0.1514
   87CHL1  H11A 8879   1.582   2.922   7.483 -0.0472 -2.1472  3.1250
   87CHL1  H11B 8880   1.734   2.947   7.387  0.5393 -0.0412  1.6743
   87CHL1    C9 8881   1.634   2.774   7.310  0.0884 -0.0362 -0.0326
   87CHL1    H9 8882   1.736   2.753   7.271 -0.0953  1.3658 -1.3940
   87CHL1   C10 8883   1.565   2.836   7.183 -0.2712 -0.5269 -0.8194
   87CHL1   C19 8884   1.446   2.926   7.236  0.1345 -0.1806  0.0779
   87CHL1  H19A 8885   1.485   3.002   7.307 -0.5129 -1.4626  1.8602
   87CHL1  H19B 8886   1.407   2.977   7.145 -1.2564 -0.1380  0.6708
   87CHL1  H19C 8887   1.368   2.866   7.287 -0.1923  0.9504  0.9503
   87CHL1    C1 8888   1.670   2.924   7.111 -0.5968  0.0247 -0.1107
   87CHL1   H1A 8889   1.685   3.011   7.179 -2.5152  0.8484 -0.6937
   87CHL1   H1B 8890   1.763   2.865   7.098  0.7432  2.0406 -0.1665
   87CHL1    C2 8891   1.622   2.976   6.971  0.1327  0.4473  0.0023
   87CHL1   H2A 8892   1.706   3.020   6.912  1.4014 -0.3766  1.1445
   87CHL1   H2B 8893   1.542   3.053   6.977 -0.1613  0.1063  0.5223
   87CHL1   C20 8894   1.812   2.602   7.825 -0.2893 -0.3117  0.1341
   87CHL1   H20 8895   1.734   2.646   7.891  1.8943 -2.2012  4.2824
   87CHL1   C21 8896   1.921   2.709   7.816  0.8372  0.0915 -1.0618
   87CHL1  H21A 8897   1.993   2.675   7.739  0.0412 -3.2750 -0.4930
   87CHL1  H21B 8898   1.959   2.724   7.919  0.9539 -0.4691 -1.0182
   87CHL1  H21C 8899   1.870   2.807   7.802  0.1484  0.1810  1.5097
   87CHL1   C22 8900   1.866   2.479   7.914 -0.0980 -0.2531  0.3341
   87CHL1  H22A 8901   1.897   2.518   8.013 -1.3058 -0.4043  0.7905
   87CHL1  H22B 8902   1.767   2.430   7.927 -0.5569  0.5112 -0.2153
   87CHL1   C23 8903   1.967   2.387   7.846 -0.0229 -0.5642  0.1010
   87CHL1  H23A 8904   1.924   2.351   7.750  0.6734 -1.2469  0.0390
   87CHL1  H23B 8905   2.065   2.438   7.843 -0.3342 -0.0064 -1.0481
   87CHL1   C24 8906   1.972   2.255   7.920 -0.3321 -0.3586 -0.9726
   87CHL1  H24A 8907   1.999   2.289   8.022 -0.9639  2.6095 -1.7055
   87CHL1  H24B 8908   1.875   2.201   7.927  0.5346 -1.8741 -0.0512
   87CHL1   C25 8909   2.088   2.166   7.865  0.0386 -0.3631  0.0563
   87CHL1   H25 8910   2.066   2.155   7.756  0.6959 -1.9007  0.0393
   87CHL1   C26 8911   2.226   2.226   7.888 -0.4770 -0.0786 -0.4370
   87CHL1  H26A 8912   2.240   2.330   7.850 -0.0223 -0.0157 -0.1077
   87CHL1  H26B 8913   2.241   2.232   7.998 -2.1425 -0.1884 -0.1847
   87CHL1  H26C 8914   2.306   2.158   7.850  0.7978  0.2493  1.4885
   87CHL1   C27 8915   2.083   2.024   7.934  0.0225  0.8517  0.0328
   87CHL1  H27A 8916   2.115   2.020   8.040  0.1328 -2.5062 -0.0059
   87CHL1  H27B 8917   1.989   1.966   7.923  0.4079  0.3989 -1.0831
   87CHL1  H27C 8918   2.155   1.956   7.884 -2.7962 -1.9252 -0.5552
   88CHL1    C3 8919   6.195   6.698   6.701  0.3750  0.1627 -0.0945
   88CHL1    H3 8920   6.282   6.641   6.739  0.3327  0.3592  0.3029
   88CHL1    O3 8921   6.205   6.701   6.556 -0.0566  0.3060  0.4249
   88CHL1   H3' 8922   6.287   6.748   6.539 -0.8433  2.3328  1.7936
   88CHL1    C4 8923   6.062   6.629   6.760 -0.7443  0.3610  0.4797
   88CHL1   H4A 8924   5.981   6.673   6.698 -0.2075 -1.6173 -1.7796
   88CHL1   H4B 8925   6.068   6.525   6.723  2.3929  1.2830 -1.9766
   88CHL1    C5 8926   6.041   6.645   6.909  0.1879 -0.2041  0.1981
   88CHL1    C6 8927   6.008   6.536   6.982  0.1628  0.0521  0.5006
   88CHL1    H6 8928   5.997   6.446   6.920  2.1074 -1.0797  1.7021
   88CHL1    C7 8929   5.980   6.531   7.124  0.4593 -0.8133 -0.0872
   88CHL1   H7A 8930   5.896   6.467   7.159  1.9640 -0.6739  4.3794
   88CHL1   H7B 8931   6.069   6.488   7.176 -1.4325 -3.6439  1.0419
   88CHL1    C8 8932   5.965   6.676   7.176  0.2291  0.0125 -0.2254
   88CHL1    H8 8933   5.864   6.713   7.146 -0.3263 -1.7148 -0.5776
   88CHL1   C14 8934   5.969   6.680   7.325  0.0863 -0.2241  0.1809
   88CHL1   H14 8935   6.069   6.635   7.339  0.4176  0.4292 -0.0073
   88CHL1   C15 8936   5.866   6.592   7.397 -0.0838 -0.0536  0.2581
   88CHL1  H15A 8937   5.767   6.605   7.348  0.9330  1.9933 -1.4314
   88CHL1  H15B 8938   5.906   6.488   7.386 -2.1328 -0.9005  0.4053
   88CHL1   C16 8939   5.877   6.638   7.545  0.3213 -0.1959 -0.0711
   88CHL1  H16A 8940   5.776   6.668   7.579  0.3310  1.3001 -1.2646
   88CHL1  H16B 8941   5.907   6.552   7.608 -2.4133  0.8754  2.9698
   88CHL1   C17 8942   5.977   6.760   7.539  0.0703  0.3151  0.6618
   88CHL1   H17 8943   6.078   6.715   7.546 -0.1125 -0.1948  0.0873
   88CHL1   C13 8944   5.972   6.816   7.395 -0.7283  0.4281 -0.1809
   88CHL1   C18 8945   5.838   6.881   7.368 -0.4421  0.1746  0.1657
   88CHL1  H18A 8946   5.749   6.836   7.416 -0.5165  1.9135  1.8036
   88CHL1  H18B 8947   5.835   6.988   7.401 -1.0665 -0.4783  2.4019
   88CHL1  H18C 8948   5.816   6.882   7.260 -0.7073  3.6118  0.1305
   88CHL1   C12 8949   6.098   6.899   7.348  0.1896  0.0911  0.5375
   88CHL1  H12A 8950   6.092   7.000   7.393 -0.8448  0.0246  0.5748
   88CHL1  H12B 8951   6.192   6.843   7.366 -0.0324 -0.4694  0.0326
   88CHL1   C11 8952   6.097   6.910   7.195 -0.3743  0.4022  0.3203
   88CHL1  H11A 8953   6.007   6.970   7.169  0.7984  2.2185  0.2739
   88CHL1  H11B 8954   6.186   6.961   7.153  0.4164 -0.2725  1.1423
   88CHL1    C9 8955   6.072   6.772   7.123 -0.0245 -0.5932  0.3097
   88CHL1    H9 8956   6.173   6.729   7.142  0.3769 -0.1328 -0.7114
   88CHL1   C10 8957   6.062   6.783   6.963  0.1203 -0.0080 -0.8275
   88CHL1   C19 8958   5.936   6.866   6.920  0.2470  0.1065 -0.3257
   88CHL1  H19A 8959   5.925   6.874   6.810 -1.0177  0.0981 -0.2208
   88CHL1  H19B 8960   5.851   6.802   6.950  2.5090 -2.6543  0.5438
   88CHL1  H19C 8961   5.945   6.966   6.967  1.1193  0.4541 -1.1908
   88CHL1    C1 8962   6.193   6.843   6.903 -0.0647  0.6861  0.2339
   88CHL1   H1A 8963   6.192   6.948   6.938 -0.9908  0.1757  1.8393
   88CHL1   H1B 8964   6.283   6.790   6.943  0.6992  2.8029  1.4370
   88CHL1    C2 8965   6.201   6.838   6.751  0.7589 -0.3961 -0.7163
   88CHL1   H2A 8966   6.296   6.881   6.714  1.4759 -2.3152 -1.2260
   88CHL1   H2B 8967   6.116   6.888   6.699  0.4021  1.5197  1.5485
   88CHL1   C20 8968   5.971   6.845   7.664  0.1894  0.0529  0.0774
   88CHL1   H20 8969   5.882   6.912   7.663 -1.1303 -1.6252  0.0219
   88CHL1   C21 8970   6.098   6.936   7.677 -0.3049 -0.0389 -0.1873
   88CHL1  H21A 8971   6.185   6.884   7.722 -0.6951 -0.7493 -0.2415
   88CHL1  H21B 8972   6.076   7.022   7.743 -1.9903 -0.7227  0.1899
   88CHL1  H21C 8973   6.132   6.973   7.578 -1.2374 -1.4681 -1.0805
   88CHL1   C22 8974   5.955   6.762   7.796 -0.0369 -0.2246 -0.4462
   88CHL1  H22A 8975   5.861   6.703   7.791 -0.7779  1.0049 -1.5649
   88CHL1  H22B 8976   6.032   6.683   7.814 -2.5325 -2.1951  2.7214
   88CHL1   C23 8977   5.954   6.849   7.918  0.7701 -0.1420 -1.3181
   88CHL1  H23A 8978   6.052   6.899   7.928  0.9385 -0.6657 -0.0563
   88CHL1  H23B 8979   5.884   6.933   7.901 -0.3461 -0.5386  0.9046
   88CHL1   C24 8980   5.910   6.783   8.044 -0.3013 -0.1112 -0.0702
   88CHL1  H24A 8981   5.808   6.748   8.017 -0.1157  0.2381 -1.2681
   88CHL1  H24B 8982   5.969   6.698   8.084  2.0224  1.2029 -0.5205
   88CHL1   C25 8983   5.893   6.893   8.153  0.0963  0.2624 -0.4297
   88CHL1   H25 8984   5.982   6.958   8.147 -0.5592  1.2070 -0.1513
   88CHL1   C26 8985   5.769   6.985   8.121 -0.3369  0.3257 -0.1846
   88CHL1  H26A 8986   5.785   7.076   8.183  0.6867  0.4090 -0.5616
   88CHL1  H26B 8987   5.763   7.014   8.014 -0.7284 -0.6551 -0.4412
   88CHL1  H26C 8988   5.680   6.926   8.151  0.7288 -1.2103  0.0530
   88CHL1   C27 8989   5.885   6.843   8.298  0.1165 -1.1047 -0.2965
   88CHL1  H27A 8990   5.879   6.920   8.377  0.4133 -0.5047 -0.8478
   88CHL1  H27B 8991   5.801   6.770   8.304  1.2158 -2.2558  2.2111
   88CHL1  H27C 8992   5.974   6.779   8.316 -0.2476 -1.3705  0.6093
   89CHL1    C3 8993   2.493   3.445   6.862 -0.1348 -0.1225 -1.1632
   89CHL1    H3 8994   2.585   3.383   6.857  0.8480  1.1762 -0.1049
   89CHL1    O3 8995   2.435   3.446   6.730  0.0613  0.3463 -0.0824
   89CHL1   H3' 8996   2.344   3.417   6.737  0.3684 -1.1275 -1.6667
   89CHL1    C4 8997   2.396   3.387   6.966  0.3120  0.5131  0.6107
   89CHL1   H4A 8998   2.309   3.455   6.957  0.1994  0.1125 -2.0922
   89CHL1   H4B 8999   2.359   3.287   6.935 -1.3312  1.3075 -0.1224
   89CHL1    C5 9000   2.457   3.382   7.104  0.5180  0.7092  0.3212
   89CHL1    C6 9001   2.467   3.270   7.176  0.2196 -0.3084 -0.1092
   89CHL1    H6 9002   2.431   3.178   7.128  0.5818  0.3835 -1.7440
   89CHL1    C7 9003   2.530   3.259   7.313 -0.2191  0.1342  0.2279
   89CHL1   H7A 9004   2.457   3.207   7.378 -1.8673  1.3614 -0.5785
   89CHL1   H7B 9005   2.620   3.193   7.306 -0.3950 -0.0003 -1.0637
   89CHL1    C8 9006   2.570   3.393   7.376  0.1244  1.0457  0.2943
   89CHL1    H8 9007   2.471   3.432   7.409 -1.1488 -0.5622 -1.4447
   89CHL1   C14 9008   2.667   3.388   7.492 -0.4362  0.2235 -0.6530
   89CHL1   H14 9009   2.760   3.336   7.460 -0.0466  0.2323  0.4222
   89CHL1   C15 9010   2.615   3.310   7.614 -0.3877 -0.0355  0.2051
   89CHL1  H15A 9011   2.511   3.338   7.639 -2.0036 -1.0366 -4.3359
   89CHL1  H15B 9012   2.610   3.201   7.593  0.5130  0.0202 -0.3739
   89CHL1   C16 9013   2.713   3.356   7.723 -0.1608  0.6836  0.9248
   89CHL1  H16A 9014   2.651   3.394   7.807  0.0460  0.0949  1.3506
   89CHL1  H16B 9015   2.782   3.272   7.744 -3.3930 -2.4177  0.1856
   89CHL1   C17 9016   2.799   3.468   7.660  0.0288 -0.2280 -0.7616
   89CHL1   H17 9017   2.892   3.422   7.620  1.1470  1.5909 -0.3881
   89CHL1   C13 9018   2.715   3.518   7.541 -0.0330 -0.8625  0.2486
   89CHL1   C18 9019   2.602   3.601   7.586  0.0596 -0.1715  0.0538
   89CHL1  H18A 9020   2.522   3.553   7.646 -0.2635  2.3827  1.8489
   89CHL1  H18B 9021   2.642   3.687   7.643  0.0749 -1.6179  2.3606
   89CHL1  H18C 9022   2.548   3.645   7.500  0.8863  1.6035  0.4012
   89CHL1   C12 9023   2.805   3.583   7.430 -0.0174  0.2921 -0.5724
   89CHL1  H12A 9024   2.839   3.683   7.463 -1.8888  1.5330 -2.1870
   89CHL1  H12B 9025   2.891   3.515   7.412 -0.2927  0.2851 -1.9395
   89CHL1   C11 9026   2.723   3.601   7.305 -0.0121 -0.2058  0.4065
   89CHL1  H11A 9027   2.656   3.690   7.316  0.4251  0.4680 -1.8660
   89CHL1  H11B 9028   2.791   3.619   7.219 -1.5444 -0.8923 -0.9949
   89CHL1    C9 9029   2.631   3.480   7.268 -0.1616  0.0665  0.2194
   89CHL1    H9 9030   2.709   3.409   7.234  1.6062  0.3457  3.3558
   89CHL1   C10 9031   2.533   3.508   7.148  0.2598 -0.1615  0.8782
   89CHL1   C19 9032   2.430   3.609   7.215 -0.3004  0.2055  0.3254
   89CHL1  H19A 9033   2.373   3.567   7.300  1.4080  0.8889  1.8609
   89CHL1  H19B 9034   2.478   3.705   7.243  0.9138  0.0282 -0.9935
   89CHL1  H19C 9035   2.353   3.629   7.137 -1.9949  1.3670  2.1821
   89CHL1    C1 9036   2.612   3.583   7.031  0.1106  0.3193 -0.2178
   89CHL1   H1A 9037   2.639   3.684   7.069 -0.9784 -0.0105  1.5489
   89CHL1   H1B 9038   2.706   3.526   7.019 -0.2631 -0.7752  1.7075
   89CHL1    C2 9039   2.537   3.587   6.895  0.0094  0.3497 -0.2972
   89CHL1   H2A 9040   2.612   3.621   6.820  0.9010  0.2385  0.5231
   89CHL1   H2B 9041   2.459   3.665   6.893 -0.3291  0.0036 -0.8027
   89CHL1   C20 9042   2.848   3.561   7.774  0.0937 -0.6020  0.5700
   89CHL1   H20 9043   2.758   3.604   7.822 -1.5872 -0.4168 -2.4702
   89CHL1   C21 9044   2.929   3.682   7.720 -0.0315 -0.0414 -0.2017
   89CHL1  H21A 9045   2.993   3.717   7.803 -1.6369 -1.3065  1.6500
   89CHL1  H21B 9046   2.866   3.767   7.686  0.5177  1.4641  2.2761
   89CHL1  H21C 9047   3.002   3.653   7.642 -1.2656  2.4063 -2.4423
   89CHL1   C22 9048   2.922   3.491   7.893 -0.0005 -0.4991 -0.1037
   89CHL1  H22A 9049   2.946   3.562   7.974  0.3418 -0.4302 -0.2622
   89CHL1  H22B 9050   2.855   3.413   7.933 -0.5535 -0.4843 -0.9542
   89CHL1   C23 9051   3.038   3.409   7.842  0.6137 -0.1555 -0.2878
   89CHL1  H23A 9052   3.004   3.310   7.805 -0.6889  0.0151  0.3923
   89CHL1  H23B 9053   3.095   3.457   7.760 -0.3852 -1.0122 -1.5303
   89CHL1   C24 9054   3.132   3.392   7.962 -0.1721 -0.1615 -0.1272
   89CHL1  H24A 9055   3.146   3.492   8.009 -0.3341  0.0656 -0.5540
   89CHL1  H24B 9056   3.106   3.309   8.031 -0.0355  0.0771  0.2153
   89CHL1   C25 9057   3.273   3.351   7.903  0.0322 -0.1019  0.2357
   89CHL1   H25 9058   3.289   3.426   7.823 -0.6812 -0.8884 -0.6784
   89CHL1   C26 9059   3.385   3.364   8.009 -0.4199 -0.4940 -0.2401
   89CHL1  H26A 9060   3.486   3.373   7.964  0.9804 -2.8497  2.1796
   89CHL1  H26B 9061   3.368   3.450   8.078  0.9987 -0.2336 -0.1926
   89CHL1  H26C 9062   3.375   3.275   8.075 -1.0460  1.1752  2.0701
   89CHL1   C27 9063   3.280   3.212   7.836  0.2355  0.1293  0.1207
   89CHL1  H27A 9064   3.270   3.130   7.911 -1.6536  0.6419  0.4741
   89CHL1  H27B 9065   3.201   3.197   7.759  0.7328  1.0461 -0.5923
   89CHL1  H27C 9066   3.384   3.203   7.798  0.5459 -2.4570  1.3432
   90CHL1    C3 9067   3.586   4.273   6.818 -0.5947 -0.0553 -0.6306
   90CHL1    H3 9068   3.650   4.186   6.793  0.4149  0.9705 -1.7789
   90CHL1    O3 9069   3.538   4.307   6.691  0.2358  0.2287  0.2206
   90CHL1   H3' 9070   3.479   4.236   6.665  0.7994 -0.7889  1.5961
   90CHL1    C4 9071   3.461   4.230   6.895  0.1943 -0.6439  0.4180
   90CHL1   H4A 9072   3.382   4.308   6.885  1.3417  1.0621  3.5126
   90CHL1   H4B 9073   3.412   4.141   6.850 -0.2596  1.1076 -2.8216
   90CHL1    C5 9074   3.496   4.200   7.040  0.2608 -0.2169 -0.8045
   90CHL1    C6 9075   3.478   4.082   7.100 -0.2211 -0.2422  0.0118
   90CHL1    H6 9076   3.442   4.007   7.027  0.6106  0.7049 -1.3960
   90CHL1    C7 9077   3.510   4.037   7.242 -0.0741  0.9153 -0.3568
   90CHL1   H7A 9078   3.432   3.974   7.289  1.4804  0.8740  2.3626
   90CHL1   H7B 9079   3.607   3.981   7.247 -0.0631  0.9025 -0.6571
   90CHL1    C8 9080   3.545   4.158   7.339 -0.0753  0.5152 -0.2679
   90CHL1    H8 9081   3.448   4.204   7.366 -1.0956 -2.2087  1.1424
   90CHL1   C14 9082   3.629   4.118   7.461 -0.0826 -0.2058 -0.0972
   90CHL1   H14 9083   3.730   4.084   7.427  0.3452 -2.4442  2.9648
   90CHL1   C15 9084   3.571   4.006   7.544 -0.6829 -0.6258  0.2462
   90CHL1  H15A 9085   3.461   4.010   7.561 -0.4542  1.9986  1.6714
   90CHL1  H15B 9086   3.589   3.902   7.512 -0.9358 -0.0459 -1.9262
   90CHL1   C16 9087   3.633   4.018   7.680 -0.1141 -0.1109 -0.5745
   90CHL1  H16A 9088   3.551   4.020   7.755  1.6600 -1.0320  1.5129
   90CHL1  H16B 9089   3.690   3.928   7.712 -0.9261  0.4982  2.9460
   90CHL1   C17 9090   3.724   4.147   7.684  0.6774  0.3969 -0.4968
   90CHL1   H17 9091   3.829   4.122   7.659  1.0193  1.0483  0.2364
   90CHL1   C13 9092   3.660   4.232   7.563  0.5943 -0.2081  0.3054
   90CHL1   C18 9093   3.528   4.309   7.603 -0.2133 -0.6360  0.0104
   90CHL1  H18A 9094   3.558   4.379   7.684  0.8095 -0.1288 -0.7943
   90CHL1  H18B 9095   3.485   4.364   7.516 -1.1869 -1.7831 -0.2756
   90CHL1  H18C 9096   3.452   4.238   7.643 -0.5003 -0.0142  0.5904
   90CHL1   C12 9097   3.762   4.322   7.484 -0.0790  0.1464 -0.0519
   90CHL1  H12A 9098   3.784   4.412   7.546 -0.2048 -0.2660  0.5907
   90CHL1  H12B 9099   3.851   4.261   7.458 -0.3437 -0.0267 -0.5648
   90CHL1   C11 9100   3.706   4.367   7.344 -0.3333  0.1553 -0.0456
   90CHL1  H11A 9101   3.637   4.452   7.362  2.2238  2.0500  1.5240
   90CHL1  H11B 9102   3.777   4.423   7.279  1.1733 -2.4898 -0.8037
   90CHL1    C9 9103   3.641   4.256   7.254 -0.0888  0.0920 -0.1945
   90CHL1    H9 9104   3.725   4.188   7.231 -0.2995  0.2503 -1.5455
   90CHL1   C10 9105   3.579   4.311   7.125 -0.1677  0.5338 -0.1516
   90CHL1   C19 9106   3.481   4.425   7.159 -0.1606  0.1938 -0.7193
   90CHL1  H19A 9107   3.412   4.442   7.073 -0.9806  0.0241 -0.1075
   90CHL1  H19B 9108   3.410   4.411   7.243  1.0773 -0.3709  0.2542
   90CHL1  H19C 9109   3.532   4.523   7.168 -1.4391  1.0759 -2.4393
   90CHL1    C1 9110   3.699   4.360   7.037 -0.3128  0.0491 -0.1012
   90CHL1   H1A 9111   3.754   4.447   7.078 -0.0829  0.1361 -0.5851
   90CHL1   H1B 9112   3.773   4.278   7.037  0.7021  0.9020 -1.9288
   90CHL1    C2 9113   3.660   4.384   6.888 -0.1506 -0.1819 -0.3949
   90CHL1   H2A 9114   3.748   4.416   6.829 -0.2974  2.9757  0.8663
   90CHL1   H2B 9115   3.585   4.465   6.903 -0.9854 -1.2137  1.2898
   90CHL1   C20 9116   3.738   4.200   7.824 -0.0781 -0.2435 -0.6363
   90CHL1   H20 9117   3.637   4.207   7.870  0.9178  1.5390  1.4417
   90CHL1   C21 9118   3.812   4.334   7.822  0.5321 -0.0986  0.4653
   90CHL1  H21A 9119   3.840   4.382   7.919 -0.1149  1.3105 -0.0245
   90CHL1  H21B 9120   3.758   4.409   7.762 -0.2572 -2.3269 -1.7668
   90CHL1  H21C 9121   3.908   4.323   7.767  0.8312 -2.5088  1.3463
   90CHL1   C22 9122   3.821   4.099   7.917 -0.5775 -0.6252  0.2288
   90CHL1  H22A 9123   3.801   3.993   7.891 -1.9801  0.0604 -1.6837
   90CHL1  H22B 9124   3.930   4.120   7.904 -0.6328 -0.2529  0.3597
   90CHL1   C23 9125   3.783   4.131   8.066 -0.2274  0.5261  0.7756
   90CHL1  H23A 9126   3.786   4.242   8.066  0.4736  0.5351 -0.7440
   90CHL1  H23B 9127   3.681   4.089   8.078  0.0110 -0.6008 -0.8331
   90CHL1   C24 9128   3.884   4.064   8.160 -0.2487 -0.2168 -0.0049
   90CHL1  H24A 9129   3.889   3.955   8.138 -2.1764 -0.3621  0.0596
   90CHL1  H24B 9130   3.989   4.096   8.142  0.3982 -0.6541  2.6265
   90CHL1   C25 9131   3.857   4.090   8.310  1.0101 -0.4619  0.5321
   90CHL1   H25 9132   3.756   4.049   8.329  1.4307 -1.1403  1.3260
   90CHL1   C26 9133   3.961   4.020   8.395 -0.3426  0.0831 -0.4410
   90CHL1  H26A 9134   3.987   3.918   8.360 -0.8573  0.6637 -2.6511
   90CHL1  H26B 9135   4.052   4.084   8.395  0.4125 -0.8903 -2.4510
   90CHL1  H26C 9136   3.933   4.019   8.502  0.8509 -1.7029 -0.0873
   90CHL1   C27 9137   3.857   4.242   8.338  0.0150  0.1133  0.2131
   90CHL1  H27A 9138   3.838   4.268   8.444 -3.4583 -1.1600  0.0112
   90CHL1  H27B 9139   3.952   4.288   8.304 -0.3600  0.5343 -0.2738
   90CHL1  H27C 9140   3.769   4.285   8.286 -0.3971 -2.4022 -1.3388
   91CHL1    C3 9141   4.885   5.949   7.303  0.8503  0.3400  0.3542
   91CHL1    H3 9142   4.995   5.936   7.314  1.1832  1.1495 -1.5314
   91CHL1    O3 9143   4.848   5.976   7.174 -0.0043  0.4834 -0.0565
   91CHL1   H3' 9144   4.899   6.047   7.134  0.5576  0.2576  0.2621
   91CHL1    C4 9145   4.816   5.813   7.344  0.0477 -0.3147 -0.5194
   91CHL1   H4A 9146   4.706   5.815   7.327 -0.0904  1.3063  0.3453
   91CHL1   H4B 9147   4.848   5.733   7.274  0.7119 -0.5290  0.0204
   91CHL1    C5 9148   4.844   5.782   7.489  0.5202 -0.5413 -0.1828
   91CHL1    C6 9149   4.896   5.667   7.518  0.6816 -0.1626 -0.2986
   91CHL1    H6 9150   4.922   5.596   7.439  0.9471  0.5704 -0.8750
   91CHL1    C7 9151   4.929   5.626   7.661  0.3078  0.2299  0.2286
   91CHL1   H7A 9152   4.909   5.520   7.688 -1.2674 -0.5431 -3.4190
   91CHL1   H7B 9153   5.037   5.642   7.682  0.1841  2.0215 -0.4190
   91CHL1    C8 9154   4.857   5.711   7.772  0.4981 -0.9374 -0.2378
   91CHL1    H8 9155   4.747   5.695   7.775 -0.1518  2.4559 -1.5134
   91CHL1   C14 9156   4.913   5.687   7.910 -0.4110 -0.2442 -0.0601
   91CHL1   H14 9157   5.021   5.709   7.902  0.2514 -3.3930 -1.2087
   91CHL1   C15 9158   4.928   5.545   7.951  0.0353 -0.0272  0.1019
   91CHL1  H15A 9159   4.834   5.489   7.939 -1.5801  1.8392  2.8158
   91CHL1  H15B 9160   5.011   5.493   7.899  1.2380  2.2211 -0.3468
   91CHL1   C16 9161   4.949   5.553   8.100 -0.8385  0.1698 -0.6488
   91CHL1  H16A 9162   4.858   5.505   8.141 -1.8558  2.6615  0.2176
   91CHL1  H16B 9163   5.039   5.499   8.137 -0.2702 -0.4756 -2.8006
   91CHL1   C17 9164   4.934   5.704   8.142 -0.4945 -0.1005 -0.1642
   91CHL1   H17 9165   5.040   5.737   8.133 -0.1504 -0.8240  0.9972
   91CHL1   C13 9166   4.851   5.767   8.030 -0.2505  0.1249 -0.3517
   91CHL1   C18 9167   4.698   5.725   8.046 -0.2323 -0.3212 -0.3636
   91CHL1  H18A 9168   4.645   5.768   7.959  0.0672 -0.8341 -0.8001
   91CHL1  H18B 9169   4.677   5.616   8.052  0.3773 -0.4919 -1.2382
   91CHL1  H18C 9170   4.663   5.787   8.132 -0.9935 -1.2968  0.0375
   91CHL1   C12 9171   4.862   5.917   7.992 -0.2362  0.7855  0.3308
   91CHL1  H12A 9172   4.783   5.962   8.057 -2.1468 -0.1707 -1.2222
   91CHL1  H12B 9173   4.966   5.952   8.008  0.9558 -1.7105 -1.3926
   91CHL1   C11 9174   4.823   5.952   7.848  0.7007 -0.4036 -0.6640
   91CHL1  H11A 9175   4.714   5.935   7.850  0.6836 -0.2608 -0.1906
   91CHL1  H11B 9176   4.853   6.058   7.834  0.0401 -0.0930  0.1613
   91CHL1    C9 9177   4.871   5.854   7.737  0.2560 -0.6866  0.7039
   91CHL1    H9 9178   4.981   5.865   7.735  0.3911 -1.9064 -1.7294
   91CHL1   C10 9179   4.819   5.890   7.591 -0.0147  0.0472  0.1366
   91CHL1   C19 9180   4.660   5.900   7.602  0.4291 -0.0520 -0.3222
   91CHL1  H19A 9181   4.620   5.943   7.508 -0.8268  0.3886  0.3933
   91CHL1  H19B 9182   4.617   5.800   7.624 -0.5430  0.0600 -1.6204
   91CHL1  H19C 9183   4.625   5.966   7.684 -0.0240  0.4604 -0.9233
   91CHL1    C1 9184   4.869   6.035   7.535 -0.4398 -0.7080 -0.4272
   91CHL1   H1A 9185   4.839   6.115   7.606 -0.0866 -1.6914  0.8890
   91CHL1   H1B 9186   4.978   6.035   7.558 -0.1158  0.3229 -1.8344
   91CHL1    C2 9187   4.834   6.063   7.396  0.0148 -0.3153  0.5944
   91CHL1   H2A 9188   4.882   6.162   7.378 -3.3174  1.5507  1.0996
   91CHL1   H2B 9189   4.727   6.080   7.372 -0.1567 -0.5536  1.1802
   91CHL1   C20 9190   4.885   5.733   8.282  0.5681  0.0072 -0.5617
   91CHL1   H20 9191   4.775   5.745   8.279  0.5982  1.6606  1.6634
   91CHL1   C21 9192   4.931   5.871   8.325  0.7363 -0.1006 -0.6841
   91CHL1  H21A 9193   4.917   5.962   8.263  2.8594  1.4687  0.9956
   91CHL1  H21B 9194   5.041   5.862   8.335  0.6536  0.0990  0.5116
   91CHL1  H21C 9195   4.899   5.896   8.429  1.7994 -0.1157 -0.3461
   91CHL1   C22 9196   4.928   5.627   8.387  0.0776  0.2804 -0.0304
   91CHL1  H22A 9197   4.911   5.524   8.350 -0.3472 -1.0104  3.4026
   91CHL1  H22B 9198   5.036   5.638   8.408 -0.0106 -0.6686  1.0611
   91CHL1   C23 9199   4.866   5.636   8.524  0.2366  0.2979 -0.1522
   91CHL1  H23A 9200   4.904   5.559   8.595 -1.9075 -1.0003 -0.3189
   91CHL1  H23B 9201   4.907   5.732   8.563  3.5091 -1.4419  1.0188
   91CHL1   C24 9202   4.705   5.632   8.521 -0.6450 -0.2322 -0.0588
   91CHL1  H24A 9203   4.671   5.710   8.449  0.8106 -0.4037 -0.9838
   91CHL1  H24B 9204   4.673   5.539   8.470 -0.6340  1.4037 -3.3269
   91CHL1   C25 9205   4.632   5.668   8.652 -0.1390  0.0957 -0.4659
   91CHL1   H25 9206   4.687   5.757   8.690  1.6250 -1.1918  0.1471
   91CHL1   C26 9207   4.486   5.691   8.623  0.2839 -0.5671  0.3332
   91CHL1  H26A 9208   4.435   5.733   8.712 -0.5289 -0.6642 -0.0810
   91CHL1  H26B 9209   4.480   5.766   8.541 -2.6651 -2.2046 -1.1250
   91CHL1  H26C 9210   4.437   5.603   8.578  0.4361 -0.8386  0.6922
   91CHL1   C27 9211   4.649   5.561   8.757 -0.1642  0.3831 -0.6735
   91CHL1  H27A 9212   4.621   5.461   8.717  0.6180 -0.8491  1.6746
   91CHL1  H27B 9213   4.756   5.551   8.788 -0.7154  1.4492  1.8599
   91CHL1  H27C 9214   4.589   5.574   8.850  0.8020 -1.0746  0.1990
   92CHL1    C3 9215   0.225   1.554   6.794 -0.3148 -0.4105  0.5728
   92CHL1    H3 9216   0.125   1.540   6.840 -1.6969 -0.7061 -2.2987
   92CHL1    O3 9217   0.222   1.496   6.666  0.4812 -0.1626  0.3389
   92CHL1   H3' 9218   0.197   1.406   6.687  0.2748 -0.0408  0.6136
   92CHL1    C4 9219   0.249   1.704   6.781 -0.2798  0.1095  0.3997
   92CHL1   H4A 9220   0.338   1.716   6.715  0.3234  0.4979  1.2527
   92CHL1   H4B 9221   0.160   1.751   6.734 -0.3645 -0.2562  0.1922
   92CHL1    C5 9222   0.272   1.771   6.911  0.4643 -0.3515 -0.3323
   92CHL1    C6 9223   0.194   1.873   6.954  0.2282  0.3351  0.1390
   92CHL1    H6 9224   0.131   1.920   6.878 -0.1085 -1.3582 -0.6668
   92CHL1    C7 9225   0.201   1.938   7.088 -0.1589 -0.4385  0.2840
   92CHL1   H7A 9226   0.200   2.049   7.093 -0.0921 -0.5005  2.9930
   92CHL1   H7B 9227   0.110   1.908   7.144 -0.8902  0.4433 -0.3893
   92CHL1    C8 9228   0.327   1.901   7.171 -0.0409  0.1979 -0.4749
   92CHL1    H8 9229   0.412   1.962   7.134 -1.2497  2.8692  0.8938
   92CHL1   C14 9230   0.314   1.934   7.315  0.4146 -0.0635 -0.4607
   92CHL1   H14 9231   0.222   1.891   7.361  0.7484  0.4093  0.6894
   92CHL1   C15 9232   0.287   2.083   7.351 -0.2258 -0.1018  0.0940
   92CHL1  H15A 9233   0.367   2.144   7.304 -1.5364  1.4651 -0.1926
   92CHL1  H15B 9234   0.183   2.105   7.319 -0.6554  0.2565  1.6366
   92CHL1   C16 9235   0.308   2.091   7.504 -0.0802 -0.1863 -0.5896
   92CHL1  H16A 9236   0.369   2.183   7.519 -2.2755  0.9986  1.7602
   92CHL1  H16B 9237   0.214   2.106   7.561 -0.9408 -3.3810 -0.9991
   92CHL1   C17 9238   0.394   1.967   7.535 -0.2896  0.3133 -0.1901
   92CHL1   H17 9239   0.323   1.896   7.584  0.9193 -0.5493  0.3566
   92CHL1   C13 9240   0.440   1.899   7.399 -0.6393 -0.3987  0.5029
   92CHL1   C18 9241   0.563   1.970   7.345 -0.0272 -0.9686 -0.1770
   92CHL1  H18A 9242   0.659   1.970   7.401  1.4289  2.0844 -2.3498
   92CHL1  H18B 9243   0.588   1.938   7.241 -1.1983 -1.8488 -0.2044
   92CHL1  H18C 9244   0.551   2.080   7.336 -2.8165 -1.3293 -2.1679
   92CHL1   C12 9245   0.463   1.748   7.396 -0.0812  0.1430  0.3072
   92CHL1  H12A 9246   0.556   1.724   7.453 -0.5428  0.8237  1.3909
   92CHL1  H12B 9247   0.378   1.695   7.444 -1.0189  0.9061 -0.4726
   92CHL1   C11 9248   0.471   1.698   7.254  0.7311 -0.5440  0.1298
   92CHL1  H11A 9249   0.567   1.730   7.208  0.4456 -0.5000 -0.4450
   92CHL1  H11B 9250   0.484   1.588   7.248  0.0937 -0.5862 -0.7545
   92CHL1    C9 9251   0.355   1.745   7.166  0.6902  0.1458  0.0089
   92CHL1    H9 9252   0.268   1.699   7.217  0.5389 -0.0013 -0.3786
   92CHL1   C10 9253   0.365   1.700   7.014  0.5934 -0.0764 -0.0741
   92CHL1   C19 9254   0.507   1.714   6.965  0.2579 -0.1221  0.5299
   92CHL1  H19A 9255   0.569   1.628   6.996  1.2071 -0.0393 -1.0626
   92CHL1  H19B 9256   0.506   1.711   6.854 -1.1849 -0.5505  0.5309
   92CHL1  H19C 9257   0.550   1.813   6.993 -1.3041  0.5012  0.8646
   92CHL1    C1 9258   0.329   1.545   7.013 -0.2448  0.3414 -0.6103
   92CHL1   H1A 9259   0.406   1.484   7.066  1.4511 -0.2165 -3.4976
   92CHL1   H1B 9260   0.241   1.512   7.073  0.8472 -0.0952  0.8156
   92CHL1    C2 9261   0.337   1.483   6.874  0.1978 -0.1753  0.0580
   92CHL1   H2A 9262   0.321   1.374   6.871  0.5756 -0.2238 -0.1986
   92CHL1   H2B 9263   0.438   1.494   6.829 -0.5781  0.9575 -1.5027
   92CHL1   C20 9264   0.500   1.993   7.643 -0.4074 -0.5863  0.3949
   92CHL1   H20 9265   0.558   2.082   7.611 -1.1590 -0.1111  0.3239
   92CHL1   C21 9266   0.603   1.885   7.667 -0.2578 -0.1156 -0.3041
   92CHL1  H21A 9267   0.658   1.894   7.763  1.5182  2.1519 -1.4446
   92CHL1  H21B 9268   0.675   1.876   7.583 -0.3569 -0.0655 -0.3943
   92CHL1  H21C 9269   0.545   1.790   7.665 -0.3079 -0.1407  1.1300
   92CHL1   C22 9270   0.437   2.046   7.776  0.1492  0.1734 -0.4839
   92CHL1  H22A 9271   0.508   2.088   7.850 -0.0599 -0.1728 -0.0873
   92CHL1  H22B 9272   0.372   2.134   7.754 -1.4185 -0.9021 -0.3617
   92CHL1   C23 9273   0.355   1.935   7.854 -0.3710 -0.0074 -0.4186
   92CHL1  H23A 9274   0.287   1.878   7.787 -0.6929  0.5486 -0.5707
   92CHL1  H23B 9275   0.426   1.861   7.897 -0.6357 -0.1930 -0.2939
   92CHL1   C24 9276   0.259   1.986   7.960 -0.5339 -0.3189 -0.1823
   92CHL1  H24A 9277   0.315   2.071   8.005  1.9424 -1.9891  0.0924
   92CHL1  H24B 9278   0.170   2.020   7.902 -1.3036  1.9763  2.1530
   92CHL1   C25 9279   0.220   1.886   8.069 -0.3751 -0.2095  0.5148
   92CHL1   H25 9280   0.305   1.860   8.135 -1.0188 -1.3004  0.9318
   92CHL1   C26 9281   0.115   1.957   8.157  0.3155 -0.3041 -0.3358
   92CHL1  H26A 9282   0.072   1.885   8.229 -1.1949 -0.4652 -1.3392
   92CHL1  H26B 9283   0.161   2.033   8.225  1.0569 -1.5443  0.5863
   92CHL1  H26C 9284   0.027   2.001   8.105  0.4562  1.2851  0.6998
   92CHL1   C27 9285   0.167   1.753   8.008  0.4140  0.1242  0.3326
   92CHL1  H27A 9286   0.253   1.711   7.952  1.5745  1.2505  1.2141
   92CHL1  H27B 9287   0.137   1.680   8.086 -0.2560  0.0871  0.0473
   92CHL1  H27C 9288   0.072   1.775   7.954  0.4920  0.9468  0.5257
   93CHL1    C3 9289   4.962   4.915   6.895  0.3867  1.1606  0.5548
   93CHL1    H3 9290   4.859   4.875   6.895  0.3866  1.0802 -1.8075
   93CHL1    O3 9291   4.989   4.960   6.762 -0.0389  0.1037 -0.1154
   93CHL1   H3' 9292   4.913   5.015   6.739  0.9909  1.2506 -0.8670
   93CHL1    C4 9293   4.972   5.044   6.982 -0.1615 -0.3578 -0.0800
   93CHL1   H4A 9294   5.065   5.100   6.955 -1.4701  1.7093 -0.5685
   93CHL1   H4B 9295   4.881   5.099   6.949  0.2077 -0.4219 -1.2613
   93CHL1    C5 9296   4.979   5.034   7.135  0.0193 -0.3670  0.4496
   93CHL1    C6 9297   4.905   5.109   7.219  0.9247  0.2720  0.2330
   93CHL1    H6 9298   4.828   5.179   7.184  0.2089  0.5335  2.2256
   93CHL1    C7 9299   4.928   5.115   7.363 -0.3879 -0.2871 -0.1271
   93CHL1   H7A 9300   4.967   5.211   7.404  1.3251 -1.2407  0.5759
   93CHL1   H7B 9301   4.841   5.080   7.423 -0.0747 -2.5956 -0.9540
   93CHL1    C8 9302   5.051   5.037   7.413 -0.5287 -0.4086  0.4265
   93CHL1    H8 9303   5.142   5.096   7.390 -0.5732  0.0995  1.4867
   93CHL1   C14 9304   5.038   5.004   7.557 -0.0487  0.5035  0.7160
   93CHL1   H14 9305   4.950   4.936   7.565  3.0143 -3.8504  1.1956
   93CHL1   C15 9306   5.024   5.118   7.663 -0.4768 -0.4430 -0.2017
   93CHL1  H15A 9307   5.074   5.215   7.640  2.4669 -1.4154  1.6009
   93CHL1  H15B 9308   4.922   5.154   7.687  0.5519  1.7133  1.3025
   93CHL1   C16 9309   5.080   5.054   7.798 -0.3581 -0.5895  0.8260
   93CHL1  H16A 9310   5.171   5.109   7.831  0.7083 -0.4663 -2.0351
   93CHL1  H16B 9311   5.006   5.065   7.880 -2.0377  1.0327 -0.8059
   93CHL1   C17 9312   5.117   4.908   7.766 -0.3058 -0.0218 -0.2300
   93CHL1   H17 9313   5.026   4.846   7.781  0.6362 -0.8188  2.8870
   93CHL1   C13 9314   5.148   4.917   7.615 -0.0258 -0.1337  0.5191
   93CHL1   C18 9315   5.282   4.988   7.598  0.2527 -0.2535 -0.2239
   93CHL1  H18A 9316   5.368   4.929   7.634 -0.9872 -0.9390  1.8055
   93CHL1  H18B 9317   5.315   5.011   7.495  0.8624  0.7093  0.1702
   93CHL1  H18C 9318   5.280   5.083   7.656 -0.4727 -0.5069  0.1857
   93CHL1   C12 9319   5.154   4.777   7.537  0.4696 -0.1484 -0.0669
   93CHL1  H12A 9320   5.239   4.723   7.584  1.2886  3.0327  2.4217
   93CHL1  H12B 9321   5.059   4.721   7.551 -0.4014  1.4891  0.8969
   93CHL1   C11 9322   5.172   4.802   7.387  0.8014 -0.3314  0.3009
   93CHL1  H11A 9323   5.272   4.843   7.363  0.5850 -0.0351 -0.0979
   93CHL1  H11B 9324   5.163   4.701   7.340  2.5689 -0.1434 -0.5299
   93CHL1    C9 9325   5.064   4.900   7.333 -0.6448  0.0959  0.3941
   93CHL1    H9 9326   4.965   4.850   7.339 -0.0873 -1.1422 -0.3367
   93CHL1   C10 9327   5.079   4.926   7.174  0.5691  0.0216  0.0140
   93CHL1   C19 9328   5.215   4.972   7.140 -0.1462  0.1468 -0.4459
   93CHL1  H19A 9329   5.285   4.886   7.133 -4.3924 -4.1761  3.1269
   93CHL1  H19B 9330   5.227   5.004   7.034 -3.0567 -0.2204 -0.9692
   93CHL1  H19C 9331   5.254   5.053   7.205  0.4889  1.1098 -1.9747
   93CHL1    C1 9332   5.047   4.793   7.098  0.7344  0.1781 -0.4733
   93CHL1   H1A 9333   5.102   4.705   7.137 -0.9803 -0.1120  1.4303
   93CHL1   H1B 9334   4.937   4.778   7.106  1.0120 -1.2876  1.2085
   93CHL1    C2 9335   5.064   4.804   6.945 -0.3297 -0.2787 -0.6978
   93CHL1   H2A 9336   5.052   4.706   6.895  0.0326  0.3950 -2.1657
   93CHL1   H2B 9337   5.165   4.843   6.921  0.8285 -1.0451  2.4980
   93CHL1   C20 9338   5.215   4.827   7.856  0.0085 -1.2105  0.0121
   93CHL1   H20 9339   5.316   4.816   7.811  0.5287  2.6983 -0.1387
   93CHL1   C21 9340   5.163   4.683   7.879  0.0965 -0.0326  0.3653
   93CHL1  H21A 9341   5.238   4.625   7.937 -0.0837 -1.4354 -0.7732
   93CHL1  H21B 9342   5.136   4.630   7.786 -0.8850  0.1984  0.5071
   93CHL1  H21C 9343   5.073   4.704   7.941  0.8648  2.1100  0.8666
   93CHL1   C22 9344   5.250   4.905   7.981  0.0335 -0.0469 -0.7752
   93CHL1  H22A 9345   5.297   4.998   7.942  0.4801 -0.7743 -2.0047
   93CHL1  H22B 9346   5.154   4.939   8.027  0.3874  2.1722 -1.5633
   93CHL1   C23 9347   5.365   4.843   8.076  0.5609  0.2087  0.7716
   93CHL1  H23A 9348   5.323   4.757   8.133  3.1021 -1.6178  0.0331
   93CHL1  H23B 9349   5.453   4.813   8.015  0.5920  1.4483  0.1831
   93CHL1   C24 9350   5.390   4.941   8.186  0.3579 -0.5145  0.6701
   93CHL1  H24A 9351   5.422   5.040   8.147 -1.1807 -0.7684 -1.4056
   93CHL1  H24B 9352   5.298   4.960   8.246  0.2616 -0.4966  0.5177
   93CHL1   C25 9353   5.498   4.900   8.286  0.5385  0.3475 -0.2084
   93CHL1   H25 9354   5.480   4.793   8.309  0.6771  0.3078 -0.2857
   93CHL1   C26 9355   5.636   4.910   8.225  0.9036 -0.0925  0.4874
   93CHL1  H26A 9356   5.651   5.016   8.194 -0.6337  0.6151  2.0350
   93CHL1  H26B 9357   5.709   4.882   8.303  0.0243  1.2503  1.8276
   93CHL1  H26C 9358   5.644   4.844   8.136 -0.2449 -0.4776  0.6454
   93CHL1   C27 9359   5.492   4.983   8.419 -0.1202 -0.0253  0.0058
   93CHL1  H27A 9360   5.541   4.926   8.502 -0.5733  1.2063  1.1590
   93CHL1  H27B 9361   5.554   5.073   8.401 -0.2518 -0.5706 -4.1771
   93CHL1  H27C 9362   5.389   4.994   8.459 -0.3580  2.2628 -1.1163
   94CHL1    C3 9363   0.733   0.176   6.869  0.1432  0.3003  0.4980
   94CHL1    H3 9364   0.782   0.094   6.927 -1.6534  0.3201  2.1459
   94CHL1    O3 9365   0.739   0.148   6.729 -0.3893  0.6070 -0.4750
   94CHL1   H3' 9366   0.675   0.208   6.690 -2.5803 -0.0497  1.8582
   94CHL1    C4 9367   0.591   0.169   6.918  0.0342  0.1959  0.4431
   94CHL1   H4A 9368   0.536   0.248   6.861 -1.6484 -0.5883  0.9035
   94CHL1   H4B 9369   0.536   0.076   6.894 -3.7049  1.4566  3.1126
   94CHL1    C5 9370   0.580   0.209   7.059 -0.0169 -0.4217  0.0590
   94CHL1    C6 9371   0.521   0.130   7.146  0.0506  0.4251 -0.4648
   94CHL1    H6 9372   0.483   0.035   7.107 -0.0422  0.2083  0.1426
   94CHL1    C7 9373   0.505   0.158   7.298  0.6642 -0.9032  0.2492
   94CHL1   H7A 9374   0.399   0.144   7.325 -0.0283 -2.7191 -2.8375
   94CHL1   H7B 9375   0.573   0.100   7.365 -0.2230 -2.1714  0.0841
   94CHL1    C8 9376   0.536   0.308   7.333  0.1881  0.6042 -0.2616
   94CHL1    H8 9377   0.440   0.360   7.313 -1.4514 -1.4058  1.8472
   94CHL1   C14 9378   0.564   0.312   7.485  0.7325  0.3355 -0.4011
   94CHL1   H14 9379   0.656   0.250   7.492  0.0226 -0.6407  0.6835
   94CHL1   C15 9380   0.466   0.255   7.591  0.2467  0.3410  0.6729
   94CHL1  H15A 9381   0.361   0.275   7.561  1.0649 -0.0881 -2.8846
   94CHL1  H15B 9382   0.483   0.146   7.602  0.7974  0.3754  0.2222
   94CHL1   C16 9383   0.496   0.330   7.717 -0.4063 -0.6141 -0.2311
   94CHL1  H16A 9384   0.403   0.382   7.747 -0.4660  0.4034 -2.0737
   94CHL1  H16B 9385   0.531   0.255   7.792  1.6563  0.9185  0.4359
   94CHL1   C17 9386   0.614   0.420   7.689 -0.3963 -0.8418  0.0251
   94CHL1   H17 9387   0.706   0.360   7.704 -0.9638 -2.0716 -1.2240
   94CHL1   C13 9388   0.595   0.451   7.542 -0.1625 -0.4642  0.3130
   94CHL1   C18 9389   0.479   0.553   7.513  0.0700 -0.4249  0.6194
   94CHL1  H18A 9390   0.454   0.549   7.405 -0.5779 -1.5172  0.7957
   94CHL1  H18B 9391   0.382   0.536   7.564 -0.5486 -0.0478 -0.4039
   94CHL1  H18C 9392   0.514   0.657   7.535  0.2081 -0.2865 -0.2193
   94CHL1   C12 9393   0.722   0.497   7.466 -0.6109 -0.4177  1.1126
   94CHL1  H12A 9394   0.751   0.602   7.490  0.7683 -0.5575  0.2033
   94CHL1  H12B 9395   0.814   0.443   7.497 -0.1290 -1.6509 -2.0565
   94CHL1   C11 9396   0.711   0.489   7.313 -0.2894 -0.5104 -0.1027
   94CHL1  H11A 9397   0.625   0.557   7.291 -1.1760 -1.5025  0.2314
   94CHL1  H11B 9398   0.803   0.523   7.261 -0.0367 -0.8930  0.1013
   94CHL1    C9 9399   0.662   0.354   7.255  0.0430 -0.6613  0.2034
   94CHL1    H9 9400   0.743   0.282   7.277 -0.0123 -1.4488 -1.9207
   94CHL1   C10 9401   0.652   0.347   7.103  0.6987  0.2139  0.6641
   94CHL1   C19 9402   0.563   0.462   7.056  0.3410 -0.4980  0.1329
   94CHL1  H19A 9403   0.460   0.445   7.094  1.3900 -2.9669  2.1802
   94CHL1  H19B 9404   0.604   0.556   7.098  0.3567 -1.4065  2.2656
   94CHL1  H19C 9405   0.574   0.481   6.947 -1.7980 -1.3203 -0.2794
   94CHL1    C1 9406   0.788   0.360   7.035  0.1822  0.3080 -0.0999
   94CHL1   H1A 9407   0.813   0.467   7.050 -2.1268  0.7838  0.8884
   94CHL1   H1B 9408   0.864   0.306   7.095  2.5411  2.3782 -1.0796
   94CHL1    C2 9409   0.796   0.313   6.889 -0.0609  0.1465  0.3568
   94CHL1   H2A 9410   0.899   0.305   6.848 -0.0946  1.4352 -0.0279
   94CHL1   H2B 9411   0.742   0.386   6.826  2.1004  0.8274 -0.8031
   94CHL1   C20 9412   0.615   0.538   7.777  1.2466 -0.1629 -0.3926
   94CHL1   H20 9413   0.526   0.604   7.767 -0.5252 -2.1123  1.5054
   94CHL1   C21 9414   0.731   0.635   7.756  0.2134  0.1886  0.1694
   94CHL1  H21A 9415   0.754   0.697   7.846 -1.7447 -1.0235  1.5900
   94CHL1  H21B 9416   0.705   0.706   7.675 -1.4841 -1.2602 -0.6268
   94CHL1  H21C 9417   0.820   0.578   7.725  0.0921 -0.2114  0.5488
   94CHL1   C22 9418   0.614   0.488   7.923 -0.0040 -1.8302  0.0468
   94CHL1  H22A 9419   0.554   0.396   7.940  0.0932 -1.9771 -0.3953
   94CHL1  H22B 9420   0.719   0.462   7.947  1.1407  0.0046 -2.4324
   94CHL1   C23 9421   0.558   0.604   8.018  0.7082 -0.0103  0.0297
   94CHL1  H23A 9422   0.604   0.705   8.018  0.6668  0.0332  1.3290
   94CHL1  H23B 9423   0.449   0.616   8.001  0.4405  2.9660  2.8622
   94CHL1   C24 9424   0.572   0.561   8.166  0.6650  0.3822  0.8081
   94CHL1  H24A 9425   0.545   0.453   8.173  2.1117 -0.4168 -3.3051
   94CHL1  H24B 9426   0.678   0.569   8.196  1.3053  0.8681 -1.4579
   94CHL1   C25 9427   0.495   0.646   8.276 -0.2213 -0.3436 -0.0158
   94CHL1   H25 9428   0.531   0.752   8.277 -1.0378 -0.0536 -0.4896
   94CHL1   C26 9429   0.337   0.650   8.258 -0.0484  0.1956  0.4978
   94CHL1  H26A 9430   0.287   0.715   8.333 -2.5417 -0.5938 -0.3787
   94CHL1  H26B 9431   0.302   0.675   8.156  1.0151  2.2174  0.5855
   94CHL1  H26C 9432   0.300   0.548   8.282 -0.4496  0.3723  0.6291
   94CHL1   C27 9433   0.529   0.603   8.418 -0.1278  0.1531 -0.3094
   94CHL1  H27A 9434   0.476   0.675   8.483  2.4115  0.4694  1.5592
   94CHL1  H27B 9435   0.499   0.497   8.429 -0.2492  0.2357  0.1597
   94CHL1  H27C 9436   0.635   0.610   8.451 -0.7322  0.5272  1.6585
   95CHL1    C3 9437   2.107   0.224   6.521 -0.6533  0.8531  0.3048
   95CHL1    H3 9438   2.218   0.231   6.532 -0.2570 -1.8896 -0.9265
   95CHL1    O3 9439   2.068   0.218   6.381 -0.1626 -0.2406 -0.1757
   95CHL1   H3' 9440   1.983   0.260   6.370  0.4628  1.3718  0.7686
   95CHL1    C4 9441   2.066   0.100   6.590  0.0700  0.2790 -0.5468
   95CHL1   H4A 9442   1.962   0.072   6.562  0.0008 -2.0932  1.7335
   95CHL1   H4B 9443   2.126   0.014   6.555  1.5756  0.6794  0.9095
   95CHL1    C5 9444   2.077   0.108   6.742  0.0659  0.2598 -0.5331
   95CHL1    C6 9445   2.145   0.022   6.815  0.2592 -0.3954 -0.6497
   95CHL1    H6 9446   2.209  -0.057   6.772  0.7105 -1.4977  1.8719
   95CHL1    C7 9447   2.140   0.021   6.961 -0.5737  0.9435 -0.2800
   95CHL1   H7A 9448   2.147  -0.079   7.009 -2.4278  0.2831 -1.3013
   95CHL1   H7B 9449   2.234   0.066   7.002  0.4978 -0.3937 -1.2143
   95CHL1    C8 9450   2.029   0.104   7.028 -0.0351 -0.2980  0.5872
   95CHL1    H8 9451   1.931   0.053   7.010 -1.0391  1.3285  1.2791
   95CHL1   C14 9452   2.054   0.132   7.176 -0.1969  0.2920  0.2008
   95CHL1   H14 9453   2.143   0.198   7.175 -2.3005  3.3494 -0.3200
   95CHL1   C15 9454   2.093   0.016   7.268 -0.3450 -0.0605 -0.1121
   95CHL1  H15A 9455   2.022  -0.068   7.254 -0.2623 -0.1755  0.1585
   95CHL1  H15B 9456   2.199  -0.016   7.253 -0.7301 -1.4830  0.0585
   95CHL1   C16 9457   2.079   0.086   7.408  0.1490  0.3191 -0.0139
   95CHL1  H16A 9458   2.041   0.005   7.474  0.0881  0.0783 -0.3428
   95CHL1  H16B 9459   2.182   0.119   7.432  0.2595 -0.0174 -0.0155
   95CHL1   C17 9460   1.989   0.209   7.389  0.0195 -0.3405  0.8393
   95CHL1   H17 9461   2.067   0.288   7.392 -0.4356  0.0834  1.9333
   95CHL1   C13 9462   1.937   0.211   7.245 -0.5380 -1.0349 -0.5540
   95CHL1   C18 9463   1.803   0.132   7.230  0.9525 -0.1283  0.2836
   95CHL1  H18A 9464   1.802   0.029   7.273  0.2218 -0.6715 -0.9907
   95CHL1  H18B 9465   1.719   0.183   7.283 -0.4597  1.6663 -3.3084
   95CHL1  H18C 9466   1.770   0.127   7.124  3.1420  2.2972 -0.6227
   95CHL1   C12 9467   1.940   0.352   7.172 -0.5266  0.9123  0.3461
   95CHL1  H12A 9468   1.863   0.413   7.225 -1.0662 -0.3456  1.0385
   95CHL1  H12B 9469   2.038   0.396   7.200  0.3978 -1.1151  0.4091
   95CHL1   C11 9470   1.923   0.338   7.015 -0.0777 -0.0381  0.4341
   95CHL1  H11A 9471   1.818   0.304   6.998 -0.2007  0.4980  0.0809
   95CHL1  H11B 9472   1.925   0.440   6.971 -0.6149 -1.1515 -2.4217
   95CHL1    C9 9473   2.024   0.236   6.947 -0.2006  0.3264  0.1062
   95CHL1    H9 9474   2.123   0.285   6.960  0.6956 -1.1825 -0.8135
   95CHL1   C10 9475   1.998   0.229   6.796 -0.5431 -0.4704 -0.4310
   95CHL1   C19 9476   1.851   0.211   6.773 -0.3245 -0.2804  0.9848
   95CHL1  H19A 9477   1.797   0.146   6.845  3.1235 -2.0409  2.2152
   95CHL1  H19B 9478   1.801   0.310   6.764  0.1456 -0.1080  0.1330
   95CHL1  H19C 9479   1.837   0.160   6.676  1.8534  1.1630 -0.1611
   95CHL1    C1 9480   2.044   0.351   6.725 -0.0929 -0.7673 -0.5212
   95CHL1   H1A 9481   1.994   0.441   6.767 -0.4035 -1.7251  1.2507
   95CHL1   H1B 9482   2.151   0.374   6.748 -0.3559  0.2251 -0.2281
   95CHL1    C2 9483   2.035   0.345   6.577  0.4303 -0.1291  0.2181
   95CHL1   H2A 9484   2.067   0.434   6.520 -0.9595  0.3114  0.0805
   95CHL1   H2B 9485   1.928   0.324   6.557  1.3364 -1.4154 -4.2884
   95CHL1   C20 9486   1.893   0.235   7.498 -0.1787 -0.0405 -1.0653
   95CHL1   H20 9487   1.804   0.168   7.490 -0.2451 -0.7838  3.3143
   95CHL1   C21 9488   1.853   0.391   7.490  0.1567  0.1323  0.2323
   95CHL1  H21A 9489   1.950   0.445   7.486 -0.1153  0.9331  2.6797
   95CHL1  H21B 9490   1.802   0.427   7.582  1.2286 -0.1696  0.9581
   95CHL1  H21C 9491   1.788   0.416   7.403 -1.2599 -2.7919  0.3220
   95CHL1   C22 9492   1.958   0.199   7.641 -0.6754  0.4060  0.3550
   95CHL1  H22A 9493   1.963   0.089   7.650  1.7985  0.4992  0.6070
   95CHL1  H22B 9494   2.060   0.242   7.647  0.7581 -2.9063  1.8210
   95CHL1   C23 9495   1.876   0.238   7.767 -0.7155  0.0952  0.4181
   95CHL1  H23A 9496   1.895   0.344   7.793 -0.5730  0.0122  0.6504
   95CHL1  H23B 9497   1.766   0.220   7.759 -0.7059 -1.1668  2.4576
   95CHL1   C24 9498   1.916   0.158   7.894  0.8176 -0.9446 -0.5494
   95CHL1  H24A 9499   1.917   0.047   7.888 -3.8658 -1.2553  0.8818
   95CHL1  H24B 9500   2.016   0.189   7.933  0.7311 -1.5987  0.2386
   95CHL1   C25 9501   1.825   0.183   8.012 -0.1666 -0.0963 -1.1940
   95CHL1   H25 9502   1.717   0.177   7.987 -0.8792  0.8664  1.3042
   95CHL1   C26 9503   1.847   0.084   8.127  0.4858 -0.1579  0.2412
   95CHL1  H26A 9504   1.928   0.122   8.193 -0.9639  0.9672  1.4706
   95CHL1  H26B 9505   1.768   0.076   8.205 -0.9678 -0.1878 -1.1758
   95CHL1  H26C 9506   1.873  -0.016   8.088  1.2179 -1.2291  3.1679
   95CHL1   C27 9507   1.832   0.330   8.055 -0.5290  0.2122 -0.0072
   95CHL1  H27A 9508   1.773   0.352   8.146  2.3980  0.3459  2.0254
   95CHL1  H27B 9509   1.933   0.359   8.093 -0.4963 -0.5187  0.4808
   95CHL1  H27C 9510   1.815   0.399   7.969 -0.8989 -0.9041 -0.8493
   96CHL1    C3 9511   1.760   5.550   6.615  0.1134  0.6522  0.0549
   96CHL1    H3 9512   1.741   5.441   6.610 -3.2157  1.1566 -0.1108
   96CHL1    O3 9513   1.798   5.609   6.490  0.1197 -0.0032  0.7156
   96CHL1   H3' 9514   1.819   5.703   6.496  0.4058  0.1135 -1.2478
   96CHL1    C4 9515   1.628   5.612   6.664  1.2172  0.4124  0.5692
   96CHL1   H4A 9516   1.643   5.722   6.666  0.1666  0.6552 -1.7352
   96CHL1   H4B 9517   1.549   5.593   6.588 -0.2435  2.2508  1.5561
   96CHL1    C5 9518   1.596   5.552   6.802  0.2027  0.2256  0.7164
   96CHL1    C6 9519   1.476   5.484   6.815 -0.2581 -1.1664  0.0533
   96CHL1    H6 9520   1.404   5.489   6.732 -1.0191  1.2013  0.7714
   96CHL1    C7 9521   1.439   5.420   6.942  0.4566  0.2010 -0.5231
   96CHL1   H7A 9522   1.332   5.440   6.965  0.1428 -0.3570 -1.4679
   96CHL1   H7B 9523   1.449   5.310   6.957 -1.1551  0.2298  1.1439
   96CHL1    C8 9524   1.512   5.478   7.067 -0.2956  0.5359 -0.3378
   96CHL1    H8 9525   1.478   5.579   7.096  2.7840  1.0135  2.1633
   96CHL1   C14 9526   1.487   5.387   7.193 -0.5005  0.5854 -0.0753
   96CHL1   H14 9527   1.517   5.283   7.167 -2.1068 -0.0751  0.5624
   96CHL1   C15 9528   1.345   5.361   7.236  0.2655 -0.4270  0.4391
   96CHL1  H15A 9529   1.285   5.454   7.233  2.0446  0.8268  1.3796
   96CHL1  H15B 9530   1.304   5.286   7.166  2.2516 -0.4856 -0.7498
   96CHL1   C16 9531   1.349   5.316   7.383 -0.0221  0.1212  0.4341
   96CHL1  H16A 9532   1.281   5.380   7.443  0.0751  0.6244  0.0050
   96CHL1  H16B 9533   1.326   5.207   7.387  0.7825 -0.0935 -0.4186
   96CHL1   C17 9534   1.504   5.312   7.416 -0.1504  0.0568  1.1582
   96CHL1   H17 9535   1.553   5.214   7.398  1.9709  0.6958  2.9401
   96CHL1   C13 9536   1.569   5.420   7.321 -0.4483  0.0469  1.0699
   96CHL1   C18 9537   1.533   5.559   7.376 -0.6487 -0.0858  0.0591
   96CHL1  H18A 9538   1.424   5.567   7.397 -0.5859 -0.6994  0.6017
   96CHL1  H18B 9539   1.594   5.588   7.464 -1.3582  0.6575  0.3235
   96CHL1  H18C 9540   1.551   5.640   7.301 -0.2759  1.6277  1.9094
   96CHL1   C12 9541   1.718   5.416   7.269  0.0172 -0.0955  0.4311
   96CHL1  H12A 9542   1.771   5.438   7.365 -0.3037  3.7996 -0.1220
   96CHL1  H12B 9543   1.743   5.313   7.238  0.2142  0.2112 -0.4601
   96CHL1   C11 9544   1.753   5.516   7.163  0.2880 -0.6923  0.0117
   96CHL1  H11A 9545   1.739   5.617   7.208 -0.4026 -0.7223 -0.1231
   96CHL1  H11B 9546   1.863   5.520   7.148  0.6982 -2.8314  1.9335
   96CHL1    C9 9547   1.669   5.484   7.035  0.5904  0.0358  0.9470
   96CHL1    H9 9548   1.696   5.378   7.017  0.4481  0.4298 -2.0559
   96CHL1   C10 9549   1.704   5.568   6.912  0.4845  0.5177 -0.3077
   96CHL1   C19 9550   1.702   5.723   6.940 -0.5303  0.2522 -0.3269
   96CHL1  H19A 9551   1.789   5.736   7.008 -1.2991 -0.2237  0.7734
   96CHL1  H19B 9552   1.708   5.781   6.845 -0.0455 -1.4334 -1.3653
   96CHL1  H19C 9553   1.616   5.761   6.998 -0.8859 -1.7629  0.5487
   96CHL1    C1 9554   1.842   5.517   6.855 -1.0746 -0.6314 -0.4879
   96CHL1   H1A 9555   1.928   5.530   6.923 -0.6851  0.1594 -1.1035
   96CHL1   H1B 9556   1.835   5.407   6.845 -1.0467 -0.8648  1.6474
   96CHL1    C2 9557   1.873   5.573   6.717  0.5542 -0.2580  0.4845
   96CHL1   H2A 9558   1.969   5.528   6.683  0.2556 -1.0037  0.6180
   96CHL1   H2B 9559   1.891   5.682   6.726 -0.6535 -0.0085  0.0729
   96CHL1   C20 9560   1.539   5.335   7.566 -0.9899  0.2835  0.1601
   96CHL1   H20 9561   1.510   5.437   7.598 -1.3820 -0.1433  1.2283
   96CHL1   C21 9562   1.689   5.327   7.605  0.1287 -0.1935  0.2564
   96CHL1  H21A 9563   1.739   5.414   7.557  1.0380 -0.5038  0.6152
   96CHL1  H21B 9564   1.730   5.239   7.550 -0.1174 -0.0560 -0.1517
   96CHL1  H21C 9565   1.713   5.314   7.712  0.0240  0.0454  0.3091
   96CHL1   C22 9566   1.460   5.236   7.655 -0.5485 -0.0301 -0.7798
   96CHL1  H22A 9567   1.358   5.281   7.657 -0.7047 -0.3737  0.9375
   96CHL1  H22B 9568   1.459   5.133   7.615  0.7698 -0.3274 -0.0791
   96CHL1   C23 9569   1.508   5.229   7.802  0.1146 -0.3436  0.5602
   96CHL1  H23A 9570   1.609   5.186   7.816  0.2290  0.2921  1.8417
   96CHL1  H23B 9571   1.501   5.329   7.849 -0.1687 -0.8377  1.6090
   96CHL1   C24 9572   1.419   5.128   7.872 -0.2546  0.1690  0.6126
   96CHL1  H24A 9573   1.309   5.140   7.856 -0.2236  2.2730  1.5998
   96CHL1  H24B 9574   1.443   5.037   7.813 -1.3407 -0.1809  0.6829
   96CHL1   C25 9575   1.438   5.098   8.015 -0.8696 -0.3281 -0.3896
   96CHL1   H25 9576   1.546   5.081   8.033 -0.6474  0.1191 -1.2709
   96CHL1   C26 9577   1.392   5.213   8.108 -0.3900  1.0058 -0.0828
   96CHL1  H26A 9578   1.426   5.304   8.054 -0.0637  0.4936 -0.7484
   96CHL1  H26B 9579   1.284   5.220   8.131 -0.1478  0.0025  1.4781
   96CHL1  H26C 9580   1.452   5.191   8.199 -0.5250  0.0218 -0.2211
   96CHL1   C27 9581   1.374   4.971   8.063 -0.7089 -0.4773  0.0022
   96CHL1  H27A 9582   1.400   4.884   7.999  0.5810  0.1790 -0.3947
   96CHL1  H27B 9583   1.373   4.954   8.172 -3.8090  1.9316  0.5149
   96CHL1  H27C 9584   1.266   4.988   8.042 -0.5394  1.0610  0.2984
   97OSM      N 9585   5.861   0.052  10.703 -0.0462 -0.2309 -0.2888
   97OSM    C15 9586   5.824   0.057  10.557  0.4714  0.2813 -0.3751
   97OSM   H15A 9587   5.904   0.112  10.509  0.0372  2.8702  1.6765
   97OSM   H15B 9588   5.746   0.128  10.533  0.3002  0.6264  1.1269
   97OSM   H15C 9589   5.813  -0.039  10.508  0.8724 -0.1524  0.3617
   97OSM    C14 9590   5.971  -0.041  10.715 -0.0361 -0.1964 -0.3294
   97OSM   H14A 9591   5.938  -0.136  10.674 -1.0876  0.2679 -0.5816
   97OSM   H14B 9592   6.012  -0.055  10.814  1.0013  1.2123 -0.5241
   97OSM   H14C 9593   6.052  -0.000  10.656  0.8266  1.1939  1.7070
   97OSM    C13 9594   5.892   0.190  10.749 -0.2644  0.3408  0.6779
   97OSM   H13A 9595   5.924   0.189  10.852 -1.9183 -0.3653  1.2207
   97OSM   H13B 9596   5.799   0.244  10.737  0.5321  1.6395  0.0123
   97OSM   H13C 9597   5.960   0.244  10.685 -1.0880  0.0934 -0.4309
   97OSM    C12 9598   5.741   0.003  10.776  0.1239 -0.1876 -0.0825
   97OSM   H12A 9599   5.767  -0.016  10.879  0.8956 -0.7111 -0.3641
   97OSM   H12B 9600   5.723  -0.099  10.745  3.5508 -1.1041  0.5888
   97OSM    C11 9601   5.609   0.090  10.766 -0.1610 -0.2576 -0.6719
   97OSM   H11A 9602   5.528   0.018  10.791 -0.3275  0.3999  0.7621
   97OSM   H11B 9603   5.583   0.129  10.665 -0.1698  2.2748  0.2323
   97OSM      P 9604   5.463   0.268  10.884 -0.0893  0.3588 -0.6360
   97OSM    O13 9605   5.386   0.170  10.958 -0.1733  0.3524 -0.1734
   97OSM    O14 9606   5.486   0.390  10.957  1.0813 -0.0510 -0.3833
   97OSM    O11 9607   5.400   0.294  10.743 -0.6702 -0.1146 -0.1540
   97OSM    O12 9608   5.611   0.209  10.844 -0.0623 -0.0021  0.0332
   97OSM    C1S 9609   5.455   0.390  10.650 -0.2305  0.3457 -1.0571
   97OSM    H1S 9610   5.563   0.394  10.673 -0.6434 -0.4494  1.3549
   97OSM    H1T 9611   5.403   0.486  10.667  0.3086  0.3711  0.6184
   97OSM     NF 9612   5.522   0.431  10.416  0.1495  0.5650 -0.7960
   97OSM    HNF 9613   5.473   0.505  10.372 -2.2242 -0.0128  0.7007
   97OSM    C2S 9614   5.438   0.356  10.501  0.1101  0.6591 -0.5577
   97OSM    H2S 9615   5.459   0.250  10.475 -0.5421  0.7707 -1.5947
   97OSM    C3S 9616   5.281   0.377  10.471 -0.2290 -0.1329  0.1841
   97OSM    H3S 9617   5.256   0.483  10.491  1.0640  0.3963 -0.8682
   97OSM     O3 9618   5.203   0.307  10.569  0.2299 -0.2359  0.3021
   97OSM    HO3 9619   5.273   0.272  10.624  2.1140 -0.7845 -2.2675
   97OSM    C4S 9620   5.237   0.346  10.325 -0.7679 -0.0024  0.0401
   97OSM    H4S 9621   5.250   0.426  10.251 -1.8052  1.1880  1.0966
   97OSM    C5S 9622   5.188   0.225  10.287  0.4234  0.7078  0.0959
   97OSM    H5S 9623   5.187   0.140  10.356  2.1718 -1.4854 -2.3469
   97OSM    C6S 9624   5.128   0.196  10.148  0.3646  0.3443  0.0820
   97OSM    H6S 9625   5.018   0.211  10.153  0.3376  1.1180 -1.9191
   97OSM    H6T 9626   5.152   0.092  10.118 -1.5157  0.2355 -1.2576
   97OSM    C7S 9627   5.159   0.301  10.035  0.0900 -0.5526  0.2661
   97OSM    H7S 9628   5.265   0.290  10.005  0.6337  0.9315  1.5246
   97OSM    H7T 9629   5.136   0.404  10.071  1.4927  0.6848 -2.1355
   97OSM    C8S 9630   5.068   0.273   9.914  0.1009  0.3989  0.4426
   97OSM    H8S 9631   4.965   0.274   9.956  0.2953  0.3486  0.9200
   97OSM    H8T 9632   5.101   0.176   9.872  0.9991  1.1773 -0.7426
   97OSM    C9S 9633   5.061   0.377   9.801  0.1455 -0.4629  0.1742
   97OSM    H9S 9634   5.147   0.361   9.733  1.1860 -1.9331  1.7521
   97OSM    H9T 9635   5.067   0.482   9.837 -0.5478  0.7920 -3.0410
   97OSM   C10S 9636   4.943   0.354   9.701  0.0135 -0.4012  0.0537
   97OSM   H10S 9637   4.845   0.375   9.747 -0.2080 -3.6620  1.3850
   97OSM   H10T 9638   4.952   0.250   9.660  0.7755  0.0616 -1.0126
   97OSM   C11S 9639   4.952   0.443   9.574 -0.2231  0.1031  1.2238
   97OSM   H11S 9640   5.045   0.415   9.519  0.1054 -0.9395  2.2505
   97OSM   H11T 9641   4.960   0.548   9.611  3.0584  0.1664  0.6843
   97OSM   C12S 9642   4.830   0.413   9.494  0.4129 -0.1901 -0.4356
   97OSM   H12S 9643   4.782   0.511   9.473  1.2985  0.4278  0.3521
   97OSM   H12T 9644   4.748   0.350   9.535  1.4021 -2.3689 -1.6431
   97OSM   C13S 9645   4.860   0.341   9.357  0.2785 -0.1390 -0.0051
   97OSM   H13S 9646   4.916   0.247   9.377  0.2871 -0.0054  0.6212
   97OSM   H13T 9647   4.923   0.411   9.298 -0.9623 -0.1902 -1.4638
   97OSM   C14S 9648   4.737   0.291   9.269 -0.0936  0.4761  0.0490
   97OSM   H14S 9649   4.672   0.376   9.240 -2.6389 -1.6608 -1.0480
   97OSM   H14T 9650   4.686   0.215   9.333  0.0007  0.9147  0.6499
   97OSM   C15S 9651   4.774   0.225   9.142  0.2861  0.0448  0.0307
   97OSM   H15S 9652   4.850   0.278   9.081 -0.5920  0.3823 -0.7836
   97OSM   H15T 9653   4.684   0.223   9.078 -1.5142 -0.9723  2.4609
   97OSM   C16S 9654   4.817   0.075   9.161  0.5733  0.5471  0.3656
   97OSM   H16S 9655   4.735   0.042   9.228 -1.0754  1.6415 -1.0272
   97OSM   H16T 9656   4.910   0.062   9.220  1.9940 -1.0595 -2.0439
   97OSM   C17S 9657   4.833  -0.001   9.027  0.2546  0.5068 -0.3755
   97OSM   H17S 9658   4.906   0.050   8.960 -0.0052  0.7921 -0.4434
   97OSM   H17T 9659   4.740   0.003   8.967 -0.5420  1.2491  0.8736
   97OSM   C18S 9660   4.869  -0.149   9.057  0.0451  0.0513 -0.4320
   97OSM   H18S 9661   4.968  -0.155   9.106  0.5600 -1.6777 -1.6079
   97OSM   H18T 9662   4.868  -0.206   8.962  0.0183 -1.2767  0.3530
   97OSM   H18U 9663   4.789  -0.194   9.119  0.8482 -1.1673 -0.2523
   97OSM    C1F 9664   5.647   0.401  10.391  0.7136 -0.8464 -0.7815
   97OSM     OF 9665   5.704   0.309  10.454  0.5561 -0.9276 -0.0342
   97OSM    C2F 9666   5.711   0.472  10.276 -0.2022  0.7094 -0.4761
   97OSM    H2F 9667   5.691   0.581  10.284 -1.7277  0.5280 -1.4224
   97OSM    H2G 9668   5.672   0.431  10.180  0.7980  1.2835 -1.1428
   97OSM    C3F 9669   5.867   0.449  10.275 -1.4157 -0.2334 -0.0685
   97OSM    H3F 9670   5.901   0.343  10.277 -1.8382 -0.3865 -0.7391
   97OSM    H3G 9671   5.903   0.500  10.367 -0.7014  1.4349 -1.2322
   97OSM    C4F 9672   5.929   0.502  10.147 -0.6016  0.0723 -0.2351
   97OSM    H4F 9673   6.040   0.511  10.144 -0.6973  1.5391 -0.0368
   97OSM    H4G 9674   5.894   0.608  10.144  0.5086  0.4423 -0.6916
   97OSM    C5F 9675   5.900   0.412  10.022  0.2527 -0.2302 -0.3061
   97OSM    H5F 9676   5.795   0.378  10.022  0.7470 -1.8155 -0.4559
   97OSM    H5G 9677   5.959   0.318  10.024  0.5271 -0.0526  0.3540
   97OSM    C6F 9678   5.937   0.488   9.892  0.5874 -0.0229  0.2308
   97OSM    H6F 9679   6.020   0.559   9.913  0.0115  0.8625 -0.3994
   97OSM    H6G 9680   5.847   0.549   9.867  0.5585  0.0732  0.5674
   97OSM    C7F 9681   5.953   0.386   9.775  0.1621  0.1483 -0.8128
   97OSM    H7F 9682   5.861   0.324   9.776  0.3606 -0.2434 -2.8434
   97OSM    H7G 9683   6.036   0.316   9.796  0.7093  0.3043 -2.3191
   97OSM    C8F 9684   5.958   0.440   9.626 -0.6678 -0.2935 -0.3027
   97OSM    H8F 9685   5.854   0.467   9.598 -0.5449  0.5106 -0.0016
   97OSM    H8G 9686   5.998   0.353   9.570 -1.2448 -1.2885  0.7936
   97OSM    C9F 9687   6.065   0.545   9.592  0.5097 -0.8299 -0.7095
   97OSM    H9F 9688   6.168   0.519   9.618  0.3033 -1.4913 -0.5152
   97OSM   C10F 9689   6.039   0.668   9.549 -0.1986 -0.5662 -0.4662
   97OSM   H10F 9690   6.120   0.738   9.526 -0.1093  0.3576  2.3355
   97OSM   C11F 9691   5.907   0.729   9.517  0.9268  0.3448 -0.3497
   97OSM   H11F 9692   5.828   0.651   9.514  1.4769 -0.2149 -0.3434
   97OSM   H11G 9693   5.901   0.761   9.410 -0.8037 -0.6245 -0.5781
   97OSM   C12F 9694   5.866   0.843   9.607 -0.1200 -0.3029  0.3494
   97OSM   H12F 9695   5.758   0.855   9.586  0.0143  1.5927  0.5399
   97OSM   H12G 9696   5.911   0.935   9.562  0.1137 -1.4421 -1.9141
   97OSM   C13F 9697   5.885   0.829   9.758 -0.4887 -0.6864  0.0988
   97OSM   H13F 9698   5.989   0.848   9.793  0.9504 -3.9490 -1.9752
   97OSM   H13G 9699   5.863   0.723   9.782  0.4111 -0.7344  0.8040
   97OSM   C14F 9700   5.783   0.915   9.835  0.4613  0.2812 -0.5183
   97OSM   H14F 9701   5.683   0.878   9.805  1.2887 -1.1303 -1.7009
   97OSM   H14G 9702   5.804   1.021   9.810 -0.5124  0.4332 -0.7089
   97OSM   C15F 9703   5.796   0.887   9.985 -0.0870  0.2767 -0.2827
   97OSM   H15F 9704   5.904   0.881  10.010 -0.0683 -0.4788 -0.5209
   97OSM   H15G 9705   5.766   0.782  10.002 -0.1095  0.3325  0.0117
   97OSM   C16F 9706   5.723   0.985  10.074  0.5854  0.1960 -0.3651
   97OSM   H16F 9707   5.617   0.964  10.048 -0.5818  2.7475  1.8079
   97OSM   H16G 9708   5.757   1.087  10.046 -0.5537  0.4485 -0.8837
   97OSM   C17F 9709   5.722   0.944  10.222  0.0727  0.1211  0.5406
   97OSM   H17F 9710   5.665   0.848  10.226 -0.9922  0.5474 -2.0781
   97OSM   H17G 9711   5.664   1.022  10.276  0.8650  2.1582 -1.3947
   97OSM   C18F 9712   5.861   0.941  10.290  0.0077  0.1849  0.1229
   97OSM   H18F 9713   5.905   1.043  10.286  0.6418 -0.1060 -0.5677
   97OSM   H18G 9714   5.933   0.876  10.236 -1.4835 -0.2812 -1.4201
   97OSM   H18H 9715   5.850   0.905  10.394  1.4238 -1.5964 -0.2996
   98OSM      N 9716   3.981   5.651  11.222  0.4237 -0.4343 -0.7257
   98OSM    C15 9717   3.919   5.587  11.345  0.2816 -0.2469  0.6207
   98OSM   H15A 9718   3.980   5.601  11.433 -1.4512  1.0892  1.6765
   98OSM   H15B 9719   3.917   5.479  11.348  0.1858 -0.2845 -0.2902
   98OSM   H15C 9720   3.820   5.625  11.364 -0.2684 -0.4651 -1.5016
   98OSM    C14 9721   3.895   5.643  11.101  0.3899  0.1283  0.1044
   98OSM   H14A 9722   3.795   5.678  11.122  0.3857  0.6144 -0.7246
   98OSM   H14B 9723   3.905   5.544  11.059  0.3920  0.1006  0.1688
   98OSM   H14C 9724   3.926   5.707  11.020  0.1570 -0.8214 -0.7603
   98OSM    C13 9725   3.979   5.793  11.270 -0.4453  0.6203  0.2011
   98OSM   H13A 9726   4.015   5.860  11.193  2.0032 -2.3730 -1.5094
   98OSM   H13B 9727   4.039   5.806  11.359 -0.8472  0.8888  0.4373
   98OSM   H13C 9728   3.879   5.825  11.293 -0.6315  1.5460 -1.7136
   98OSM    C12 9729   4.119   5.609  11.185 -0.0103  0.5307  0.5991
   98OSM   H12A 9730   4.114   5.503  11.165  0.4294  0.8061 -1.1773
   98OSM   H12B 9731   4.181   5.638  11.269  1.4956 -0.8455  0.0120
   98OSM    C11 9732   4.189   5.673  11.061 -0.0834 -0.1022 -0.0135
   98OSM   H11A 9733   4.128   5.664  10.968 -2.1165  1.8436  1.0173
   98OSM   H11B 9734   4.279   5.612  11.039 -0.6636  0.1248 -3.6093
   98OSM      P 9735   4.343   5.889  11.084 -0.1316 -0.0259 -0.2407
   98OSM    O13 9736   4.320   6.024  11.034  0.4630  0.3988  0.2432
   98OSM    O14 9737   4.418   5.880  11.214 -0.2474 -0.2365  0.0986
   98OSM    O11 9738   4.433   5.813  10.976  0.2492  0.0828  0.3508
   98OSM    O12 9739   4.208   5.812  11.086 -0.1313 -0.3072  0.3151
   98OSM    C1S 9740   4.391   5.793  10.839 -0.9302  0.0407  0.1718
   98OSM    H1S 9741   4.287   5.826  10.819 -0.5403  0.4669 -1.2830
   98OSM    H1T 9742   4.380   5.683  10.832  3.3613 -0.4799 -2.1064
   98OSM     NF 9743   4.443   5.803  10.606  0.4384  0.2116  0.1932
   98OSM    HNF 9744   4.497   5.731  10.564  1.2973  1.9836 -1.9398
   98OSM    C2S 9745   4.490   5.833  10.732  0.7444 -0.0232 -0.2234
   98OSM    H2S 9746   4.492   5.944  10.737 -1.5364  0.0637 -0.2300
   98OSM    C3S 9747   4.638   5.766  10.761 -0.0601  0.0423 -0.8323
   98OSM    H3S 9748   4.623   5.656  10.765 -0.9675  0.0783 -2.3337
   98OSM     O3 9749   4.691   5.815  10.884 -0.2133 -0.2032 -0.3409
   98OSM    HO3 9750   4.619   5.858  10.931  0.3658  0.2494  0.1501
   98OSM    C4S 9751   4.733   5.804  10.652  0.3836 -0.1414 -0.4040
   98OSM    H4S 9752   4.753   5.911  10.643 -1.4363  0.2606 -0.1041
   98OSM    C5S 9753   4.796   5.714  10.577 -0.2762  0.0204 -0.0942
   98OSM    H5S 9754   4.795   5.606  10.596  1.5085 -0.1474 -0.7412
   98OSM    C6S 9755   4.896   5.751  10.464 -0.0778 -0.1913 -0.1054
   98OSM    H6S 9756   4.863   5.699  10.372  0.0704 -0.9300  0.2576
   98OSM    H6T 9757   4.997   5.715  10.492 -0.4335 -0.4475  0.8734
   98OSM    C7S 9758   4.921   5.906  10.438  0.2811  0.5979  0.8147
   98OSM    H7S 9759   4.913   5.970  10.528  0.9242 -2.4670  3.2480
   98OSM    H7T 9760   4.840   5.943  10.371  0.1479  1.5154  1.4727
   98OSM    C8S 9761   5.056   5.933  10.372  0.4486 -0.2333  0.3554
   98OSM    H8S 9762   5.133   5.944  10.452  0.2466 -3.8297  1.1940
   98OSM    H8T 9763   5.054   6.039  10.337  1.3200 -0.2288  0.3045
   98OSM    C9S 9764   5.103   5.841  10.254  0.1015 -0.6915 -0.0998
   98OSM    H9S 9765   5.096   5.742  10.305  1.5195 -1.1713 -0.7904
   98OSM    H9T 9766   5.209   5.869  10.237  0.0995 -0.0003  0.9446
   98OSM   C10S 9767   5.024   5.851  10.125 -0.0049 -0.1405  0.0183
   98OSM   H10S 9768   4.915   5.868  10.136 -0.0627 -0.7968  0.4931
   98OSM   H10T 9769   5.024   5.752  10.074 -0.8866 -0.0045 -0.2604
   98OSM   C11S 9770   5.092   5.961  10.036  0.0230  0.1366 -0.0540
   98OSM   H11S 9771   5.202   5.958  10.049  0.1574  2.3185 -0.3173
   98OSM   H11T 9772   5.065   6.062  10.075 -1.1703  1.1786 -3.2309
   98OSM   C12S 9773   5.036   5.964   9.891 -0.0881 -0.0943 -0.0746
   98OSM   H12S 9774   4.925   5.970   9.887 -0.0545  0.1842 -0.6361
   98OSM   H12T 9775   5.074   5.883   9.826 -0.5074 -1.5716  1.4536
   98OSM   C13S 9776   5.078   6.095   9.827  0.1860 -0.0321 -0.2475
   98OSM   H13S 9777   5.189   6.102   9.828  0.3409 -0.9098  3.2640
   98OSM   H13T 9778   5.035   6.185   9.876 -1.9177  0.0851 -2.1828
   98OSM   C14S 9779   5.033   6.093   9.681 -0.1308 -0.1803  0.2036
   98OSM   H14S 9780   4.928   6.058   9.689  0.0309 -1.0076 -1.0001
   98OSM   H14T 9781   5.087   6.012   9.628  0.8421 -0.0647  0.9745
   98OSM   C15S 9782   5.046   6.227   9.608 -0.5561 -0.2368 -0.1624
   98OSM   H15S 9783   5.153   6.256   9.616 -0.7525  1.2744 -2.1831
   98OSM   H15T 9784   4.995   6.308   9.665  1.1575 -0.3549  1.6213
   98OSM   C16S 9785   4.984   6.233   9.465  0.1799 -0.5234  0.0273
   98OSM   H16S 9786   4.879   6.204   9.487  0.5602 -1.1287  1.1687
   98OSM   H16T 9787   5.022   6.157   9.395 -0.8444  0.0232 -1.1581
   98OSM   C17S 9788   4.978   6.369   9.396  0.1918 -0.0087 -0.1347
   98OSM   H17S 9789   5.086   6.392   9.382  0.0770  1.1190  0.6584
   98OSM   H17T 9790   4.940   6.444   9.469 -1.7974 -0.6144 -0.5096
   98OSM   C18S 9791   4.899   6.375   9.263 -0.0308 -0.4442  0.7074
   98OSM   H18S 9792   4.925   6.298   9.187 -0.6986  0.3685 -0.3668
   98OSM   H18T 9793   4.917   6.471   9.212 -0.2765 -0.5582  0.3999
   98OSM   H18U 9794   4.790   6.369   9.283 -0.1220  1.3732  0.8656
   98OSM    C1F 9795   4.338   5.854  10.552  0.1952 -0.1718  0.0772
   98OSM     OF 9796   4.267   5.933  10.614 -0.2201 -0.0512 -0.1847
   98OSM    C2F 9797   4.306   5.825  10.410 -0.7738 -0.8437 -1.0766
   98OSM    H2F 9798   4.198   5.806  10.399 -0.9642  0.4995 -1.7415
   98OSM    H2G 9799   4.362   5.737  10.371  0.4595 -0.7485  0.3895
   98OSM    C3F 9800   4.365   5.941  10.331  0.3176  0.6548  0.0380
   98OSM    H3F 9801   4.472   5.965  10.351  0.8338 -0.5118 -1.1445
   98OSM    H3G 9802   4.303   6.028  10.361 -0.0333  0.2516  0.5026
   98OSM    C4F 9803   4.345   5.918  10.175 -0.0170 -0.4288  0.0799
   98OSM    H4F 9804   4.407   6.003  10.137  2.3043 -1.6086  1.0473
   98OSM    H4G 9805   4.235   5.931  10.166 -0.0781 -1.9115 -1.7888
   98OSM    C5F 9806   4.398   5.784  10.117  0.0213  0.2515  0.2256
   98OSM    H5F 9807   4.342   5.698  10.159  1.8477 -0.2983  1.6444
   98OSM    H5G 9808   4.497   5.787  10.167 -2.2883  1.5620  5.3793
   98OSM    C6F 9809   4.384   5.775   9.965  0.5478 -0.1136  0.0593
   98OSM    H6F 9810   4.396   5.666   9.950 -0.3424 -0.2289  0.1658
   98OSM    H6G 9811   4.465   5.829   9.911  0.4539 -1.7810 -1.8882
   98OSM    C7F 9812   4.258   5.817   9.889 -0.1661  0.0176  0.3225
   98OSM    H7F 9813   4.241   5.925   9.907  0.6309  0.0101  1.2447
   98OSM    H7G 9814   4.168   5.772   9.936 -1.3168  2.1511  0.2774
   98OSM    C8F 9815   4.246   5.774   9.741 -0.1260 -0.1591  0.3659
   98OSM    H8F 9816   4.259   5.664   9.729  1.0081  0.2089 -2.6444
   98OSM    H8G 9817   4.332   5.826   9.693  0.1930 -0.2446  0.8326
   98OSM    C9F 9818   4.118   5.817   9.663 -0.8441 -0.1944 -0.2738
   98OSM    H9F 9819   4.110   5.927   9.665  2.0834  0.1298 -1.0254
   98OSM   C10F 9820   4.025   5.743   9.611  0.4356 -0.0127  0.1072
   98OSM   H10F 9821   3.949   5.801   9.556  1.7056  1.9118  0.3044
   98OSM   C11F 9822   4.019   5.588   9.593  0.2745  0.0008 -0.3103
   98OSM   H11F 9823   3.928   5.557   9.538  0.6505 -2.9504  0.5691
   98OSM   H11G 9824   4.016   5.536   9.691 -0.7261 -1.0297 -0.8721
   98OSM   C12F 9825   4.140   5.528   9.510  0.7149 -0.0462  0.0004
   98OSM   H12F 9826   4.131   5.417   9.504 -0.1049  0.0769 -1.3337
   98OSM   H12G 9827   4.236   5.551   9.561 -0.7086  1.8482  2.0100
   98OSM   C13F 9828   4.145   5.573   9.362  0.3047  0.6906  0.6379
   98OSM   H13F 9829   4.157   5.683   9.352  3.1371  0.4090  0.2117
   98OSM   H13G 9830   4.047   5.539   9.321 -0.2212  2.8694 -0.0524
   98OSM   C14F 9831   4.254   5.509   9.274 -1.2231  0.4133  0.6474
   98OSM   H14F 9832   4.274   5.402   9.295 -0.2269  0.5261  0.3426
   98OSM   H14G 9833   4.346   5.567   9.300 -1.3747  0.1080  1.9363
   98OSM   C15F 9834   4.220   5.526   9.126 -0.5057  0.4148  0.9024
   98OSM   H15F 9835   4.217   5.631   9.091 -2.1249 -0.1315 -0.7333
   98OSM   H15G 9836   4.113   5.500   9.115  0.1056 -1.9764 -0.0107
   98OSM   C16F 9837   4.299   5.442   9.027  0.1178 -0.0080  0.0044
   98OSM   H16F 9838   4.315   5.341   9.071 -2.8093 -1.0371 -1.0359
   98OSM   H16G 9839   4.400   5.487   9.015 -0.1525  0.6889  0.3375
   98OSM   C17F 9840   4.228   5.421   8.891 -0.0756 -0.4411 -0.0690
   98OSM   H17F 9841   4.139   5.356   8.903  0.1602 -0.8166 -0.3567
   98OSM   H17G 9842   4.305   5.364   8.835  0.1555 -0.0405 -0.1651
   98OSM   C18F 9843   4.191   5.551   8.820  0.0466 -0.2130  0.9033
   98OSM   H18F 9844   4.107   5.533   8.750  0.3141 -2.2868  1.0639
   98OSM   H18G 9845   4.281   5.585   8.764 -0.4108  1.4530  1.1172
   98OSM   H18H 9846   4.161   5.634   8.888 -2.2454  0.6680 -1.0209
   99OSM      N 9847   6.694   0.517  10.666  0.0273  0.0950  0.6662
   99OSM    C15 9848   6.686   0.618  10.553 -0.6690  0.2693 -0.1004
   99OSM   H15A 9849   6.776   0.677  10.543 -0.4791 -0.0107 -0.0443
   99OSM   H15B 9850   6.598   0.680  10.545 -0.4600  0.7947  1.2720
   99OSM   H15C 9851   6.684   0.565  10.459 -0.7693  2.8705 -1.6555
   99OSM    C14 9852   6.805   0.419  10.637  0.2183  0.2666 -0.5018
   99OSM   H14A 9853   6.798   0.378  10.537  0.3482 -1.3441  0.1313
   99OSM   H14B 9854   6.821   0.338  10.706  0.7713  0.1369 -0.7745
   99OSM   H14C 9855   6.897   0.476  10.637  1.4430 -1.6180  0.4526
   99OSM    C13 9856   6.742   0.589  10.784  0.2234 -0.0987  0.4961
   99OSM   H13A 9857   6.799   0.527  10.852  2.8840  1.2983 -0.3091
   99OSM   H13B 9858   6.662   0.634  10.840 -1.6181 -0.8522 -1.4086
   99OSM   H13C 9859   6.818   0.663  10.767 -0.1030  0.7477  2.4341
   99OSM    C12 9860   6.563   0.440  10.686  0.0523 -0.3088 -0.0660
   99OSM   H12A 9861   6.579   0.343  10.730 -0.8241 -1.8566 -2.9117
   99OSM   H12B 9862   6.531   0.420  10.584 -0.9072  0.7384  0.0022
   99OSM    C11 9863   6.446   0.512  10.755  0.4471  0.8073  0.1804
   99OSM   H11A 9864   6.460   0.521  10.865 -2.2762 -1.0550  0.7751
   99OSM   H11B 9865   6.361   0.443  10.742  1.0552  0.2942 -1.2164
   99OSM      P 9866   6.400   0.769  10.766  0.4483 -0.0453  0.2478
   99OSM    O13 9867   6.304   0.754  10.885 -0.0745 -0.2974  0.1905
   99OSM    O14 9868   6.535   0.816  10.795 -0.4611  0.3565  0.1038
   99OSM    O11 9869   6.340   0.867  10.666 -0.2788  0.3282  0.1065
   99OSM    O12 9870   6.406   0.634  10.690 -0.5554 -0.4375 -0.0090
   99OSM    C1S 9871   6.316   0.822  10.532 -0.6224  0.1995 -0.0599
   99OSM    H1S 9872   6.274   0.720  10.521 -1.6012  0.6182 -0.2577
   99OSM    H1T 9873   6.410   0.802  10.476 -0.4149 -0.6313  0.5624
   99OSM     NF 9874   6.247   0.876  10.299  0.5295 -0.2564 -0.7124
   99OSM    HNF 9875   6.328   0.905  10.249  0.6210 -0.4306 -0.6625
   99OSM    C2S 9876   6.249   0.929  10.434  0.3895 -0.0633 -0.2459
   99OSM    H2S 9877   6.146   0.946  10.473  0.2286 -0.1489 -0.6299
   99OSM    C3S 9878   6.326   1.063  10.439 -0.3437 -0.1154 -0.2736
   99OSM    H3S 9879   6.425   1.041  10.394  0.7735 -2.0582  2.7669
   99OSM     O3 9880   6.351   1.116  10.566  0.2255  0.0079 -0.4448
   99OSM    HO3 9881   6.333   1.044  10.628 -3.4635  0.6284 -0.5437
   99OSM    C4S 9882   6.257   1.162  10.344  0.3174 -0.0827 -0.3358
   99OSM    H4S 9883   6.310   1.184  10.250 -0.3342  1.9528 -0.2674
   99OSM    C5S 9884   6.161   1.249  10.381 -0.0013 -0.9700  0.3161
   99OSM    H5S 9885   6.111   1.242  10.479  0.5611  0.2992  0.7175
   99OSM    C6S 9886   6.104   1.356  10.290  0.8498  0.4306 -0.5100
   99OSM    H6S 9887   6.122   1.453  10.341 -1.3453  0.8929 -0.5028
   99OSM    H6T 9888   5.993   1.349  10.285  0.9716 -1.5342 -1.5855
   99OSM    C7S 9889   6.143   1.381  10.137 -0.5126 -0.2482 -0.6272
   99OSM    H7S 9890   6.253   1.401  10.130 -0.0067 -1.3601  2.5469
   99OSM    H7T 9891   6.088   1.467  10.093 -0.9143 -1.3023 -2.2533
   99OSM    C8S 9892   6.111   1.260  10.044  0.2099  0.6858  0.0514
   99OSM    H8S 9893   6.003   1.238  10.059  0.3244 -0.5757 -0.8866
   99OSM    H8T 9894   6.171   1.170  10.069  0.5256  0.5818 -1.0272
   99OSM    C9S 9895   6.143   1.296   9.899 -0.2455  0.0292 -0.3304
   99OSM    H9S 9896   6.253   1.311   9.898  0.2761 -3.1099 -1.0832
   99OSM    H9T 9897   6.100   1.393   9.868  3.1926  2.3770  1.5192
   99OSM   C10S 9898   6.095   1.185   9.806  0.1110 -0.8216 -0.1604
   99OSM   H10S 9899   5.987   1.198   9.786  0.5195  0.1919 -1.9134
   99OSM   H10T 9900   6.115   1.082   9.842  0.4259 -1.9795 -3.3159
   99OSM   C11S 9901   6.165   1.195   9.670 -0.8696 -0.3982 -0.8200
   99OSM   H11S 9902   6.274   1.195   9.690 -1.3736  1.6399  2.7120
   99OSM   H11T 9903   6.157   1.302   9.640  0.8507  0.6542  2.0500
   99OSM   C12S 9904   6.125   1.087   9.571  0.4357 -0.6800  0.3323
   99OSM   H12S 9905   6.126   0.986   9.618 -1.0257 -0.1069  1.6875
   99OSM   H12T 9906   6.021   1.116   9.544  0.4803 -1.0294 -0.2214
   99OSM   C13S 9907   6.216   1.094   9.451 -0.5927  0.0341 -0.0719
   99OSM   H13S 9908   6.318   1.072   9.487 -0.0375  0.8720 -1.0748
   99OSM   H13T 9909   6.212   1.203   9.426 -2.4074  0.0980  0.3158
   99OSM   C14S 9910   6.170   1.003   9.339  0.4998  0.0688 -0.4627
   99OSM   H14S 9911   6.079   1.049   9.295 -0.0207 -1.5091 -1.1075
   99OSM   H14T 9912   6.140   0.903   9.378 -3.1170  0.4323 -1.9390
   99OSM   C15S 9913   6.283   0.988   9.242  0.2016  0.4914  1.0566
   99OSM   H15S 9914   6.362   0.939   9.303 -1.1428  1.6105  3.9005
   99OSM   H15T 9915   6.310   1.087   9.200 -2.0926 -0.8580 -4.5218
   99OSM   C16S 9916   6.244   0.906   9.111  0.1451 -0.3971  0.2209
   99OSM   H16S 9917   6.195   0.814   9.147 -1.5322 -0.1955 -1.3854
   99OSM   H16T 9918   6.335   0.875   9.054  1.0235  0.3517  1.1679
   99OSM   C17S 9919   6.139   0.986   9.025 -0.5567 -0.0970  0.4008
   99OSM   H17S 9920   6.195   1.069   8.978  1.1150 -0.7754  1.1198
   99OSM   H17T 9921   6.057   1.031   9.086 -0.5051  0.4700  0.0574
   99OSM   C18S 9922   6.083   0.891   8.916 -0.2338 -0.0306 -0.6433
   99OSM   H18S 9923   6.162   0.830   8.868 -0.6174  0.5989 -2.1550
   99OSM   H18T 9924   6.024   0.938   8.834  0.0872 -0.8154 -1.3378
   99OSM   H18U 9925   6.009   0.823   8.963 -1.2776  1.4024 -0.1416
   99OSM    C1F 9926   6.172   0.772  10.263 -0.3032 -0.6734 -0.0132
   99OSM     OF 9927   6.109   0.715  10.354 -0.6773 -0.2893  0.2990
   99OSM    C2F 9928   6.186   0.717  10.126  0.3238 -0.0784 -0.3772
   99OSM    H2F 9929   6.087   0.713  10.075 -1.1212 -2.1412  2.2870
   99OSM    H2G 9930   6.227   0.614  10.136  1.4504  0.5056  1.6649
   99OSM    C3F 9931   6.286   0.798  10.040  0.0517  0.5683  0.6391
   99OSM    H3F 9932   6.267   0.907  10.050 -1.0050  0.2486  2.5795
   99OSM    H3G 9933   6.386   0.777  10.084  0.3314  1.7633  0.6209
   99OSM    C4F 9934   6.293   0.757   9.890  0.2711  0.3084 -0.6208
   99OSM    H4F 9935   6.194   0.786   9.847  0.4279  1.1479 -0.4416
   99OSM    H4G 9936   6.304   0.648   9.874 -3.9664 -0.1688 -1.6563
   99OSM    C5F 9937   6.411   0.828   9.815 -0.7562 -0.4008 -0.2686
   99OSM    H5F 9938   6.500   0.808   9.879 -1.0659 -0.5931  0.1107
   99OSM    H5G 9939   6.386   0.936   9.813 -1.0376 -0.3922  1.4838
   99OSM    C6F 9940   6.426   0.793   9.668  0.4476 -0.6680 -0.2253
   99OSM    H6F 9941   6.329   0.809   9.618  0.3693 -1.0517 -0.2052
   99OSM    H6G 9942   6.456   0.686   9.659  0.0642 -0.7150 -1.0385
   99OSM    C7F 9943   6.533   0.886   9.601  0.5074 -0.0249  0.0362
   99OSM    H7F 9944   6.534   0.983   9.655  0.1761  0.9206 -1.5947
   99OSM    H7G 9945   6.493   0.904   9.499  1.0581  1.8229  0.0982
   99OSM    C8F 9946   6.678   0.829   9.600 -0.1286 -0.0087  0.2013
   99OSM    H8F 9947   6.675   0.720   9.580 -1.7169  0.2211 -1.0439
   99OSM    H8G 9948   6.716   0.842   9.703 -0.0126  0.2618  0.1240
   99OSM    C9F 9949   6.769   0.915   9.509 -0.5621 -0.1526 -0.2712
   99OSM    H9F 9950   6.770   1.024   9.522 -0.4634 -0.3029  1.0923
   99OSM   C10F 9951   6.856   0.860   9.426 -0.4070 -0.4515  0.6323
   99OSM   H10F 9952   6.927   0.929   9.378 -0.3994 -1.4089 -0.8184
   99OSM   C11F 9953   6.883   0.712   9.406 -0.0562 -0.3610 -0.6122
   99OSM   H11F 9954   6.879   0.653   9.499  1.3288  1.9487  1.0168
   99OSM   H11G 9955   6.993   0.712   9.388  0.1847 -0.6116  0.7978
   99OSM   C12F 9956   6.801   0.651   9.287 -0.0121 -0.5531  0.6179
   99OSM   H12F 9957   6.834   0.552   9.249  1.1860  0.1780 -0.3505
   99OSM   H12G 9958   6.823   0.716   9.200  1.0149  1.0517  2.0074
   99OSM   C13F 9959   6.653   0.641   9.326  0.2668  0.1504 -0.0552
   99OSM   H13F 9960   6.605   0.740   9.342  0.1866  0.3483 -1.3675
   99OSM   H13G 9961   6.637   0.587   9.422 -0.5463 -1.0049 -0.8170
   99OSM   C14F 9962   6.574   0.579   9.211  0.7135 -0.0271 -0.7527
   99OSM   H14F 9963   6.610   0.474   9.208  3.2477  0.7702 -0.3253
   99OSM   H14G 9964   6.597   0.625   9.112  0.7275 -2.6310 -2.0504
   99OSM   C15F 9965   6.421   0.582   9.233  0.2126 -0.3561 -0.2907
   99OSM   H15F 9966   6.386   0.686   9.215  2.0143  0.2228 -0.6664
   99OSM   H15G 9967   6.405   0.550   9.338  3.7163 -1.1828  0.0925
   99OSM   C16F 9968   6.350   0.500   9.137 -0.4930  0.5163 -0.1085
   99OSM   H16F 9969   6.256   0.459   9.182 -0.3155 -0.3343 -0.4948
   99OSM   H16G 9970   6.401   0.402   9.128  1.2592  1.1399  2.2057
   99OSM   C17F 9971   6.320   0.551   8.995 -0.4406  0.7375 -0.1085
   99OSM   H17F 9972   6.417   0.584   8.952  0.5416  0.7892  2.0284
   99OSM   H17G 9973   6.251   0.638   9.000  1.2633  2.1332  0.1348
   99OSM   C18F 9974   6.249   0.446   8.909 -0.1718  0.4804 -0.5714
   99OSM   H18F 9975   6.155   0.417   8.960  0.6365 -2.4775 -0.6055
   99OSM   H18G 9976   6.306   0.352   8.893  1.5690  1.3111  0.4668
   99OSM   H18H 9977   6.205   0.484   8.814 -1.9267  2.1602  0.8218
  100OSM      N 9978   1.530   2.149  10.768  0.1308 -0.5238  1.1277
  100OSM    C15 9979   1.650   2.095  10.830  0.5165 -0.1894  0.1933
  100OSM   H15A 9980   1.700   2.024  10.766  0.7925  0.1120  0.0728
  100OSM   H15B 9981   1.616   2.049  10.923  1.4230 -0.3618  0.4496
  100OSM   H15C 9982   1.722   2.172  10.853 -0.1037  0.3983  0.1925
  100OSM    C14 9983   1.447   2.224  10.867  0.2066  0.1286  0.5822
  100OSM   H14A 9984   1.354   2.263  10.829 -0.6198 -0.4294  1.9131
  100OSM   H14B 9985   1.507   2.310  10.892 -0.0510  0.5179 -0.1118
  100OSM   H14C 9986   1.450   2.167  10.960 -1.0832  0.8679  1.1113
  100OSM    C13 9987   1.572   2.237  10.654  0.3965 -0.8234  0.8282
  100OSM   H13A 9988   1.602   2.333  10.693 -0.8183 -0.2424  0.3803
  100OSM   H13B 9989   1.493   2.247  10.581  1.0272  0.1892  0.2520
  100OSM   H13C 9990   1.651   2.191  10.595 -1.1507 -2.0313 -0.4065
  100OSM    C12 9991   1.443   2.045  10.706  1.0200 -0.0890  0.1897
  100OSM   H12A 9992   1.350   2.084  10.667  1.3725 -0.4079 -0.9789
  100OSM   H12B 9993   1.410   1.984  10.788  0.7146 -1.8828 -1.2219
  100OSM    C11 9994   1.502   1.952  10.598  0.0094 -0.6209  0.1340
  100OSM   H11A 9995   1.591   1.904  10.644 -0.9126 -1.1899  1.3832
  100OSM   H11B 9996   1.538   2.007  10.508  0.8006  1.1013  1.4352
  100OSM      P 9997   1.287   1.863  10.481 -0.0074 -0.3172  0.5289
  100OSM    O13 9998   1.209   1.735  10.473  0.3903 -0.8908 -0.3686
  100OSM    O14 9999   1.206   1.986  10.513  0.6144  0.0900  0.3291
  100OSM    O1110000   1.355   1.887  10.337 -0.0567  0.1872  0.5014
  100OSM    O1210001   1.409   1.846  10.577  0.3145 -0.1761 -0.2084
  100OSM    C1S10002   1.470   1.803  10.299  0.3156 -0.2207  0.0625
  100OSM    H1S10003   1.457   1.694  10.320  1.9155 -0.1341  1.7442
  100OSM    H1T10004   1.565   1.843  10.340 -0.1450  0.0178  0.9339
  100OSM     NF10005   1.613   1.753  10.131  0.2934  0.3984  0.7457
  100OSM    HNF10006   1.701   1.798  10.144  0.0026  1.1534  0.2132
  100OSM    C2S10007   1.495   1.830  10.156 -0.0581 -0.4174  0.3878
  100OSM    H2S10008   1.411   1.793  10.093 -0.4739 -1.2052  1.3878
  100OSM    C3S10009   1.521   1.977  10.129  0.1178  0.2781  0.3576
  100OSM    H3S10010   1.596   2.013  10.202 -0.9926  0.8001  1.2737
  100OSM     O310011   1.407   2.060  10.152  0.0633  0.6064 -0.2317
  100OSM    HO310012   1.381   2.039  10.242  1.3124  1.6702  0.4042
  100OSM    C4S10013   1.560   2.006   9.988 -0.2837  0.6713 -0.7426
  100OSM    H4S10014   1.485   1.972   9.915  0.2930 -1.9255 -0.2280
  100OSM    C5S10015   1.673   2.068   9.950 -0.4905  1.0656 -0.3899
  100OSM    H5S10016   1.749   2.079  10.029 -1.5510 -0.2783  0.8967
  100OSM    C6S10017   1.718   2.090   9.808 -0.1048  0.1582  0.1744
  100OSM    H6S10018   1.826   2.062   9.804 -0.6819 -2.5591  1.3497
  100OSM    H6T10019   1.695   2.196   9.781  0.3611  0.3490  0.5008
  100OSM    C7S10020   1.643   1.997   9.706  0.5090 -0.7956 -0.1029
  100OSM    H7S10021   1.533   2.013   9.707  0.4844 -0.9705  0.6876
  100OSM    H7T10022   1.666   1.896   9.746  3.1450  0.4665  1.7963
  100OSM    C8S10023   1.704   2.013   9.569  0.0639  1.0261 -0.2937
  100OSM    H8S10024   1.812   2.026   9.590  0.4929  1.0826 -2.2670
  100OSM    H8T10025   1.664   2.108   9.529 -3.9904  0.3733  1.7170
  100OSM    C9S10026   1.682   1.898   9.470 -0.0293 -0.2241 -0.6276
  100OSM    H9S10027   1.576   1.865   9.471 -0.1680  0.2146 -0.7587
  100OSM    H9T10028   1.738   1.808   9.504  1.9877  1.1491 -0.1213
  100OSM   C10S10029   1.739   1.927   9.336  0.2614 -0.4274  0.1423
  100OSM   H10S10030   1.849   1.936   9.332  0.4748 -0.0843  3.8160
  100OSM   H10T10031   1.697   2.027   9.311  1.3122 -0.1863 -0.7399
  100OSM   C11S10032   1.693   1.825   9.236  0.6401  0.1235 -0.5246
  100OSM   H11S10033   1.583   1.838   9.226  0.3718  0.7380  2.4494
  100OSM   H11T10034   1.715   1.720   9.264 -0.7097 -0.3641 -1.1606
  100OSM   C12S10035   1.754   1.858   9.094  0.7051 -0.6216 -0.6589
  100OSM   H12S10036   1.711   1.778   9.029 -1.9751 -2.0947  2.6080
  100OSM   H12T10037   1.864   1.842   9.089  0.9214  0.9836 -2.2388
  100OSM   C13S10038   1.723   2.002   9.049  0.4684 -0.0451  0.0981
  100OSM   H13S10039   1.768   2.065   9.129  0.2073 -0.0837  0.2791
  100OSM   H13T10040   1.613   2.013   9.065  0.5431  2.3952 -0.7020
  100OSM   C14S10041   1.780   2.042   8.913 -0.0003  0.0931  0.2659
  100OSM   H14S10042   1.761   1.957   8.843  1.4121  0.5385 -0.6811
  100OSM   H14T10043   1.890   2.056   8.916 -0.1321  1.0888  1.3129
  100OSM   C15S10044   1.712   2.165   8.852 -0.2325 -0.3490 -0.2818
  100OSM   H15S10045   1.722   2.248   8.925  2.7120  0.4731 -1.5127
  100OSM   H15T10046   1.604   2.146   8.833 -0.4739  0.9404 -0.2774
  100OSM   C16S10047   1.781   2.204   8.725  0.6706 -0.1984 -0.5029
  100OSM   H16S10048   1.790   2.113   8.662 -1.0308 -0.8679  0.1677
  100OSM   H16T10049   1.886   2.238   8.740  0.9521 -1.6312  1.0194
  100OSM   C17S10050   1.703   2.305   8.633 -0.1924 -0.0134 -0.2560
  100OSM   H17S10051   1.674   2.395   8.692  0.1292 -0.1354  0.0981
  100OSM   H17T10052   1.622   2.237   8.601 -0.9334  1.6806 -2.1950
  100OSM   C18S10053   1.774   2.339   8.507  0.5499 -0.9492  0.3534
  100OSM   H18S10054   1.866   2.396   8.533  1.6225 -1.7248 -1.5407
  100OSM   H18T10055   1.702   2.401   8.450  2.2287  1.6287  0.8630
  100OSM   H18U10056   1.788   2.252   8.440  0.1879 -1.7592  1.2987
  100OSM    C1F10057   1.613   1.624  10.120 -0.1445 -0.0740  0.3287
  100OSM     OF10058   1.516   1.555  10.128 -0.2477  0.5253 -0.2932
  100OSM    C2F10059   1.740   1.549  10.096 -0.2752 -0.4223  0.1802
  100OSM    H2F10060   1.751   1.477  10.180  0.6305  1.6569  1.9451
  100OSM    H2G10061   1.815   1.627  10.119 -0.6448 -0.7052  2.6757
  100OSM    C3F10062   1.754   1.479   9.955 -0.4374  0.1130 -0.0884
  100OSM    H3F10063   1.668   1.411   9.937 -0.5803  0.8442 -2.5802
  100OSM    H3G10064   1.840   1.409   9.969  0.1196  1.1374  1.8891
  100OSM    C4F10065   1.765   1.573   9.828  0.6966  0.5946 -0.9473
  100OSM    H4F10066   1.858   1.625   9.860  0.3419  0.6482  0.0139
  100OSM    H4G10067   1.674   1.637   9.830  0.4360  0.2918  2.3846
  100OSM    C5F10068   1.786   1.480   9.702 -0.0701  0.6385  0.0781
  100OSM    H5F10069   1.709   1.400   9.712  1.8331 -1.3019 -0.1856
  100OSM    H5G10070   1.886   1.433   9.700 -1.0325 -1.5825  0.7721
  100OSM    C6F10071   1.768   1.567   9.577 -0.5042  0.3106 -0.1195
  100OSM    H6F10072   1.854   1.635   9.563 -2.7418  3.5109  0.5448
  100OSM    H6G10073   1.676   1.629   9.580 -0.5597  0.1712  2.2780
  100OSM    C7F10074   1.742   1.474   9.459 -0.5851  0.0425  0.4390
  100OSM    H7F10075   1.683   1.532   9.385 -0.9192 -1.4062 -0.4724
  100OSM    H7G10076   1.672   1.402   9.506 -2.2699  0.3998 -1.4035
  100OSM    C8F10077   1.868   1.408   9.401 -0.5142 -0.1444 -0.2450
  100OSM    H8F10078   1.912   1.328   9.464 -1.8849 -2.1543 -1.7118
  100OSM    H8G10079   1.946   1.487   9.391 -2.7303  2.1159 -0.7978
  100OSM    C9F10080   1.834   1.352   9.264 -0.1990  1.2783 -0.5192
  100OSM    H9F10081   1.774   1.260   9.258  0.3668  0.6758  2.0056
  100OSM   C10F10082   1.866   1.413   9.152 -0.0228 -0.0975 -0.2390
  100OSM   H10F10083   1.841   1.360   9.059 -1.2414  0.1121 -0.0506
  100OSM   C11F10084   1.934   1.549   9.148 -0.9010 -0.1276 -0.3755
  100OSM   H11F10085   2.026   1.556   9.209 -0.8268  0.4825 -0.5454
  100OSM   H11G10086   1.875   1.630   9.197 -1.3809  0.4092 -1.7983
  100OSM   C12F10087   1.952   1.589   9.001  0.0607  0.2490 -0.5597
  100OSM   H12F10088   1.993   1.691   8.982 -0.2768  0.2736 -1.1502
  100OSM   H12G10089   1.860   1.569   8.942 -0.7821  0.4049  0.6491
  100OSM   C13F10090   2.065   1.503   8.941 -0.5253 -0.3602  0.0066
  100OSM   H13F10091   2.042   1.395   8.954 -0.8780 -0.3740 -0.6661
  100OSM   H13G10092   2.154   1.517   9.007 -1.1152  0.5126  0.6383
  100OSM   C14F10093   2.089   1.536   8.790 -0.7044  0.0563 -0.7178
  100OSM   H14F10094   2.101   1.646   8.782 -2.2390  0.3752  0.9019
  100OSM   H14G10095   1.989   1.508   8.753 -0.9548  1.4996 -1.1927
  100OSM   C15F10096   2.200   1.456   8.729 -0.3922  0.9204  0.3631
  100OSM   H15F10097   2.177   1.446   8.621 -0.3453  1.7825  0.2629
  100OSM   H15G10098   2.190   1.355   8.774 -1.8827  0.2067 -1.4533
  100OSM   C16F10099   2.346   1.497   8.774 -0.1250 -0.5053  0.0739
  100OSM   H16F10100   2.347   1.502   8.885  1.3319 -0.3454  0.0704
  100OSM   H16G10101   2.367   1.602   8.744  0.0728 -1.0530 -1.8271
  100OSM   C17F10102   2.462   1.405   8.722 -0.4061 -0.1345  0.4389
  100OSM   H17F10103   2.443   1.298   8.741  0.4042 -0.2807  0.4358
  100OSM   H17G10104   2.561   1.438   8.760  0.4757  1.3146 -2.7410
  100OSM   C18F10105   2.474   1.428   8.576  0.3645  0.7420 -0.1435
  100OSM   H18F10106   2.393   1.376   8.521  0.4998  2.0823 -1.6732
  100OSM   H18G10107   2.573   1.384   8.549 -0.6657 -1.4947 -0.5461
  100OSM   H18H10108   2.466   1.536   8.552 -1.4273  1.1719  2.0434
  101OSM      N10109   3.557   0.460  11.083  0.7892  0.1611  0.2316
  101OSM    C1510110   3.633   0.555  11.167 -0.0276  0.2001 -0.1621
  101OSM   H15A10111   3.697   0.491  11.227 -1.2613  0.6047  1.6832
  101OSM   H15B10112   3.558   0.601  11.230 -1.4994 -0.6601 -1.2262
  101OSM   H15C10113   3.689   0.624  11.106  1.7107 -0.7977  0.2104
  101OSM    C1410114   3.488   0.368  11.177 -0.1166  0.1078 -0.2362
  101OSM   H14A10115   3.560   0.337  11.252  0.6685  0.3289 -0.8859
  101OSM   H14B10116   3.451   0.276  11.133 -0.3047  0.5829 -1.0869
  101OSM   H14C10117   3.405   0.420  11.222 -0.6249 -0.5811 -0.3665
  101OSM    C1310118   3.451   0.528  11.008 -0.0215 -0.0732  0.1675
  101OSM   H13A10119   3.486   0.616  10.957 -1.9118  1.4449  1.3363
  101OSM   H13B10120   3.368   0.564  11.066  3.0749  2.5710  3.4392
  101OSM   H13C10121   3.407   0.458  10.939 -1.0730 -0.4342  1.1689
  101OSM    C1210122   3.644   0.376  10.991 -0.1574 -0.3180  0.0291
  101OSM   H12A10123   3.587   0.294  10.951  0.0675 -0.2569 -0.4311
  101OSM   H12B10124   3.731   0.336  11.041 -0.7639 -1.5390  0.1461
  101OSM    C1110125   3.706   0.458  10.869 -0.4570 -0.1553 -0.2084
  101OSM   H11A10126   3.626   0.516  10.818  0.7918 -0.0260 -2.1235
  101OSM   H11B10127   3.749   0.386  10.797  1.7376 -2.7609  3.3712
  101OSM      P10128   3.812   0.702  10.889 -0.0727 -0.4068  0.5819
  101OSM    O1310129   3.732   0.781  10.987  0.2507  0.4269  0.0025
  101OSM    O1410130   3.960   0.736  10.875 -0.3845 -0.5277 -0.2349
  101OSM    O1110131   3.738   0.728  10.751  0.2451  0.1692  0.5166
  101OSM    O1210132   3.806   0.545  10.912 -0.1122 -0.0768 -0.2068
  101OSM    C1S10133   3.725   0.857  10.696 -0.3336  0.4254  0.1825
  101OSM    H1S10134   3.802   0.927  10.734  1.2292 -1.3354  0.3967
  101OSM    H1T10135   3.629   0.905  10.723 -0.8462 -1.8345  2.7941
  101OSM     NF10136   3.728   0.993  10.491  0.2941 -0.0268 -0.1757
  101OSM    HNF10137   3.642   1.026  10.451  1.1697  1.6751 -0.7506
  101OSM    C2S10138   3.724   0.857  10.544 -0.6208  0.4201  0.4196
  101OSM    H2S10139   3.805   0.793  10.502 -0.8871 -1.0414  2.0526
  101OSM    C3S10140   3.602   0.781  10.492  0.8273 -0.3020  0.2550
  101OSM    H3S10141   3.506   0.826  10.524  0.7938 -0.5602  0.5187
  101OSM     O310142   3.595   0.648  10.540  0.2589  0.0115 -0.1288
  101OSM    HO310143   3.655   0.658  10.615 -0.9154 -0.0786  0.8589
  101OSM    C4S10144   3.603   0.779  10.345  0.6718 -0.1872 -0.3144
  101OSM    H4S10145   3.693   0.740  10.295 -0.2673  0.4905 -2.6686
  101OSM    C5S10146   3.500   0.832  10.269  0.2871  0.4701 -0.2244
  101OSM    H5S10147   3.415   0.881  10.318  0.1807  0.6826 -0.6169
  101OSM    C6S10148   3.508   0.846  10.120  0.6418  0.1027  0.1464
  101OSM    H6S10149   3.507   0.955  10.103  0.5603  0.2227  0.8991
  101OSM    H6T10150   3.420   0.801  10.070  1.5207 -1.0632 -0.3976
  101OSM    C7S10151   3.634   0.786  10.061  0.8966 -0.4431 -0.1404
  101OSM    H7S10152   3.653   0.682  10.096  2.3965 -0.5170 -1.0784
  101OSM    H7T10153   3.711   0.861  10.088  0.8565 -0.4083 -0.1229
  101OSM    C8S10154   3.626   0.772   9.910  0.2177  0.0011  0.5666
  101OSM    H8S10155   3.613   0.868   9.855  0.6520 -1.7939 -2.8937
  101OSM    H8T10156   3.545   0.706   9.872  1.9921 -3.0752  1.8220
  101OSM    C9S10157   3.761   0.714   9.852  0.0942  0.3081 -0.0052
  101OSM    H9S10158   3.772   0.606   9.878  0.8066  0.2281 -0.6038
  101OSM    H9T10159   3.848   0.765   9.897  0.7481  0.9213 -1.8856
  101OSM   C10S10160   3.752   0.707   9.704  0.4659  0.0428  0.2117
  101OSM   H10S10161   3.715   0.806   9.668 -2.1543 -0.1594  2.0644
  101OSM   H10T10162   3.679   0.628   9.677  2.5246 -1.5820 -0.8468
  101OSM   C11S10163   3.876   0.663   9.623  0.4553 -0.6058 -0.7038
  101OSM   H11S10164   3.901   0.559   9.655  3.0083 -0.4239 -1.9014
  101OSM   H11T10165   3.967   0.720   9.650 -0.1553 -0.8292  2.1205
  101OSM   C12S10166   3.854   0.672   9.472  0.2702 -0.0100  0.0472
  101OSM   H12S10167   3.949   0.682   9.416 -0.1306  2.7346 -0.2794
  101OSM   H12T10168   3.801   0.767   9.452 -0.6716 -1.0893 -3.2862
  101OSM   C13S10169   3.772   0.554   9.410  0.0214  0.4134  0.2953
  101OSM   H13S10170   3.664   0.565   9.432 -0.2198  1.8864 -1.3044
  101OSM   H13T10171   3.815   0.467   9.463  0.2072 -2.0274 -3.4756
  101OSM   C14S10172   3.799   0.542   9.259 -0.1449  0.0959 -0.4170
  101OSM   H14S10173   3.905   0.514   9.240 -0.3504 -0.9957  0.0016
  101OSM   H14T10174   3.794   0.645   9.217  0.5040  1.0010  1.6049
  101OSM   C15S10175   3.694   0.448   9.195  0.6778 -0.4343 -0.3121
  101OSM   H15S10176   3.711   0.461   9.086  0.4100  2.8432 -0.0654
  101OSM   H15T10177   3.590   0.479   9.217 -0.2085 -2.2816 -1.6304
  101OSM   C16S10178   3.725   0.304   9.235  0.0880  0.4754  0.6392
  101OSM   H16S10179   3.665   0.273   9.323 -0.4706 -0.5321 -0.0737
  101OSM   H16T10180   3.835   0.293   9.249  0.2025 -0.8363 -0.8614
  101OSM   C17S10181   3.710   0.199   9.113  0.4102  0.2696 -0.1411
  101OSM   H17S10182   3.768   0.236   9.026 -1.5757  0.4445 -1.4301
  101OSM   H17T10183   3.605   0.209   9.079  0.5163  0.8512 -0.3162
  101OSM   C18S10184   3.725   0.049   9.144 -0.3435  0.1302  0.2469
  101OSM   H18S10185   3.702  -0.018   9.059  0.1828  0.5054 -0.1925
  101OSM   H18T10186   3.674   0.018   9.238  0.3320 -1.2795  0.1837
  101OSM   H18U10187   3.835   0.034   9.154 -0.1560  0.9016 -0.5513
  101OSM    C1F10188   3.834   1.064  10.487 -0.4593 -0.4519  0.4578
  101OSM     OF10189   3.940   1.018  10.535 -1.2810  0.6432  0.5627
  101OSM    C2F10190   3.820   1.205  10.428  0.3926 -0.2289  0.7005
  101OSM    H2F10191   3.909   1.216  10.361  1.6133 -1.1617  2.0947
  101OSM    H2G10192   3.824   1.281  10.509  1.9727 -0.8819  1.2820
  101OSM    C3F10193   3.696   1.232  10.330  0.3571  0.2738  0.5641
  101OSM    H3F10194   3.700   1.336  10.292  2.1080  0.0442  0.0426
  101OSM    H3G10195   3.597   1.214  10.378 -0.3809 -0.8440 -1.2805
  101OSM    C4F10196   3.699   1.150  10.202 -0.2493 -0.2527  0.7748
  101OSM    H4F10197   3.590   1.139  10.182  0.1788 -1.2223 -1.2320
  101OSM    H4G10198   3.741   1.048  10.216  0.0995 -0.1238  0.6650
  101OSM    C5F10199   3.780   1.212  10.084  0.4944  0.2598  0.0136
  101OSM    H5F10200   3.889   1.195  10.093  0.7195  1.2562 -0.7995
  101OSM    H5G10201   3.754   1.319  10.079  0.1504  0.4596  3.4451
  101OSM    C6F10202   3.749   1.162   9.942  0.8399  0.2147 -0.6771
  101OSM    H6F10203   3.772   1.053   9.936 -2.6403 -0.5762 -4.0104
  101OSM    H6G10204   3.639   1.171   9.925  1.0222  1.2198 -1.4017
  101OSM    C7F10205   3.833   1.237   9.844  0.6959  1.0022 -0.2884
  101OSM    H7F10206   3.934   1.203   9.872 -0.1375 -0.7134  0.8038
  101OSM    H7G10207   3.829   1.347   9.857 -0.4279  0.8959  0.3857
  101OSM    C8F10208   3.808   1.207   9.691 -0.2505  0.7910 -1.0569
  101OSM    H8F10209   3.829   1.305   9.643  3.3307  1.2317  1.0765
  101OSM    H8G10210   3.698   1.200   9.681 -0.2844  1.4016 -1.1813
  101OSM    C9F10211   3.874   1.085   9.645 -0.2728  0.6552  0.4820
  101OSM    H9F10212   3.878   0.999   9.713  2.0202 -0.3239 -0.7752
  101OSM   C10F10213   3.925   1.064   9.526 -0.2919 -1.0634 -0.1062
  101OSM   H10F10214   3.977   0.973   9.494  2.0188  0.3373 -0.5570
  101OSM   C11F10215   3.929   1.173   9.418 -0.4540  0.8918  0.2062
  101OSM   H11F10216   4.017   1.236   9.445 -0.2777  0.4285  0.7229
  101OSM   H11G10217   3.848   1.249   9.415 -0.0785  1.2814 -1.4179
  101OSM   C12F10218   3.955   1.129   9.270 -0.8767  0.0111 -0.4792
  101OSM   H12F10219   3.851   1.118   9.233 -0.5746  1.0156 -1.7334
  101OSM   H12G10220   4.016   1.038   9.251 -1.9424 -0.4227 -2.0016
  101OSM   C13F10221   4.010   1.240   9.175  0.7892 -0.4150 -0.0865
  101OSM   H13F10222   4.117   1.253   9.201  1.5300  0.5156 -3.1767
  101OSM   H13G10223   3.950   1.328   9.205  1.3034 -0.8269  2.3849
  101OSM   C14F10224   3.982   1.208   9.030 -0.0152  0.0344 -0.4927
  101OSM   H14F10225   3.880   1.164   9.021  0.5955 -1.6241  0.2591
  101OSM   H14G10226   4.062   1.140   8.992  1.2587  1.9228 -1.3378
  101OSM   C15F10227   3.990   1.331   8.933 -0.6538  0.3128 -0.0408
  101OSM   H15F10228   4.002   1.287   8.832 -1.4717 -1.0296  0.4178
  101OSM   H15G10229   4.084   1.380   8.965 -0.7432 -1.3187  3.1132
  101OSM   C16F10230   3.869   1.410   8.936  0.9174 -0.0421 -0.2113
  101OSM   H16F10231   3.830   1.429   9.038 -0.0124  1.9208 -0.8989
  101OSM   H16G10232   3.803   1.351   8.869  1.1327 -0.4063 -0.1085
  101OSM   C17F10233   3.886   1.559   8.882 -0.1586  0.5616 -0.4489
  101OSM   H17F10234   3.913   1.547   8.775  0.0375 -1.4103 -0.2152
  101OSM   H17G10235   3.972   1.598   8.941 -0.4634 -1.2257  1.2805
  101OSM   C18F10236   3.764   1.656   8.905  0.3930  0.5890 -0.1675
  101OSM   H18F10237   3.680   1.623   8.840  0.3680  0.8951 -0.2961
  101OSM   H18G10238   3.790   1.761   8.879 -1.0000  1.8093  2.9157
  101OSM   H18H10239   3.738   1.639   9.011  2.2082 -1.3026  0.0340
  102OSM      N10240   6.738   1.991  10.417 -0.0757 -0.4159 -0.6012
  102OSM    C1510241   6.679   2.081  10.319 -0.3533 -0.6135  0.5094
  102OSM   H15A10242   6.686   2.037  10.221 -0.4408  1.0850 -0.2819
  102OSM   H15B10243   6.726   2.178  10.320 -0.8814 -0.3594  1.2290
  102OSM   H15C10244   6.574   2.095  10.338 -0.4113  0.3218 -0.4158
  102OSM    C1410245   6.743   2.062  10.550  0.4880 -0.4490 -1.2808
  102OSM   H14A10246   6.644   2.072  10.594  0.7021  0.8813 -1.0567
  102OSM   H14B10247   6.793   2.157  10.554  1.9761 -1.2386  2.2861
  102OSM   H14C10248   6.789   2.000  10.625  0.2178  1.7064  0.7929
  102OSM    C1310249   6.666   1.862  10.428 -0.2994 -0.9975  0.1189
  102OSM   H13A10250   6.567   1.896  10.456  0.1691  1.6921 -1.1415
  102OSM   H13B10251   6.699   1.795  10.506  0.7970  1.3352  1.7646
  102OSM   H13C10252   6.664   1.801  10.339  1.6936 -1.0813  0.0830
  102OSM    C1210253   6.877   1.965  10.377  0.2356  0.6123  0.0784
  102OSM   H12A10254   6.879   1.897  10.293 -2.1227  0.4941  0.0634
  102OSM   H12B10255   6.930   1.897  10.442 -1.0641 -0.7062 -0.1762
  102OSM    C1110256   6.971   2.083  10.344 -0.2118  0.6505 -0.0609
  102OSM   H11A10257   6.910   2.161  10.294  1.9995  2.3428 -0.3064
  102OSM   H11B10258   7.054   2.044  10.280 -0.3116 -2.0848  1.3528
  102OSM      P10259   7.065   2.283  10.477 -0.3766  0.0099  0.2194
  102OSM    O1310260   6.931   2.330  10.521 -0.4440  0.1047  0.0661
  102OSM    O1410261   7.178   2.300  10.572  0.9209  0.3309  0.1755
  102OSM    O1110262   7.091   2.350  10.338  0.5684  0.3154  0.7556
  102OSM    O1210263   7.047   2.132  10.449 -0.0114  0.4349 -0.2766
  102OSM    C1S10264   7.079   2.494  10.309 -0.5059 -0.0538 -0.9031
  102OSM    H1S10265   7.163   2.542  10.363 -1.5448  0.5793  0.2040
  102OSM    H1T10266   6.986   2.531  10.358  0.6925  0.8392  0.8097
  102OSM     NF10267   7.128   2.658  10.147 -0.0364 -0.7191 -0.3098
  102OSM    HNF10268   7.068   2.723  10.100 -0.0194 -1.1729 -0.9674
  102OSM    C2S10269   7.098   2.519  10.164  0.0223  0.1645 -0.7322
  102OSM    H2S10270   7.194   2.471  10.132  0.4805  0.8388 -0.3990
  102OSM    C3S10271   6.990   2.444  10.071 -0.6859 -0.9123  0.1931
  102OSM    H3S10272   6.896   2.487  10.111  0.8308  5.1334 -1.7990
  102OSM     O310273   6.992   2.302  10.095  0.1971 -0.0966  0.2601
  102OSM    HO310274   7.029   2.300  10.184  1.4036  2.6383 -0.0762
  102OSM    C4S10275   6.998   2.488   9.933 -0.0103  0.3910  1.1286
  102OSM    H4S10276   6.967   2.593   9.919 -0.0317  0.2647  0.1909
  102OSM    C5S10277   7.040   2.422   9.820 -0.4539  0.0007 -0.2469
  102OSM    H5S10278   7.082   2.320   9.828 -0.7165 -0.1276 -0.4887
  102OSM    C6S10279   7.052   2.485   9.677  0.3318 -0.4339 -0.4917
  102OSM    H6S10280   7.009   2.417   9.601 -0.3306  0.4073 -0.8916
  102OSM    H6T10281   7.155   2.499   9.639  0.6945 -2.0984 -0.1726
  102OSM    C7S10282   6.962   2.606   9.653  0.1959 -0.0433  0.1250
  102OSM    H7S10283   6.992   2.689   9.721  1.2790 -0.1855 -0.1651
  102OSM    H7T10284   6.859   2.568   9.672  0.8745 -3.1296 -1.7604
  102OSM    C8S10285   6.966   2.652   9.501  0.2161  0.5611 -0.2171
  102OSM    H8S10286   6.869   2.703   9.484 -0.6823 -0.4493  1.6388
  102OSM    H8T10287   6.972   2.562   9.436 -2.7809  1.0695 -1.3728
  102OSM    C9S10288   7.077   2.758   9.466  0.4813 -0.3359 -0.5029
  102OSM    H9S10289   7.164   2.692   9.446  0.8877  0.0027  0.1284
  102OSM    H9T10290   7.101   2.824   9.551  1.4513 -0.9013 -0.3214
  102OSM   C10S10291   7.043   2.824   9.333 -0.3745  0.5007 -0.8016
  102OSM   H10S10292   7.120   2.903   9.321  0.2659  0.2938  1.4635
  102OSM   H10T10293   6.945   2.877   9.330 -0.5080  0.2175 -1.8571
  102OSM   C11S10294   7.035   2.716   9.219 -0.2691  0.0252 -0.6309
  102OSM   H11S10295   6.931   2.698   9.183 -0.1122 -1.7288 -0.2665
  102OSM   H11T10296   7.081   2.622   9.255 -0.1169  0.0531 -0.7532
  102OSM   C12S10297   7.119   2.758   9.100 -0.6782 -0.0068  0.2560
  102OSM   H12S10298   7.133   2.671   9.032 -1.0899 -1.9203  2.4857
  102OSM   H12T10299   7.222   2.779   9.136  0.2228 -0.6160 -1.7859
  102OSM   C13S10300   7.066   2.873   9.017  0.3966  0.3986 -0.0271
  102OSM   H13S10301   7.101   2.969   9.060 -2.5979  1.7838 -0.3902
  102OSM   H13T10302   6.955   2.876   9.015  0.3814  0.3168  0.6014
  102OSM   C14S10303   7.128   2.882   8.880 -1.0005  0.9189  0.1680
  102OSM   H14S10304   7.238   2.866   8.890 -1.1893 -1.7454 -1.0957
  102OSM   H14T10305   7.111   2.984   8.840  0.5234  0.7558 -1.0011
  102OSM   C15S10306   7.065   2.792   8.770 -0.5433 -0.3539  0.2821
  102OSM   H15S10307   6.955   2.793   8.787 -0.3210  0.3126  1.9012
  102OSM   H15T10308   7.099   2.686   8.780 -2.5824 -0.8880  2.4857
  102OSM   C16S10309   7.099   2.824   8.623  0.3768  0.2233  0.8648
  102OSM   H16S10310   7.205   2.795   8.607  0.1926  0.6895 -1.4829
  102OSM   H16T10311   7.086   2.932   8.601 -1.2976 -0.2316 -0.6957
  102OSM   C17S10312   7.019   2.741   8.523 -0.5468  0.1083 -0.8698
  102OSM   H17S10313   6.911   2.756   8.545 -0.8660 -2.8714 -0.0395
  102OSM   H17T10314   7.039   2.634   8.540 -0.2374  0.3920  0.6505
  102OSM   C18S10315   7.033   2.775   8.374  0.2759 -0.1824 -0.4997
  102OSM   H18S10316   7.137   2.756   8.340  0.4176 -0.6145  0.1430
  102OSM   H18T10317   7.009   2.879   8.343  0.2402 -0.3846 -1.1607
  102OSM   H18U10318   6.963   2.705   8.323  1.3944 -0.8900 -1.1010
  102OSM    C1F10319   7.235   2.718  10.204  0.4358  0.1487 -0.5291
  102OSM     OF10320   7.335   2.651  10.233 -0.0425 -0.0482 -0.5168
  102OSM    C2F10321   7.230   2.865  10.229 -0.0358  0.5371 -0.4550
  102OSM    H2F10322   7.228   2.900  10.334  2.9630  2.0502 -0.7846
  102OSM    H2G10323   7.133   2.910  10.200 -1.0859 -0.5735  1.2064
  102OSM    C3F10324   7.334   2.934  10.136 -0.5579  1.0378 -1.1940
  102OSM    H3F10325   7.424   2.869  10.130 -1.5014 -0.5433  0.5276
  102OSM    H3G10326   7.345   3.037  10.176  2.7228 -0.0455  1.1341
  102OSM    C4F10327   7.275   2.932   9.993 -0.2375  0.1258 -0.7211
  102OSM    H4F10328   7.175   2.980   9.998 -0.2726  0.2901 -2.5447
  102OSM    H4G10329   7.267   2.829   9.952  1.6856 -0.3466 -0.0464
  102OSM    C5F10330   7.366   3.012   9.906  0.1077 -0.7856 -0.5886
  102OSM    H5F10331   7.467   2.965   9.895  0.2020 -0.3828 -1.4525
  102OSM    H5G10332   7.374   3.116   9.946 -1.6819 -0.6316 -0.5864
  102OSM    C6F10333   7.311   3.029   9.764 -0.6918  0.0133 -0.5481
  102OSM    H6F10334   7.213   3.079   9.779 -0.5435  0.0156  0.5217
  102OSM    H6G10335   7.290   2.928   9.722  1.5731 -0.1497 -1.3865
  102OSM    C7F10336   7.415   3.098   9.672 -0.3592  0.1395  0.0710
  102OSM    H7F10337   7.497   3.025   9.660 -0.7667 -0.1498 -1.0017
  102OSM    H7G10338   7.458   3.190   9.717  3.1766 -0.7906 -1.1111
  102OSM    C8F10339   7.373   3.114   9.531 -0.0562  0.3975 -0.1342
  102OSM    H8F10340   7.276   3.169   9.530 -0.3380 -0.0901 -1.0844
  102OSM    H8G10341   7.357   3.015   9.484  0.4719  0.1050  0.2903
  102OSM    C9F10342   7.469   3.202   9.457 -0.0774 -0.2726 -0.2918
  102OSM    H9F10343   7.510   3.293   9.503 -1.9266  1.0212 -1.0664
  102OSM   C10F10344   7.496   3.180   9.331  0.3177  0.4770 -0.4201
  102OSM   H10F10345   7.570   3.243   9.278 -2.3837  3.6728 -0.7015
  102OSM   C11F10346   7.439   3.074   9.239  0.1644 -0.5494  0.8515
  102OSM   H11F10347   7.328   3.076   9.248  0.1189 -0.6291  0.2913
  102OSM   H11G10348   7.463   2.969   9.266  1.3023 -0.4714  0.2022
  102OSM   C12F10349   7.478   3.088   9.092 -0.1882 -0.5428  0.2710
  102OSM   H12F10350   7.452   2.993   9.040  0.3639  0.4628 -1.9527
  102OSM   H12G10351   7.589   3.099   9.085 -0.2033 -0.2021  0.6193
  102OSM   C13F10352   7.415   3.202   9.020  0.0514  0.0920 -0.0998
  102OSM   H13F10353   7.449   3.298   9.063 -0.1018 -0.1049  0.4649
  102OSM   H13G10354   7.305   3.191   9.025 -0.2252  0.3947 -3.3112
  102OSM   C14F10355   7.445   3.214   8.866  0.9876  0.4792 -0.8944
  102OSM   H14F10356   7.554   3.228   8.853  1.2720 -0.3922  0.3454
  102OSM   H14G10357   7.393   3.301   8.820  0.6088  0.3175 -0.7798
  102OSM   C15F10358   7.391   3.090   8.783  0.1107 -0.0692 -0.0060
  102OSM   H15F10359   7.281   3.090   8.795 -0.1188  1.2465 -1.7159
  102OSM   H15G10360   7.418   2.993   8.831 -0.3352  0.0152  0.4176
  102OSM   C16F10361   7.420   3.102   8.634  0.6466  0.0794 -0.1267
  102OSM   H16F10362   7.404   2.998   8.598  0.5947 -0.7548  2.1363
  102OSM   H16G10363   7.527   3.132   8.628  1.3782 -2.4270 -0.7055
  102OSM   C17F10364   7.349   3.204   8.559  0.3085 -0.7378 -0.3701
  102OSM   H17F10365   7.377   3.309   8.585  0.5693 -1.1713  1.1991
  102OSM   H17G10366   7.240   3.188   8.573  0.1292 -2.0568 -2.7726
  102OSM   C18F10367   7.381   3.190   8.409 -0.6805  0.0426 -0.3760
  102OSM   H18F10368   7.343   3.092   8.374  0.1962 -0.4841  0.1093
  102OSM   H18G10369   7.490   3.187   8.385 -0.1651 -1.3190  1.8138
  102OSM   H18H10370   7.336   3.272   8.349 -0.1996  2.0253  1.8177
  103OSM      N10371   6.028   0.548  10.667  0.5504  0.4586  0.3165
  103OSM    C1510372   5.883   0.521  10.652  0.5449 -0.4635 -0.2464
  103OSM   H15A10373   5.821   0.503  10.739 -0.5787  0.9006 -0.7283
  103OSM   H15B10374   5.865   0.439  10.583 -0.5662  0.1041 -0.6493
  103OSM   H15C10375   5.846   0.609  10.602  1.5029 -0.5711 -1.1616
  103OSM    C1410376   6.032   0.695  10.669 -0.2346 -0.5761  0.1817
  103OSM   H14A10377   5.986   0.737  10.757 -0.3799  1.6802 -0.9028
  103OSM   H14B10378   5.970   0.748  10.598  0.5893  2.7651  1.7391
  103OSM   H14C10379   6.130   0.741  10.673 -0.5603  0.3988 -1.6331
  103OSM    C1310380   6.092   0.492  10.793  0.0074 -0.6746 -0.3048
  103OSM   H13A10381   6.096   0.385  10.778 -1.9969 -0.7649 -0.4925
  103OSM   H13B10382   6.027   0.492  10.879  0.0695 -1.2677 -0.2518
  103OSM   H13C10383   6.197   0.511  10.808 -0.1699 -0.8631  1.3494
  103OSM    C1210384   6.099   0.493  10.546 -0.3064  0.4551 -0.5093
  103OSM   H12A10385   6.202   0.525  10.554  0.0936 -1.1751  1.6442
  103OSM   H12B10386   6.065   0.552  10.461  2.5152  3.2489  0.0961
  103OSM    C1110387   6.093   0.344  10.522 -0.4924  0.5078 -0.2278
  103OSM   H11A10388   6.145   0.323  10.426 -0.3585 -2.1523  0.3612
  103OSM   H11B10389   5.985   0.319  10.516 -0.3999  0.0672 -0.0616
  103OSM      P10390   6.254   0.158  10.615 -0.0425  0.1709 -0.1865
  103OSM    O1310391   6.271   0.089  10.744  0.3728  0.3076  0.3216
  103OSM    O1410392   6.195   0.078  10.508  0.0356  0.5113 -0.3827
  103OSM    O1110393   6.399   0.207  10.572  0.1386 -0.7595 -0.2758
  103OSM    O1210394   6.169   0.282  10.633  0.0200  0.3443  0.2492
  103OSM    C1S10395   6.481   0.133  10.485 -1.2609 -0.1913  0.1314
  103OSM    H1S10396   6.473   0.025  10.509  1.3170  0.0923  2.8143
  103OSM    H1T10397   6.588   0.158  10.502 -1.2138 -0.2879 -0.0188
  103OSM     NF10398   6.511   0.074  10.247  0.0386 -0.0285 -0.0192
  103OSM    HNF10399   6.573   0.118  10.183  0.5752  1.8093  1.6687
  103OSM    C2S10400   6.449   0.168  10.339  0.1226  0.0361 -0.5051
  103OSM    H2S10401   6.339   0.157  10.330  0.0254 -0.3251  0.8573
  103OSM    C3S10402   6.472   0.321  10.303  0.3834 -0.4417  0.5584
  103OSM    H3S10403   6.580   0.341  10.321  0.2179  3.5276 -1.6651
  103OSM     O310404   6.399   0.406  10.388 -0.5814  0.6926 -0.4417
  103OSM    HO310405   6.369   0.350  10.460 -1.6719 -0.2039 -1.5337
  103OSM    C4S10406   6.439   0.335  10.157 -0.8206 -0.2881 -0.6591
  103OSM    H4S10407   6.521   0.336  10.084 -1.7597  1.1257 -1.7459
  103OSM    C5S10408   6.322   0.359  10.101  0.0614  0.7815 -0.3920
  103OSM    H5S10409   6.234   0.364  10.167  0.0510 -0.7418 -0.2442
  103OSM    C6S10410   6.308   0.368   9.951  0.4852  0.0114 -0.4118
  103OSM    H6S10411   6.400   0.403   9.900  0.5634 -2.7620 -2.4618
  103OSM    H6T10412   6.223   0.436   9.929 -2.3991 -3.2477 -0.3345
  103OSM    C7S10413   6.291   0.230   9.883 -0.2886 -0.1056 -0.2813
  103OSM    H7S10414   6.192   0.185   9.906  0.5195 -1.1556  1.3063
  103OSM    H7T10415   6.369   0.157   9.911 -1.1331 -1.1743 -0.6578
  103OSM    C8S10416   6.298   0.244   9.731 -1.2288  0.2311 -0.7813
  103OSM    H8S10417   6.256   0.342   9.701  2.5849  1.8377 -1.4616
  103OSM    H8T10418   6.249   0.163   9.673  0.1234 -0.9419 -0.3553
  103OSM    C9S10419   6.451   0.246   9.693  0.1507 -0.3473 -0.0768
  103OSM    H9S10420   6.492   0.143   9.703  0.8789  0.0335  1.0608
  103OSM    H9T10421   6.508   0.309   9.764 -1.3094 -0.3811  1.1650
  103OSM   C10S10422   6.484   0.288   9.545  0.1226 -0.3613  0.1689
  103OSM   H10S10423   6.584   0.250   9.514  1.4062  2.5278  0.4355
  103OSM   H10T10424   6.511   0.395   9.551  1.9272 -0.7397 -0.5799
  103OSM   C11S10425   6.375   0.257   9.437 -0.0617  0.0862 -0.6226
  103OSM   H11S10426   6.406   0.306   9.342 -1.0410  2.2924  0.1418
  103OSM   H11T10427   6.282   0.304   9.474  1.0525  0.3037  2.1656
  103OSM   C12S10428   6.353   0.104   9.408  0.2261 -0.0005 -0.1970
  103OSM   H12S10429   6.303   0.057   9.496 -0.5984  2.2487  0.5966
  103OSM   H12T10430   6.449   0.048   9.406  1.1092  1.4208  0.8827
  103OSM   C13S10431   6.267   0.084   9.275 -0.1570  0.1374  0.4926
  103OSM   H13S10432   6.324   0.135   9.194  0.1103 -1.3025 -0.2452
  103OSM   H13T10433   6.166   0.129   9.287 -0.4819 -0.7690  1.3160
  103OSM   C14S10434   6.259  -0.065   9.230  0.9225 -0.3646  0.7766
  103OSM   H14S10435   6.294  -0.126   9.316  0.6936  0.8443  1.7635
  103OSM   H14T10436   6.350  -0.074   9.167 -0.8697  1.9974 -2.4379
  103OSM   C15S10437   6.135  -0.114   9.154  0.1212 -0.2903  0.3592
  103OSM   H15S10438   6.113  -0.025   9.091 -0.5739  0.2097  1.2713
  103OSM   H15T10439   6.044  -0.128   9.216 -1.2949 -0.4789 -1.6694
  103OSM   C16S10440   6.164  -0.233   9.069  0.6496 -0.6613 -0.1380
  103OSM   H16S10441   6.184  -0.318   9.138 -2.3477 -2.4201 -1.2599
  103OSM   H16T10442   6.256  -0.217   9.009 -0.8230  0.3844 -2.2366
  103OSM   C17S10443   6.039  -0.268   8.987 -0.3202  0.0169 -0.2943
  103OSM   H17S10444   5.996  -0.172   8.950 -1.4693  0.9301  3.0742
  103OSM   H17T10445   5.960  -0.285   9.063  1.8388  0.7541  2.2459
  103OSM   C18S10446   6.026  -0.393   8.890  0.0082 -0.0024  0.5441
  103OSM   H18S10447   5.926  -0.387   8.842  0.2847  0.6299  0.0312
  103OSM   H18T10448   6.018  -0.482   8.956 -2.0689  0.3319  0.8346
  103OSM   H18U10449   6.114  -0.397   8.822 -0.7967 -2.7099 -0.4880
  103OSM    C1F10450   6.475  -0.051  10.234 -0.1760 -0.2369  0.4318
  103OSM     OF10451   6.395  -0.093  10.317 -0.3310  0.3659  0.3231
  103OSM    C2F10452   6.543  -0.130  10.127 -0.0215  0.5030 -0.0539
  103OSM    H2F10453   6.648  -0.150  10.157  0.3376 -1.5198 -2.3428
  103OSM    H2G10454   6.539  -0.071  10.033 -2.0713  1.7778  0.7636
  103OSM    C3F10455   6.473  -0.271  10.106 -0.4951 -0.1999 -0.8070
  103OSM    H3F10456   6.364  -0.253  10.096 -0.6413  0.6202  1.5726
  103OSM    H3G10457   6.476  -0.340  10.193 -0.1898 -2.8959 -2.8200
  103OSM    C4F10458   6.525  -0.358   9.989 -0.3441  0.3231 -0.3523
  103OSM    H4F10459   6.459  -0.444   9.966 -0.6748  0.0347  1.4889
  103OSM    H4G10460   6.631  -0.384  10.007 -0.1566  1.2697 -0.0198
  103OSM    C5F10461   6.517  -0.274   9.860  0.2610  0.1929  0.5077
  103OSM    H5F10462   6.602  -0.204   9.846 -0.0754  1.0271  2.3291
  103OSM    H5G10463   6.436  -0.199   9.868  1.0256  1.3998 -1.8589
  103OSM    C6F10464   6.493  -0.358   9.728 -0.3619  0.0540 -0.5681
  103OSM    H6F10465   6.512  -0.286   9.645  2.3384 -0.6766 -0.6902
  103OSM    H6G10466   6.393  -0.404   9.720 -1.5573  1.5303  3.4423
  103OSM    C7F10467   6.606  -0.463   9.707  0.2677  0.5000 -0.3887
  103OSM    H7F10468   6.588  -0.539   9.786 -1.3536 -2.2369 -3.1684
  103OSM    H7G10469   6.705  -0.413   9.720  0.4657 -0.0577  0.3005
  103OSM    C8F10470   6.585  -0.534   9.571 -0.0139  0.0984  0.1718
  103OSM    H8F10471   6.479  -0.564   9.577  0.5915 -2.0324  0.9941
  103OSM    H8G10472   6.647  -0.626   9.576  0.3666  0.3865  4.0855
  103OSM    C9F10473   6.614  -0.435   9.460  0.3041  0.0600  0.2784
  103OSM    H9F10474   6.704  -0.374   9.476  0.4585  0.9579 -3.0663
  103OSM   C10F10475   6.535  -0.405   9.352 -0.4914  0.3073  0.7776
  103OSM   H10F10476   6.589  -0.342   9.280  2.4401 -2.0168  0.7354
  103OSM   C11F10477   6.411  -0.482   9.318  0.6320 -0.1896 -0.1075
  103OSM   H11F10478   6.327  -0.424   9.360 -0.7248 -1.5727 -0.7844
  103OSM   H11G10479   6.405  -0.583   9.363 -0.0005 -1.2246 -2.3322
  103OSM   C12F10480   6.389  -0.499   9.163  0.3960  0.1209 -0.4614
  103OSM   H12F10481   6.375  -0.400   9.113 -2.7680  0.6158  1.1933
  103OSM   H12G10482   6.292  -0.552   9.158  1.1294 -1.2849 -0.3779
  103OSM   C13F10483   6.498  -0.575   9.090 -0.5205 -0.1773 -0.2488
  103OSM   H13F10484   6.509  -0.673   9.141  1.4062  0.2954  0.3116
  103OSM   H13G10485   6.598  -0.526   9.090 -0.1179 -0.8169 -3.2437
  103OSM   C14F10486   6.479  -0.598   8.946  0.2995 -0.4069  0.0067
  103OSM   H14F10487   6.556  -0.664   8.900  1.9898  2.0007 -0.7762
  103OSM   H14G10488   6.505  -0.497   8.908  1.0986 -0.0259  1.4904
  103OSM   C15F10489   6.341  -0.638   8.900  0.7626  0.1652  0.4747
  103OSM   H15F10490   6.277  -0.549   8.919  0.7148  0.0078  1.0457
  103OSM   H15G10491   6.301  -0.709   8.975  0.7260  0.8440  1.1050
  103OSM   C16F10492   6.316  -0.695   8.756 -0.7764 -0.7782 -0.5683
  103OSM   H16F10493   6.389  -0.774   8.728  1.3457 -0.1533  2.6111
  103OSM   H16G10494   6.340  -0.615   8.683  1.8522 -0.7900  0.1715
  103OSM   C17F10495   6.169  -0.736   8.725  0.3171  0.1718  0.2050
  103OSM   H17F10496   6.114  -0.645   8.758 -1.1376 -0.7532  0.4445
  103OSM   H17G10497   6.143  -0.827   8.784 -0.2990  0.3259  0.1759
  103OSM   C18F10498   6.165  -0.764   8.572  0.6770  0.3052  0.2513
  103OSM   H18F10499   6.234  -0.847   8.548  0.1699 -0.4995  1.4673
  103OSM   H18G10500   6.196  -0.666   8.529 -1.1116  0.4919 -0.7070
  103OSM   H18H10501   6.063  -0.779   8.531  1.5998  0.7446 -2.4067
  104OSM      N10502   0.565   5.716  10.849 -0.0855 -0.9786 -0.4746
  104OSM    C1510503   0.655   5.664  10.960 -1.2072 -0.0896  0.0308
  104OSM   H15A10504   0.615   5.682  11.059  0.7141 -1.0746  1.0327
  104OSM   H15B10505   0.754   5.706  10.953  0.2266 -3.1108  0.5913
  104OSM   H15C10506   0.681   5.559  10.953 -0.5566  0.0277  0.6002
  104OSM    C1410507   0.432   5.661  10.863  0.1390 -0.4268 -0.4393
  104OSM   H14A10508   0.424   5.554  10.851 -0.0342 -0.5501  0.7006
  104OSM   H14B10509   0.362   5.694  10.787  0.7153  3.6510  0.5885
  104OSM   H14C10510   0.384   5.696  10.953 -2.2856  2.4701 -2.6348
  104OSM    C1310511   0.568   5.867  10.870  0.4980  0.7633 -0.3982
  104OSM   H13A10512   0.491   5.913  10.810 -0.3162  2.3724  1.7182
  104OSM   H13B10513   0.665   5.910  10.852  0.1767  1.6201 -0.1797
  104OSM   H13C10514   0.537   5.899  10.969  0.2171  1.4496 -0.6979
  104OSM    C1210515   0.618   5.684  10.708 -0.5196  0.4250 -0.4421
  104OSM   H12A10516   0.720   5.715  10.694  0.0008 -0.0516  1.8749
  104OSM   H12B10517   0.554   5.737  10.639 -0.8258  1.5179  0.6541
  104OSM    C1110518   0.624   5.528  10.689 -0.7598 -0.2961 -0.4327
  104OSM   H11A10519   0.618   5.523  10.578 -0.8903 -0.2810 -0.4258
  104OSM   H11B10520   0.541   5.472  10.737 -1.1150  0.6000  0.0214
  104OSM      P10521   0.882   5.464  10.650  0.2064  0.3430 -0.2741
  104OSM    O1310522   1.001   5.515  10.725 -0.4592  0.1608  0.2750
  104OSM    O1410523   0.893   5.325  10.600  0.3292 -0.9531 -0.1386
  104OSM    O1110524   0.858   5.569  10.528 -0.0358 -0.3450 -0.3497
  104OSM    O1210525   0.746   5.476  10.732  0.4165  0.1144 -0.5970
  104OSM    C1S10526   0.840   5.511  10.400  0.8828  0.0729 -0.1219
  104OSM    H1S10527   0.770   5.425  10.402 -1.3125  1.7381 -0.7194
  104OSM    H1T10528   0.937   5.475  10.359  0.5965 -2.5671  1.3042
  104OSM     NF10529   0.711   5.546  10.180  0.1179  0.0758  0.2399
  104OSM    HNF10530   0.772   5.556  10.101 -0.3825  3.7480  0.1484
  104OSM    C2S10531   0.771   5.611  10.305 -0.9328  0.6703  0.3371
  104OSM    H2S10532   0.678   5.639  10.359 -0.5012  0.2131  1.3472
  104OSM    C3S10533   0.865   5.738  10.282  0.5486  0.5551 -0.3702
  104OSM    H3S10534   0.949   5.698  10.221 -0.7979 -2.9205 -0.1567
  104OSM     O310535   0.913   5.791  10.400 -0.3725 -0.0113 -1.0639
  104OSM    HO310536   0.902   5.715  10.457 -0.9874  1.1424  0.4401
  104OSM    C4S10537   0.784   5.834  10.202  0.3571 -0.6855  0.3116
  104OSM    H4S10538   0.776   5.794  10.100  1.4604  0.0755 -0.0905
  104OSM    C5S10539   0.720   5.945  10.237 -0.1112  0.5698  0.2723
  104OSM    H5S10540   0.723   5.982  10.340  1.8336 -0.8326  0.7741
  104OSM    C6S10541   0.652   6.037  10.140  0.7299 -0.0433 -0.1346
  104OSM    H6S10542   0.687   6.136  10.175  1.5437 -1.1703  2.4974
  104OSM    H6T10543   0.541   6.029  10.142  0.7028  0.0453 -0.8706
  104OSM    C7S10544   0.680   6.030   9.990 -0.2356  0.2382 -0.3157
  104OSM    H7S10545   0.662   5.929   9.947  0.7398 -0.1477  0.1536
  104OSM    H7T10546   0.791   6.032   9.991 -0.1698 -0.4319 -2.2158
  104OSM    C8S10547   0.621   6.140   9.915  0.4012 -0.3899  0.0109
  104OSM    H8S10548   0.619   6.229   9.982 -0.2600  0.0619 -0.5956
  104OSM    H8T10549   0.511   6.129   9.906  0.2612  0.8977 -0.0963
  104OSM    C9S10550   0.686   6.167   9.777 -0.1300 -0.0474 -0.7496
  104OSM    H9S10551   0.791   6.185   9.808  0.0507 -0.1649 -1.2785
  104OSM    H9T10552   0.641   6.251   9.719 -0.8269 -1.9976 -3.2200
  104OSM   C10S10553   0.702   6.055   9.677  0.0066 -0.8525  0.0784
  104OSM   H10S10554   0.599   6.014   9.684 -0.0648 -0.5837  0.7233
  104OSM   H10T10555   0.762   5.970   9.716  0.7525  0.2246  1.3756
  104OSM   C11S10556   0.743   6.097   9.533  0.7116 -0.0271 -0.4163
  104OSM   H11S10557   0.851   6.117   9.550  0.8455 -0.8559 -0.2529
  104OSM   H11T10558   0.680   6.187   9.518 -1.1475 -1.6264 -3.1114
  104OSM   C12S10559   0.725   5.997   9.425 -0.7172  0.7045 -0.4663
  104OSM   H12S10560   0.614   5.990   9.414 -0.6667  0.1788 -0.6657
  104OSM   H12T10561   0.759   5.894   9.448  0.0163  0.3886 -2.7316
  104OSM   C13S10562   0.803   6.030   9.295  0.5945  0.0915  0.2678
  104OSM   H13S10563   0.909   5.995   9.296  0.0209 -1.7975 -0.4093
  104OSM   H13T10564   0.797   6.140   9.281 -3.8195  0.0521  0.3259
  104OSM   C14S10565   0.746   5.950   9.176 -0.3728 -0.5298 -0.5603
  104OSM   H14S10566   0.638   5.972   9.165 -0.6046 -1.0060  0.6717
  104OSM   H14T10567   0.759   5.844   9.210 -3.2472 -0.4730  0.9963
  104OSM   C15S10568   0.830   5.974   9.051 -0.0299  1.0042 -0.4111
  104OSM   H15S10569   0.934   5.938   9.068 -0.6988 -0.9135 -0.1025
  104OSM   H15T10570   0.823   6.080   9.018  0.2908  0.4809 -2.2888
  104OSM   C16S10571   0.787   5.894   8.926 -0.0480  1.0627  0.2537
  104OSM   H16S10572   0.682   5.861   8.937  0.3911  0.3118  2.7217
  104OSM   H16T10573   0.847   5.800   8.927 -0.4977  0.7549 -0.8635
  104OSM   C17S10574   0.814   5.964   8.793  0.1888  0.1906 -0.1815
  104OSM   H17S10575   0.924   5.980   8.798  0.6878 -2.5294 -0.6291
  104OSM   H17T10576   0.751   6.055   8.784 -0.7207 -0.5517 -1.6692
  104OSM   C18S10577   0.794   5.868   8.681  0.2015  0.2125 -0.0540
  104OSM   H18S10578   0.853   5.776   8.701 -0.4083  0.0332  1.0132
  104OSM   H18T10579   0.827   5.906   8.582  1.8533 -0.4544  0.2005
  104OSM   H18U10580   0.690   5.831   8.667 -0.0580  0.5298  0.9371
  104OSM    C1F10581   0.612   5.457  10.181  0.2798 -0.6985 -0.1931
  104OSM     OF10582   0.525   5.469  10.265  0.0298  0.2217 -0.3148
  104OSM    C2F10583   0.614   5.341  10.092 -0.2527 -0.3923 -0.3589
  104OSM    H2F10584   0.645   5.254  10.155  0.0044  1.8109  2.7955
  104OSM    H2G10585   0.694   5.354  10.016 -1.2767 -0.3828 -1.4630
  104OSM    C3F10586   0.471   5.319  10.032  0.5985  0.3176 -0.0360
  104OSM    H3F10587   0.446   5.418   9.989  1.9257  1.2294  1.2015
  104OSM    H3G10588   0.394   5.296  10.110 -1.9863  1.1151 -2.2130
  104OSM    C4F10589   0.459   5.220   9.923  0.8210  0.5724  0.0868
  104OSM    H4F10590   0.350   5.201   9.913  1.0119  0.6973 -4.1405
  104OSM    H4G10591   0.507   5.124   9.952  0.6534  0.5699  0.3636
  104OSM    C5F10592   0.519   5.286   9.797  0.2327 -0.3136 -0.6904
  104OSM    H5F10593   0.627   5.311   9.810 -0.0062  0.5215 -0.2368
  104OSM    H5G10594   0.459   5.378   9.779 -0.4074 -0.7112 -0.5727
  104OSM    C6F10595   0.503   5.215   9.658 -0.2161  0.3809  0.1962
  104OSM    H6F10596   0.527   5.293   9.583 -0.8385  1.3512  0.9724
  104OSM    H6G10597   0.398   5.183   9.640 -0.1801  0.2722  0.1777
  104OSM    C7F10598   0.605   5.098   9.656  0.3139 -0.0651 -0.5373
  104OSM    H7F10599   0.560   5.021   9.721 -0.3925  1.2143  0.5351
  104OSM    H7G10600   0.701   5.130   9.702  0.2715 -0.5655 -0.0972
  104OSM    C8F10601   0.618   5.034   9.515  0.1951 -0.2244 -0.3976
  104OSM    H8F10602   0.524   5.036   9.456  0.1947 -1.8081 -0.4759
  104OSM    H8G10603   0.646   4.927   9.525  2.5936  0.2822 -1.0678
  104OSM    C9F10604   0.722   5.108   9.440 -0.3435  0.1359  0.1849
  104OSM    H9F10605   0.818   5.117   9.493  0.5506  0.2636 -1.3863
  104OSM   C10F10606   0.709   5.174   9.323  0.2174  0.2053 -0.1976
  104OSM   H10F10607   0.804   5.219   9.290  0.6458  0.6427  1.5469
  104OSM   C11F10608   0.594   5.186   9.231 -0.4522  0.0915  0.2072
  104OSM   H11F10609   0.601   5.264   9.151 -2.9801  0.6444  0.4506
  104OSM   H11G10610   0.501   5.203   9.289 -0.8169 -1.7291  0.2185
  104OSM   C12F10611   0.568   5.052   9.154 -0.0779 -0.1244 -0.3795
  104OSM   H12F10612   0.475   5.064   9.094  1.2615  2.7376 -2.1014
  104OSM   H12G10613   0.567   4.957   9.212 -2.1617  1.4877  2.4700
  104OSM   C13F10614   0.671   5.032   9.040 -0.2123 -0.5986  0.5955
  104OSM   H13F10615   0.772   5.032   9.088 -0.8829  0.4789  2.1005
  104OSM   H13G10616   0.672   5.112   8.963  0.6461  0.2807  1.4869
  104OSM   C14F10617   0.643   4.902   8.961 -0.0106 -0.6244 -0.0027
  104OSM   H14F10618   0.647   4.823   9.039 -0.9753  0.5023  1.2306
  104OSM   H14G10619   0.729   4.888   8.893  0.2994 -0.9942  0.4595
  104OSM   C15F10620   0.522   4.902   8.870 -0.5364 -0.3501 -0.2266
  104OSM   H15F10621   0.515   4.994   8.807  0.4747 -1.0152 -1.3650
  104OSM   H15G10622   0.427   4.909   8.928 -0.2688  1.0810  0.0855
  104OSM   C16F10623   0.516   4.780   8.779 -0.2269 -0.8426 -0.6031
  104OSM   H16F10624   0.430   4.808   8.714  0.4199  0.0286 -1.1029
  104OSM   H16G10625   0.503   4.688   8.839  2.9136 -0.3596  1.0553
  104OSM   C17F10626   0.634   4.760   8.687 -0.0834 -0.4183 -0.4352
  104OSM   H17F10627   0.603   4.675   8.622 -1.9028 -0.1049 -0.0547
  104OSM   H17G10628   0.724   4.730   8.745  0.5124  2.3778  0.2327
  104OSM   C18F10629   0.662   4.882   8.594  0.5221 -0.3814 -0.5057
  104OSM   H18F10630   0.566   4.923   8.556  1.1703 -0.1289 -1.9444
  104OSM   H18G10631   0.722   4.850   8.506  1.1126  1.0144 -0.6423
  104OSM   H18H10632   0.712   4.969   8.644 -0.1183  0.1942 -0.8557
  105OSM      N10633   3.775   2.273  10.620  0.5744  0.7244  0.3830
  105OSM    C1510634   3.800   2.361  10.506 -0.3564  0.0138 -0.0733
  105OSM   H15A10635   3.846   2.304  10.426  1.2692 -2.1210  2.2330
  105OSM   H15B10636   3.863   2.440  10.545 -0.5726 -1.2337  3.0925
  105OSM   H15C10637   3.711   2.397  10.455  0.6279  0.6575 -1.3948
  105OSM    C1410638   3.902   2.190  10.656  0.1169 -0.0639  0.2380
  105OSM   H14A10639   3.966   2.253  10.715  2.2962 -1.9659  0.0551
  105OSM   H14B10640   3.959   2.175  10.565 -0.3993 -2.6423  0.2580
  105OSM   H14C10641   3.885   2.097  10.707  2.5205 -0.8214 -0.1966
  105OSM    C1310642   3.728   2.369  10.728 -0.6131 -0.0099 -0.3501
  105OSM   H13A10643   3.689   2.319  10.816  0.5742 -1.6298 -0.7061
  105OSM   H13B10644   3.660   2.447  10.697 -1.0952  0.0132  0.7159
  105OSM   H13C10645   3.813   2.418  10.773  0.6045 -1.6576 -0.7899
  105OSM    C1210646   3.663   2.175  10.571  0.3387 -0.5775 -0.3232
  105OSM   H12A10647   3.708   2.128  10.485  1.8095  0.6235 -0.2604
  105OSM   H12B10648   3.579   2.232  10.534  1.2566 -0.2336 -1.9926
  105OSM    C1110649   3.600   2.078  10.673 -0.3045 -0.3383  0.2307
  105OSM   H11A10650   3.684   2.010  10.698  1.0630  1.2209  0.0181
  105OSM   H11B10651   3.515   2.022  10.628 -0.5858 -0.4031  0.8346
  105OSM      P10652   3.413   2.223  10.778 -0.1501 -0.0333 -0.3091
  105OSM    O1310653   3.317   2.143  10.862  0.2967 -0.3277  0.5865
  105OSM    O1410654   3.422   2.370  10.809 -0.4099  0.1886  0.0201
  105OSM    O1110655   3.370   2.200  10.626  0.5912  0.3508 -0.3418
  105OSM    O1210656   3.550   2.148  10.790  0.0942  0.1556 -0.0652
  105OSM    C1S10657   3.361   2.309  10.540  0.2224 -0.0303  0.2913
  105OSM    H1S10658   3.459   2.361  10.544  0.5964 -0.7695  1.1172
  105OSM    H1T10659   3.278   2.378  10.567  0.3502 -0.2473  1.2855
  105OSM     NF10660   3.359   2.369  10.305 -0.5351  0.0918  0.3749
  105OSM    HNF10661   3.282   2.427  10.280 -0.0007  0.0380 -1.5468
  105OSM    C2S10662   3.327   2.261  10.399  0.2361 -0.5864  0.1759
  105OSM    H2S10663   3.378   2.167  10.371  0.5743 -0.3761  0.0776
  105OSM    C3S10664   3.174   2.220  10.401  0.7139 -0.3441  0.1666
  105OSM    H3S10665   3.132   2.313  10.447  1.5606 -0.6510  1.6385
  105OSM     O310666   3.131   2.116  10.498 -0.2586 -0.6503  0.4567
  105OSM    HO310667   3.204   2.103  10.559  0.3801  2.8760  0.7027
  105OSM    C4S10668   3.116   2.188  10.267  1.0296  0.1500 -0.1244
  105OSM    H4S10669   3.085   2.273  10.205 -1.4369  0.4277  1.3897
  105OSM    C5S10670   3.115   2.071  10.200 -0.2639  0.3544 -0.8231
  105OSM    H5S10671   3.163   1.983  10.246  1.3298  0.8788 -1.4281
  105OSM    C6S10672   3.062   2.057  10.058  0.2890  0.4837 -0.6195
  105OSM    H6S10673   2.998   1.967  10.049  0.1312  0.4711  0.4784
  105OSM    H6T10674   3.152   2.033   9.998 -0.3215 -0.2138 -1.2681
  105OSM    C7S10675   2.997   2.177   9.990  0.0247  0.8598  0.5933
  105OSM    H7S10676   3.047   2.274  10.010 -1.2992  1.6972  0.0362
  105OSM    H7T10677   2.897   2.202  10.031  0.5611 -0.1537  2.6387
  105OSM    C8S10678   2.982   2.165   9.839 -0.3365  0.4041  1.1651
  105OSM    H8S10679   2.890   2.109   9.813  0.1634 -0.1150  0.5025
  105OSM    H8T10680   3.055   2.088   9.807 -0.1357  0.8130  0.6383
  105OSM    C9S10681   3.001   2.298   9.753  0.3264 -0.1860 -0.3774
  105OSM    H9S10682   3.109   2.322   9.745  0.6894 -0.8908  1.6971
  105OSM    H9T10683   2.959   2.386   9.807  1.8034 -0.1481  0.7805
  105OSM   C10S10684   2.945   2.309   9.608 -0.0148 -0.2446  0.6356
  105OSM   H10S10685   2.941   2.419   9.592  0.7898 -0.4180 -0.8443
  105OSM   H10T10686   2.843   2.265   9.605  0.6250 -1.7268 -0.7224
  105OSM   C11S10687   3.027   2.251   9.496  0.7288  0.0394 -0.2395
  105OSM   H11S10688   3.050   2.143   9.507  2.5662  0.4145 -0.2216
  105OSM   H11T10689   3.129   2.289   9.513  0.2609  2.2855 -1.9739
  105OSM   C12S10690   2.987   2.293   9.354  0.0220  0.3043 -0.2204
  105OSM   H12S10691   2.976   2.404   9.356 -0.4734  0.3256 -2.3211
  105OSM   H12T10692   2.892   2.239   9.334 -0.4714  1.3640 -0.8202
  105OSM   C13S10693   3.093   2.265   9.248 -0.2851  0.4068 -0.9352
  105OSM   H13S10694   3.115   2.156   9.248  1.5028  0.7328 -0.6136
  105OSM   H13T10695   3.181   2.330   9.271 -0.4719 -0.1014  1.4177
  105OSM   C14S10696   3.046   2.308   9.111 -0.0132 -0.5904 -1.1593
  105OSM   H14S10697   2.995   2.407   9.108 -0.5994 -0.8726 -0.7535
  105OSM   H14T10698   2.973   2.235   9.069 -2.6333  0.8435  0.5542
  105OSM   C15S10699   3.156   2.313   9.005  0.3723 -0.1471 -0.5266
  105OSM   H15S10700   3.203   2.213   8.996  0.5037 -0.1110 -0.2536
  105OSM   H15T10701   3.231   2.385   9.045 -1.7888  1.6710  0.5042
  105OSM   C16S10702   3.117   2.368   8.867  0.7407  0.4689  1.2013
  105OSM   H16S10703   3.066   2.466   8.870  1.4948  0.9375 -0.1646
  105OSM   H16T10704   3.045   2.291   8.831 -0.3186  2.1115 -0.3871
  105OSM   C17S10705   3.239   2.395   8.772  0.3366 -0.0786  0.3182
  105OSM   H17S10706   3.307   2.310   8.755  4.5351  2.8265  0.9841
  105OSM   H17T10707   3.305   2.468   8.823  2.4788 -0.3166 -1.9621
  105OSM   C18S10708   3.189   2.447   8.635  0.0851 -0.5983 -0.3484
  105OSM   H18S10709   3.122   2.380   8.577 -2.8794  1.7140  0.1728
  105OSM   H18T10710   3.275   2.481   8.574 -0.8288  1.9220 -0.3256
  105OSM   H18U10711   3.127   2.537   8.655  1.5804  0.5932 -0.9278
  105OSM    C1F10712   3.483   2.385  10.267 -0.6411 -0.6891  0.6868
  105OSM     OF10713   3.574   2.333  10.330 -0.0120 -0.4785  0.3417
  105OSM    C2F10714   3.496   2.480  10.166 -0.6430  0.1304  0.0895
  105OSM    H2F10715   3.437   2.570  10.195 -0.1143  0.2534  0.7818
  105OSM    H2G10716   3.478   2.453  10.059  1.2289 -0.0244 -0.2213
  105OSM    C3F10717   3.640   2.535  10.163  0.2422 -0.4838  0.0096
  105OSM    H3F10718   3.717   2.456  10.166  0.2440 -0.4612  1.9583
  105OSM    H3G10719   3.652   2.585  10.261  2.4618 -0.2597 -0.3276
  105OSM    C4F10720   3.652   2.652  10.060  0.3566 -0.0129  0.9127
  105OSM    H4F10721   3.725   2.719  10.112  0.9713 -0.2452  0.3664
  105OSM    H4G10722   3.558   2.709  10.045  1.1615  1.0110 -0.5078
  105OSM    C5F10723   3.717   2.606   9.927 -0.1146 -0.4000  0.2872
  105OSM    H5F10724   3.639   2.544   9.876  0.4242 -1.4524  0.7185
  105OSM    H5G10725   3.804   2.543   9.956  0.7693  0.8327  0.3716
  105OSM    C6F10726   3.758   2.716   9.827  0.3683  0.1234  0.0408
  105OSM    H6F10727   3.797   2.680   9.730 -1.3366 -0.3904 -0.4889
  105OSM    H6G10728   3.843   2.775   9.869  0.0219  1.1302 -0.6112
  105OSM    C7F10729   3.641   2.813   9.791 -0.5676  0.0163 -0.6280
  105OSM    H7F10730   3.619   2.879   9.877 -2.2549  0.6264 -1.4606
  105OSM    H7G10731   3.552   2.751   9.764 -1.6157  1.0810  0.3115
  105OSM    C8F10732   3.671   2.897   9.667  0.4505 -0.0668  0.1773
  105OSM    H8F10733   3.719   2.832   9.591 -1.9283 -0.5045 -1.0184
  105OSM    H8G10734   3.750   2.971   9.693  2.7868 -2.3532 -0.0009
  105OSM    C9F10735   3.548   2.966   9.615 -0.0974  0.2875  0.5174
  105OSM    H9F10736   3.515   3.056   9.669 -1.7406  0.5690 -0.8792
  105OSM   C10F10737   3.496   2.952   9.491  0.4693  0.1285  0.6038
  105OSM   H10F10738   3.410   3.016   9.466 -0.5702 -1.1190  0.9114
  105OSM   C11F10739   3.535   2.851   9.385 -0.2895 -0.2143  0.1422
  105OSM   H11F10740   3.452   2.826   9.315 -0.9581 -1.2844  1.2741
  105OSM   H11G10741   3.569   2.759   9.437  0.5741 -0.6478 -1.1647
  105OSM   C12F10742   3.648   2.915   9.299  0.0811 -0.2658 -0.7007
  105OSM   H12F10743   3.700   2.834   9.243  0.7902 -0.6157  0.4300
  105OSM   H12G10744   3.724   2.955   9.369  0.1644  1.1410 -1.5588
  105OSM   C13F10745   3.608   3.030   9.203 -0.5211 -0.2391 -0.4406
  105OSM   H13F10746   3.631   3.124   9.259 -0.0153 -1.4249  1.4191
  105OSM   H13G10747   3.499   3.029   9.180  0.0253  0.2768 -3.4220
  105OSM   C14F10748   3.682   3.034   9.075  0.1882 -0.4191  0.1304
  105OSM   H14F10749   3.788   3.004   9.087  0.0541 -0.9758 -0.0197
  105OSM   H14G10750   3.673   3.133   9.026 -3.4837 -0.2171  0.9056
  105OSM   C15F10751   3.628   2.934   8.974 -0.7440 -0.3194 -0.6506
  105OSM   H15F10752   3.528   2.978   8.954  0.1874  2.4791  0.3721
  105OSM   H15G10753   3.614   2.829   9.008  1.3491 -0.5348 -0.2989
  105OSM   C16F10754   3.692   2.920   8.835  0.2704 -0.1535 -0.4061
  105OSM   H16F10755   3.631   2.850   8.774  0.1367  0.1691 -0.6469
  105OSM   H16G10756   3.793   2.879   8.858 -0.2088 -1.0758  0.1010
  105OSM   C17F10757   3.713   3.051   8.751 -0.0376  0.2152 -0.4641
  105OSM   H17F10758   3.777   3.111   8.819  1.6939 -2.4077  0.3860
  105OSM   H17G10759   3.615   3.102   8.737  0.1771  1.4174  1.8931
  105OSM   C18F10760   3.776   3.019   8.614 -0.5012 -0.6014  0.1886
  105OSM   H18F10761   3.883   2.992   8.627 -0.3557 -0.3945 -0.5379
  105OSM   H18G10762   3.781   3.107   8.548  1.6576 -0.7592  0.0823
  105OSM   H18H10763   3.721   2.934   8.568 -0.1554 -1.0747  0.6416
  106OSM      N10764   2.029   1.064  10.943  0.5873  0.1020 -0.5580
  106OSM    C1510765   1.884   1.039  10.902  0.1551 -0.1848 -0.4380
  106OSM   H15A10766   1.804   1.104  10.935  0.1405 -0.4172 -0.0181
  106OSM   H15B10767   1.855   0.936  10.908  0.3656 -0.1578  1.8730
  106OSM   H15C10768   1.878   1.047  10.794 -1.1392 -2.2478 -0.5751
  106OSM    C1410769   2.052   1.201  10.915 -0.3931 -0.5650  0.0736
  106OSM   H14A10770   1.999   1.277  10.971  0.9703  0.4402  0.0434
  106OSM   H14B10771   2.027   1.228  10.814 -1.4942  0.2872  0.5571
  106OSM   H14C10772   2.150   1.235  10.945 -0.9789  1.5043 -0.1760
  106OSM    C1310773   2.041   1.052  11.092  0.2190 -0.3813 -0.0389
  106OSM   H13A10774   1.981   1.131  11.134  3.4994  1.6755  1.1416
  106OSM   H13B10775   2.140   1.079  11.126  0.0966 -0.2998  0.2512
  106OSM   H13C10776   2.004   0.960  11.134 -1.8238  0.0497 -0.7527
  106OSM    C1210777   2.124   0.962  10.882 -0.4452 -0.4988  0.0752
  106OSM   H12A10778   2.104   0.867  10.928  0.8604 -0.8547 -0.0508
  106OSM   H12B10779   2.223   1.001  10.903 -0.1314 -1.7511  1.0144
  106OSM    C1110780   2.109   0.955  10.727 -0.0861  0.8873 -0.0196
  106OSM   H11A10781   2.009   0.913  10.701  0.5412 -0.2175 -0.6875
  106OSM   H11B10782   2.178   0.877  10.690  0.8196  1.1091  1.1430
  106OSM      P10783   2.279   1.123  10.617  0.2474  0.3967  0.0545
  106OSM    O1310784   2.278   1.259  10.562 -0.0306 -0.7529  0.2408
  106OSM    O1410785   2.374   1.096  10.722 -0.0935 -0.5803 -0.2142
  106OSM    O1110786   2.304   1.025  10.495 -0.4980  1.1925 -0.5781
  106OSM    O1210787   2.134   1.075  10.659  0.3224 -0.3246 -0.0343
  106OSM    C1S10788   2.196   0.998  10.406  0.4375  0.7669 -0.4834
  106OSM    H1S10789   2.129   1.084  10.389  0.2282  0.3754 -1.7200
  106OSM    H1T10790   2.136   0.916  10.451  1.3622 -0.3379 -1.2138
  106OSM     NF10791   2.114   0.921  10.197 -0.1220 -0.0880  0.7340
  106OSM    HNF10792   2.071   0.832  10.188 -1.1871  0.3974  0.8427
  106OSM    C2S10793   2.235   0.948  10.274  0.0542  0.2532 -0.7937
  106OSM    H2S10794   2.287   1.030  10.220 -0.7473  0.7766 -0.7804
  106OSM    C3S10795   2.334   0.825  10.278  0.0760  0.5991  1.1675
  106OSM    H3S10796   2.288   0.745  10.340 -0.4454  0.6679  0.8753
  106OSM     O310797   2.456   0.856  10.343  0.4138  0.1451  0.8665
  106OSM    HO310798   2.426   0.892  10.427  2.2802  0.2411  1.5442
  106OSM    C4S10799   2.367   0.778  10.134  0.4730  0.9738 -0.6987
  106OSM    H4S10800   2.295   0.702  10.103 -0.2872  1.3162  0.1769
  106OSM    C5S10801   2.476   0.794  10.060 -0.4598 -0.1797  0.3938
  106OSM    H5S10802   2.562   0.852  10.098 -0.2656 -0.7180  0.7832
  106OSM    C6S10803   2.496   0.723   9.921  0.1075 -0.6234 -0.1277
  106OSM    H6S10804   2.433   0.771   9.842  0.5116  0.2772  0.0865
  106OSM    H6T10805   2.477   0.614   9.934  1.3185 -0.6426  1.7622
  106OSM    C7S10806   2.639   0.754   9.874  0.2966  0.1275  0.2843
  106OSM    H7S10807   2.720   0.697   9.926  1.1859  2.5536  1.7087
  106OSM    H7T10808   2.652   0.864   9.870 -0.9468  0.2315 -2.6805
  106OSM    C8S10809   2.663   0.696   9.727  0.0460 -0.4391 -0.3624
  106OSM    H8S10810   2.577   0.733   9.668  0.8501 -0.5384 -1.6452
  106OSM    H8T10811   2.662   0.585   9.736 -0.5854 -0.5683 -1.7237
  106OSM    C9S10812   2.795   0.738   9.655  0.5243  0.5168  0.9357
  106OSM    H9S10813   2.880   0.687   9.705  1.5003 -0.0143 -1.1450
  106OSM    H9T10814   2.811   0.848   9.660  1.4395  0.4595 -0.2106
  106OSM   C10S10815   2.808   0.690   9.510  0.0667 -0.5015  0.1941
  106OSM   H10S10816   2.721   0.730   9.453 -0.4095 -2.1773 -0.3206
  106OSM   H10T10817   2.795   0.580   9.501 -0.0944 -0.3093 -5.6544
  106OSM   C11S10818   2.944   0.713   9.443 -0.3362  0.1330 -0.2742
  106OSM   H11S10819   3.010   0.644   9.498 -0.7553 -0.6271 -0.7031
  106OSM   H11T10820   2.990   0.810   9.470 -3.6125  1.1630  2.4022
  106OSM   C12S10821   2.931   0.680   9.299 -0.4854  0.1744  0.0463
  106OSM   H12S10822   2.873   0.761   9.251 -0.7643 -0.3389 -0.4879
  106OSM   H12T10823   2.894   0.580   9.269 -0.5256  0.0259  0.5872
  106OSM   C13S10824   3.071   0.704   9.238  0.1087  0.1889 -0.6255
  106OSM   H13S10825   3.142   0.641   9.298 -1.0943  0.5699  1.2904
  106OSM   H13T10826   3.094   0.812   9.248 -2.5441  0.7366  0.2919
  106OSM   C14S10827   3.081   0.656   9.091 -0.6956  0.2176  0.6485
  106OSM   H14S10828   2.998   0.697   9.031 -0.8946 -2.6713 -1.2347
  106OSM   H14T10829   3.066   0.546   9.086  0.6617 -0.0071  1.1361
  106OSM   C15S10830   3.223   0.700   9.038  0.1338 -0.3440  0.0093
  106OSM   H15S10831   3.297   0.626   9.077  0.3482  0.8633  2.0361
  106OSM   H15T10832   3.248   0.796   9.086  3.8363 -1.4363  0.5627
  106OSM   C16S10833   3.223   0.704   8.885  0.0047  0.6307  0.3868
  106OSM   H16S10834   3.307   0.754   8.833  1.0164 -0.6908  0.6919
  106OSM   H16T10835   3.133   0.766   8.868 -0.3269  0.3636  1.1385
  106OSM   C17S10836   3.201   0.563   8.815  0.3267 -0.0095 -0.8570
  106OSM   H17S10837   3.120   0.508   8.868  0.0928  0.3964 -0.7870
  106OSM   H17T10838   3.295   0.505   8.821  1.2501  1.1479 -3.2022
  106OSM   C18S10839   3.173   0.579   8.671  0.5666 -0.4936 -0.0204
  106OSM   H18S10840   3.163   0.478   8.624 -0.3786 -0.0980 -0.6891
  106OSM   H18T10841   3.263   0.625   8.626  1.6047 -1.6873  0.7289
  106OSM   H18U10842   3.080   0.639   8.662  1.2513  0.4350 -0.9563
  106OSM    C1F10843   2.044   1.017  10.141  0.0096  0.1236 -0.9302
  106OSM     OF10844   2.085   1.130  10.149  0.1377  0.6123  0.0230
  106OSM    C2F10845   1.908   0.970  10.085  0.3931 -0.6838  0.1348
  106OSM    H2F10846   1.833   1.047  10.111  0.3337 -1.0453  1.0385
  106OSM    H2G10847   1.877   0.876  10.135  1.8475 -1.1777  0.1804
  106OSM    C3F10848   1.913   0.942   9.933 -1.2022 -0.4287  0.2148
  106OSM    H3F10849   1.992   0.866   9.913  0.8199  0.9624  2.4321
  106OSM    H3G10850   1.946   1.035   9.881  0.2272  0.1622  2.0761
  106OSM    C4F10851   1.775   0.902   9.876  0.5724  0.1122  0.4322
  106OSM    H4F10852   1.692   0.968   9.911 -0.3568  0.1609 -1.7118
  106OSM    H4G10853   1.754   0.798   9.910 -0.8311 -0.5084 -2.1064
  106OSM    C5F10854   1.767   0.903   9.723 -0.3398  0.4221 -0.7145
  106OSM    H5F10855   1.796   1.005   9.691  0.2199  0.4135 -0.2481
  106OSM    H5G10856   1.664   0.885   9.686 -0.9694  1.4968  0.4413
  106OSM    C6F10857   1.861   0.800   9.658 -0.4557  1.2742 -0.0229
  106OSM    H6F10858   1.860   0.709   9.723 -1.0298  0.8921 -0.5648
  106OSM    H6G10859   1.963   0.843   9.667 -0.0514  0.3153  0.2270
  106OSM    C7F10860   1.813   0.782   9.513 -0.6816  0.1192  0.1804
  106OSM    H7F10861   1.704   0.761   9.518  0.0127 -3.7534  2.6745
  106OSM    H7G10862   1.856   0.692   9.466 -1.2117 -1.1927  2.1122
  106OSM    C8F10863   1.849   0.899   9.413 -0.3726  0.1571 -1.0281
  106OSM    H8F10864   1.829   0.989   9.475  0.3766 -1.5438  1.8857
  106OSM    H8G10865   1.772   0.897   9.333 -2.7736  0.8370  1.1250
  106OSM    C9F10866   1.997   0.902   9.370  0.1951  0.2304  0.4811
  106OSM    H9F10867   2.068   0.866   9.446 -0.0751  0.2468  0.7428
  106OSM   C10F10868   2.035   0.938   9.250 -0.0285  0.8080 -0.3306
  106OSM   H10F10869   2.142   0.929   9.224 -0.4048 -1.7329 -1.3190
  106OSM   C11F10870   1.949   0.977   9.131  0.4172 -0.2881 -0.1747
  106OSM   H11F10871   1.905   1.079   9.136 -0.3385 -0.5777 -0.7652
  106OSM   H11G10872   1.862   0.909   9.120  0.0512  0.1831 -0.2001
  106OSM   C12F10873   2.013   0.970   8.989  0.3407 -0.2144 -0.6651
  106OSM   H12F10874   2.056   0.869   8.973  2.3681  0.6485 -0.9887
  106OSM   H12G10875   2.092   1.048   8.983 -0.9536  1.1622 -0.2705
  106OSM   C13F10876   1.908   0.997   8.881 -0.1429  0.3657 -0.0576
  106OSM   H13F10877   1.858   1.095   8.896  0.4854  0.5202  1.1312
  106OSM   H13G10878   1.825   0.923   8.890 -0.6652  0.9834  0.2880
  106OSM   C14F10879   1.966   0.992   8.740  0.7937  0.7356 -0.4614
  106OSM   H14F10880   1.998   0.892   8.704 -0.0299  0.3172 -0.0716
  106OSM   H14G10881   2.063   1.046   8.740  1.0358  0.3312  0.8134
  106OSM   C15F10882   1.858   1.053   8.652 -0.2301 -0.1995 -0.3000
  106OSM   H15F10883   1.766   1.064   8.715 -0.5684 -0.7616 -0.6919
  106OSM   H15G10884   1.843   0.986   8.565 -1.2793  0.7605 -0.8979
  106OSM   C16F10885   1.907   1.193   8.603 -0.3663 -0.4359  0.1554
  106OSM   H16F10886   1.989   1.172   8.530  0.6657 -0.3384  1.2466
  106OSM   H16G10887   1.947   1.258   8.684  0.2556  1.7889 -1.8156
  106OSM   C17F10888   1.793   1.263   8.537  0.1633  0.6282  0.1280
  106OSM   H17F10889   1.706   1.268   8.605  0.9459  0.0317  1.1978
  106OSM   H17G10890   1.765   1.200   8.449  1.2277  1.7743 -1.0750
  106OSM   C18F10891   1.822   1.406   8.491 -0.2921  0.9956 -0.8821
  106OSM   H18F10892   1.826   1.470   8.582 -2.7083  0.8222 -0.5913
  106OSM   H18G10893   1.751   1.429   8.409  0.2170  1.3265 -1.2407
  106OSM   H18H10894   1.926   1.393   8.454 -0.3250  0.5527 -0.8253
  107OSM      N10895   6.176   5.418  10.934 -0.2075  0.2063 -0.0363
  107OSM    C1510896   6.085   5.518  10.992  0.5350 -0.1746  0.4178
  107OSM   H15A10897   6.129   5.615  10.977  0.9212 -0.8555 -4.2572
  107OSM   H15B10898   6.076   5.499  11.098 -0.6580 -0.8700  0.2158
  107OSM   H15C10899   5.982   5.501  10.964  0.0405 -0.6898  2.4007
  107OSM    C1410900   6.316   5.445  10.972  0.2468 -0.0634 -0.4075
  107OSM   H14A10901   6.377   5.361  10.943 -1.4742 -0.9126 -1.7641
  107OSM   H14B10902   6.333   5.451  11.079 -1.0225 -0.1361 -0.1847
  107OSM   H14C10903   6.369   5.528  10.927 -2.1454  0.5296 -2.3176
  107OSM    C1310904   6.133   5.285  10.992 -0.1338 -0.3561 -0.1045
  107OSM   H13A10905   6.195   5.204  10.956  0.7300 -0.5889  1.7911
  107OSM   H13B10906   6.035   5.257  10.957 -0.1746  0.9368 -1.1130
  107OSM   H13C10907   6.135   5.288  11.100 -0.0580  0.0442 -0.1136
  107OSM    C1210908   6.174   5.416  10.774  0.7661  0.2352 -0.2825
  107OSM   H12A10909   6.079   5.382  10.734  2.0722 -2.9820 -0.9631
  107OSM   H12B10910   6.232   5.326  10.757  0.2875 -0.0552 -0.4113
  107OSM    C1110911   6.236   5.536  10.701 -0.7966  0.4159  0.5721
  107OSM   H11A10912   6.171   5.622  10.729 -0.8756  1.0361 -1.3367
  107OSM   H11B10913   6.221   5.517  10.592 -2.2527  0.8380  0.6780
  107OSM      P10914   6.446   5.698  10.684  0.0310  0.0975  0.2614
  107OSM    O1310915   6.365   5.812  10.731 -0.0073 -0.5470 -0.7863
  107OSM    O1410916   6.585   5.683  10.742  0.1414 -0.0873 -0.4281
  107OSM    O1110917   6.455   5.702  10.525  0.1973  0.1079  0.1191
  107OSM    O1210918   6.373   5.563  10.724 -0.3528  0.3768 -0.0431
  107OSM    C1S10919   6.492   5.586  10.446 -0.2870 -0.5408 -0.3925
  107OSM    H1S10920   6.420   5.502  10.457  1.2241 -1.8474 -0.1692
  107OSM    H1T10921   6.595   5.556  10.474  1.3189  4.5007  0.1404
  107OSM     NF10922   6.552   5.501  10.218  0.5711 -0.7889 -0.4956
  107OSM    HNF10923   6.638   5.505  10.168  0.7595 -1.3032 -0.2261
  107OSM    C2S10924   6.509   5.620  10.293 -0.1071  0.0226 -0.2706
  107OSM    H2S10925   6.412   5.655  10.251 -0.0588  1.0716  0.4550
  107OSM    C3S10926   6.620   5.732  10.295 -0.0793  0.3614  0.3425
  107OSM    H3S10927   6.711   5.685  10.337  0.6148  0.3976 -1.0502
  107OSM     O310928   6.594   5.851  10.377 -0.5979  0.1135 -0.4460
  107OSM    HO310929   6.513   5.824  10.421 -1.5584  1.7390 -1.1249
  107OSM    C4S10930   6.633   5.767  10.146  0.0926 -0.0417 -0.5197
  107OSM    H4S10931   6.673   5.690  10.079  0.7404 -1.4184  1.3756
  107OSM    C5S10932   6.597   5.881  10.089  0.5239  0.2389 -0.5571
  107OSM    H5S10933   6.545   5.956  10.149 -1.5711 -2.0581  0.7107
  107OSM    C6S10934   6.607   5.912   9.941  0.1128 -0.5348  0.1062
  107OSM    H6S10935   6.706   5.872   9.911  0.7053  0.8545  0.1580
  107OSM    H6T10936   6.600   6.021   9.926  1.0864 -0.1112  2.2845
  107OSM    C7S10937   6.497   5.843   9.858  0.4084  0.2744 -0.4997
  107OSM    H7S10938   6.395   5.874   9.888  0.9290 -0.2311  1.9905
  107OSM    H7T10939   6.492   5.734   9.877  0.3051 -0.0168 -2.0264
  107OSM    C8S10940   6.509   5.869   9.704 -0.0639 -0.4809 -0.1617
  107OSM    H8S10941   6.617   5.864   9.677  0.3447  3.8458 -0.0821
  107OSM    H8T10942   6.485   5.976   9.688 -3.1342 -1.0381  0.2136
  107OSM    C9S10943   6.421   5.775   9.630  0.5255 -0.3077  0.6767
  107OSM    H9S10944   6.322   5.778   9.680 -0.2055 -3.2469 -0.3529
  107OSM    H9T10945   6.443   5.666   9.640 -0.2119 -0.7454 -1.6706
  107OSM   C10S10946   6.401   5.811   9.483  0.0180 -0.0321  0.2564
  107OSM   H10S10947   6.499   5.818   9.432  0.2764 -0.6208  0.6502
  107OSM   H10T10948   6.336   5.899   9.464 -2.0012 -1.3218  0.8123
  107OSM   C11S10949   6.318   5.699   9.410 -0.0022  0.2039 -0.0208
  107OSM   H11S10950   6.234   5.672   9.477  0.6593 -1.6310  0.1168
  107OSM   H11T10951   6.389   5.615   9.402  0.2037  0.4387 -0.7674
  107OSM   C12S10952   6.279   5.735   9.266 -0.6940  0.3762 -0.4353
  107OSM   H12S10953   6.202   5.815   9.259 -0.3362  0.6975 -0.7361
  107OSM   H12T10954   6.216   5.653   9.224 -2.1452  2.0159 -1.6540
  107OSM   C13S10955   6.398   5.764   9.169 -0.3258  0.4402  0.2403
  107OSM   H13S10956   6.483   5.696   9.189 -1.6042 -1.5426 -0.8091
  107OSM   H13T10957   6.433   5.868   9.191  2.3227 -0.4042  0.3448
  107OSM   C14S10958   6.367   5.764   9.016 -0.4055  0.7609 -0.3654
  107OSM   H14S10959   6.447   5.817   8.959 -0.7319 -0.3079 -1.8959
  107OSM   H14T10960   6.271   5.821   9.011  0.2965  2.0856  0.6000
  107OSM   C15S10961   6.369   5.632   8.938  0.0753 -0.4546 -0.4379
  107OSM   H15S10962   6.283   5.570   8.971  1.2837 -1.8657  0.1970
  107OSM   H15T10963   6.455   5.564   8.956 -0.3619 -1.4747 -2.0163
  107OSM   C16S10964   6.354   5.632   8.784 -0.3290  0.1577 -0.1832
  107OSM   H16S10965   6.254   5.672   8.759 -1.0300 -0.8598  0.9287
  107OSM   H16T10966   6.356   5.524   8.756 -0.1257  0.0600  0.2084
  107OSM   C17S10967   6.472   5.697   8.710  0.2256 -0.3735  0.3750
  107OSM   H17S10968   6.489   5.805   8.728 -1.6746 -0.2363  1.5627
  107OSM   H17T10969   6.437   5.692   8.605  0.6699  0.0081  0.2071
  107OSM   C18S10970   6.612   5.627   8.708  0.2964 -0.5571 -0.0261
  107OSM   H18S10971   6.651   5.636   8.812  0.8499  0.4359 -0.3069
  107OSM   H18T10972   6.677   5.682   8.636 -1.2684  1.0497 -0.2874
  107OSM   H18U10973   6.602   5.521   8.679  0.7353 -0.1312 -1.9067
  107OSM    C1F10974   6.478   5.390  10.206 -0.3519  0.2843  0.0350
  107OSM     OF10975   6.369   5.382  10.262 -0.0630  0.5590 -0.7763
  107OSM    C2F10976   6.542   5.281  10.128 -0.1473 -0.5843  0.4438
  107OSM    H2F10977   6.536   5.185  10.185  1.2712 -0.6434  0.5289
  107OSM    H2G10978   6.647   5.310  10.107 -0.6283  1.4051  0.5919
  107OSM    C3F10979   6.470   5.280   9.991  0.7574 -0.2856 -0.0135
  107OSM    H3F10980   6.481   5.379   9.942 -0.8465 -1.1899 -2.3863
  107OSM    H3G10981   6.361   5.261  10.001  0.3226  2.2055  0.7684
  107OSM    C4F10982   6.532   5.178   9.893  0.0904 -0.0226 -0.6138
  107OSM    H4F10983   6.530   5.079   9.943 -0.9082  2.0647  4.0843
  107OSM    H4G10984   6.638   5.210   9.889  0.2484 -0.2473  1.0990
  107OSM    C5F10985   6.475   5.188   9.752  0.4018  0.1461 -0.8366
  107OSM    H5F10986   6.546   5.127   9.692  2.6737  1.1423  0.7392
  107OSM    H5G10987   6.466   5.291   9.713  1.3563  0.8432  0.7099
  107OSM    C6F10988   6.345   5.116   9.729  0.5309 -0.0980  0.8151
  107OSM    H6F10989   6.273   5.150   9.806  1.4430  0.2173  1.5494
  107OSM    H6G10990   6.361   5.006   9.731 -2.0810 -0.5646  0.0204
  107OSM    C7F10991   6.259   5.142   9.600 -0.2702 -0.0645  0.3159
  107OSM    H7F10992   6.209   5.241   9.593 -0.2109 -0.1474 -2.9506
  107OSM    H7G10993   6.170   5.077   9.611 -2.7963  2.7903 -1.5740
  107OSM    C8F10994   6.324   5.099   9.472 -0.3571  1.0931  0.6126
  107OSM    H8F10995   6.244   5.077   9.399  1.5525  0.9947 -1.5427
  107OSM    H8G10996   6.368   5.000   9.498 -1.0573  1.1715  2.2411
  107OSM    C9F10997   6.421   5.173   9.388  0.2360 -0.8145  0.6071
  107OSM    H9F10998   6.523   5.141   9.415 -0.7121 -1.7225  3.3927
  107OSM   C10F10999   6.397   5.272   9.298  0.6359 -0.5129 -0.2405
  107OSM   H10F11000   6.484   5.311   9.243  0.7337 -1.3177 -0.6892
  107OSM   C11F11001   6.264   5.315   9.246  0.0178 -0.1155 -0.3717
  107OSM   H11F11002   6.263   5.426   9.243  0.6292 -0.1326 -1.5451
  107OSM   H11G11003   6.179   5.269   9.301  1.2128  0.7623  2.3844
  107OSM   C12F11004   6.236   5.266   9.100 -0.2908  0.3054  0.0615
  107OSM   H12F11005   6.244   5.155   9.099  2.3450  0.4056  0.6944
  107OSM   H12G11006   6.308   5.304   9.024  0.0856 -0.0103  0.2558
  107OSM   C13F11007   6.101   5.318   9.045  0.7127 -0.0622 -0.2470
  107OSM   H13F11008   6.112   5.428   9.032  0.0867  0.0703  0.2741
  107OSM   H13G11009   6.018   5.312   9.119  1.7537  2.0263  1.1912
  107OSM   C14F11010   6.072   5.252   8.911  0.3094 -0.8839 -0.5485
  107OSM   H14F11011   6.159   5.229   8.847 -0.6168 -1.9443 -1.4611
  107OSM   H14G11012   6.002   5.321   8.860  1.2713  2.5311  2.2882
  107OSM   C15F11013   5.991   5.118   8.923 -0.3617  0.2396  0.4274
  107OSM   H15F11014   5.897   5.153   8.970  0.2823  3.2979 -0.3440
  107OSM   H15G11015   6.042   5.043   8.987 -1.6041  0.1795  1.3872
  107OSM   C16F11016   5.963   5.071   8.777 -0.0358  0.6797  0.2103
  107OSM   H16F11017   6.059   5.053   8.724 -0.2351 -2.7813  0.7406
  107OSM   H16G11018   5.907   5.148   8.720 -0.1150 -0.2212 -0.9563
  107OSM   C17F11019   5.908   4.927   8.775 -0.0352  0.0230 -0.5952
  107OSM   H17F11020   5.818   4.920   8.840 -0.9128  0.3837 -1.7300
  107OSM   H17G11021   5.980   4.856   8.820  1.2968 -1.4839 -4.6298
  107OSM   C18F11022   5.860   4.875   8.638  0.2295  0.8019 -0.0319
  107OSM   H18F11023   5.808   4.956   8.583 -0.1686  0.3706 -0.3067
  107OSM   H18G11024   5.780   4.799   8.652  0.3716  0.5356 -0.6205
  107OSM   H18H11025   5.926   4.837   8.557 -0.9101 -0.1293 -0.5532
  108OSM      N11026   1.983   0.189  10.689 -0.2241 -0.3254 -0.0960
  108OSM    C1511027   2.043   0.084  10.773 -0.2354 -0.3027 -0.4589
  108OSM   H15A11028   1.977   0.059  10.855 -0.5438  2.1583  0.1146
  108OSM   H15B11029   2.129   0.119  10.829  0.1484 -0.5079 -0.9102
  108OSM   H15C11030   2.083  -0.004  10.725  1.0645  0.6155 -1.1066
  108OSM    C1411031   2.086   0.291  10.650  0.1035  0.5824  0.5610
  108OSM   H14A11032   2.116   0.345  10.739  1.3348  0.2128  0.3992
  108OSM   H14B11033   2.038   0.349  10.574 -1.0686 -4.0613 -2.6972
  108OSM   H14C11034   2.178   0.249  10.613  1.3477  2.9030  0.8670
  108OSM    C1311035   1.936   0.121  10.560 -0.8265 -0.4919  0.2597
  108OSM   H13A11036   2.023   0.089  10.505  1.0415  0.7837  2.2879
  108OSM   H13B11037   1.879   0.192  10.502 -1.4207 -2.1745 -1.2803
  108OSM   H13C11038   1.885   0.029  10.586 -0.6197 -0.6103  0.2477
  108OSM    C1211039   1.864   0.246  10.756  0.3411 -0.3651  0.3869
  108OSM   H12A11040   1.870   0.253  10.864 -0.0477 -1.4320  0.4919
  108OSM   H12B11041   1.790   0.173  10.730  2.3775 -1.6475 -2.1839
  108OSM    C1111042   1.823   0.388  10.696 -0.0805 -0.6295 -0.2349
  108OSM   H11A11043   1.909   0.456  10.712  0.8440 -1.6582 -0.6947
  108OSM   H11B11044   1.739   0.429  10.756  1.0431 -0.1814  1.0734
  108OSM      P11045   1.654   0.356  10.498 -0.0298  0.0267 -0.2727
  108OSM    O1311046   1.644   0.204  10.502  0.0241 -0.4870  0.5630
  108OSM    O1411047   1.548   0.434  10.566  0.0301  0.0819  0.2771
  108OSM    O1111048   1.650   0.401  10.349  0.5207  0.0910 -0.3164
  108OSM    O1211049   1.798   0.389  10.556  0.1663 -0.1118  0.1904
  108OSM    C1S11050   1.757   0.372  10.264 -0.2142  0.0306  0.2217
  108OSM    H1S11051   1.823   0.294  10.307 -1.8162 -2.2891 -1.2427
  108OSM    H1T11052   1.823   0.461  10.253  1.1167 -1.0152 -0.6032
  108OSM     NF11053   1.842   0.261  10.061 -0.1442  0.3172  0.8080
  108OSM    HNF11054   1.899   0.312   9.997 -1.3906 -1.9225 -2.3887
  108OSM    C2S11055   1.726   0.329  10.119  0.8906 -0.1062  0.3907
  108OSM    H2S11056   1.645   0.253  10.123 -0.6368  1.3397 -1.5897
  108OSM    C3S11057   1.669   0.456  10.048 -0.4724  0.2619 -0.5768
  108OSM    H3S11058   1.754   0.527  10.045  0.7137 -1.1231 -0.4618
  108OSM     O311059   1.562   0.516  10.120 -0.4166 -0.0202  0.0405
  108OSM    HO311060   1.556   0.466  10.202  1.6838 -2.1458 -0.9987
  108OSM    C4S11061   1.623   0.417   9.907 -0.5645 -0.9151  0.1678
  108OSM    H4S11062   1.551   0.334   9.910 -1.9413  0.2984  2.4589
  108OSM    C5S11063   1.653   0.491   9.795  0.0706 -0.3548 -0.0476
  108OSM    H5S11064   1.703   0.589   9.802 -1.9630  0.6621  1.1708
  108OSM    C6S11065   1.607   0.454   9.655  0.3008 -0.0627 -0.4427
  108OSM    H6S11066   1.538   0.521   9.600 -0.3310  0.4547  0.9436
  108OSM    H6T11067   1.557   0.356   9.657  2.0160 -0.9790  0.3134
  108OSM    C7S11068   1.726   0.419   9.560  0.3280 -0.4613  0.4825
  108OSM    H7S11069   1.767   0.327   9.608  1.3912 -1.1145 -1.5404
  108OSM    H7T11070   1.801   0.501   9.561  1.3320 -1.1734 -3.0451
  108OSM    C8S11071   1.670   0.369   9.426 -0.1470  0.3121  0.0359
  108OSM    H8S11072   1.751   0.387   9.351 -1.6424  3.3273 -1.0578
  108OSM    H8T11073   1.581   0.422   9.386  0.0979 -0.2738 -1.3504
  108OSM    C9S11074   1.634   0.217   9.436  0.4059 -0.1542 -0.1554
  108OSM    H9S11075   1.551   0.194   9.507 -0.1627  0.2728 -0.6677
  108OSM    H9T11076   1.719   0.152   9.465  0.6019  0.2014  0.0720
  108OSM   C10S11077   1.582   0.165   9.296 -0.5802 -0.2853 -0.2904
  108OSM   H10S11078   1.484   0.207   9.266 -0.4102 -1.4186 -2.7083
  108OSM   H10T11079   1.567   0.056   9.301  0.0357 -0.3787 -0.3377
  108OSM   C11S11080   1.684   0.196   9.180  0.0258 -0.4508 -0.2814
  108OSM   H11S11081   1.788   0.172   9.209  1.0968  3.8102  0.1282
  108OSM   H11T11082   1.693   0.305   9.160  0.8568 -0.5025 -0.2228
  108OSM   C12S11083   1.646   0.123   9.047 -0.1286 -0.5494 -0.5535
  108OSM   H12S11084   1.549   0.160   9.007  0.1612  0.0006 -0.7525
  108OSM   H12T11085   1.634   0.013   9.046  1.2313 -0.7052 -1.2930
  108OSM   C13S11086   1.739   0.167   8.919 -0.2213  0.1651 -1.2337
  108OSM   H13S11087   1.829   0.103   8.934 -1.3582 -0.7488  3.9555
  108OSM   H13T11088   1.760   0.275   8.915  3.4881 -0.4729 -2.9318
  108OSM   C14S11089   1.667   0.115   8.798  0.4797 -0.0724  0.2195
  108OSM   H14S11090   1.562   0.151   8.795  0.3451 -0.4752 -0.1149
  108OSM   H14T11091   1.670   0.005   8.812 -0.5951 -0.2185 -0.6144
  108OSM   C15S11092   1.736   0.159   8.667 -0.5822  0.0343  0.0064
  108OSM   H15S11093   1.817   0.084   8.653  0.4490  0.7111  2.0016
  108OSM   H15T11094   1.792   0.254   8.679  0.6378 -0.7778  1.0546
  108OSM   C16S11095   1.639   0.158   8.545 -0.6289 -0.0162 -0.5151
  108OSM   H16S11096   1.538   0.140   8.587 -0.7439  1.8866  0.1400
  108OSM   H16T11097   1.661   0.080   8.469 -0.6391  0.6955 -1.2594
  108OSM   C17S11098   1.616   0.291   8.476 -0.5464 -0.0950  0.0452
  108OSM   H17S11099   1.711   0.338   8.442 -1.5412  2.1333  0.2146
  108OSM   H17T11100   1.572   0.355   8.555 -0.0061  2.4096 -1.5850
  108OSM   C18S11101   1.528   0.280   8.357  0.0037  0.5321  0.2566
  108OSM   H18S11102   1.549   0.374   8.301 -0.5941 -0.3305 -1.5046
  108OSM   H18T11103   1.422   0.260   8.386  0.8997 -1.8113  2.2131
  108OSM   H18U11104   1.566   0.195   8.296 -2.5061 -1.7148  1.5982
  108OSM    C1F11105   1.900   0.146  10.110  0.4634 -0.1735  0.0792
  108OSM     OF11106   1.830   0.057  10.170  0.0191  0.1762  0.2589
  108OSM    C2F11107   2.048   0.124  10.093  0.4182 -0.9152  0.0243
  108OSM    H2F11108   2.096   0.110  10.192 -1.3440 -0.5536  0.9596
  108OSM    H2G11109   2.097   0.203  10.032 -0.0839  2.0811  3.2164
  108OSM    C3F11110   2.063  -0.001  10.004  0.2044  0.0559 -0.4295
  108OSM    H3F11111   2.022  -0.094  10.049  1.7434 -0.4440 -0.0032
  108OSM    H3G11112   2.172  -0.019  10.000  0.0349 -1.0136 -0.6842
  108OSM    C4F11113   2.005   0.005   9.869 -0.1762  0.0445  0.0858
  108OSM    H4F11114   2.067   0.060   9.795  0.8655  0.2500  1.0721
  108OSM    H4G11115   1.908   0.059   9.876 -1.0553 -0.6273 -4.1980
  108OSM    C5F11116   1.962  -0.133   9.823  0.0646  0.0076 -0.3061
  108OSM    H5F11117   1.885  -0.181   9.886  0.2296 -1.0369 -0.8796
  108OSM    H5G11118   2.052  -0.198   9.833 -0.3780 -0.4894  0.5202
  108OSM    C6F11119   1.933  -0.139   9.671  0.3452 -0.1779  0.6940
  108OSM    H6F11120   2.004  -0.073   9.616  1.2944 -1.7746 -0.0577
  108OSM    H6G11121   1.833  -0.096   9.647  0.3058  0.0301  1.2087
  108OSM    C7F11122   1.926  -0.279   9.604 -0.3349  0.6396 -0.6891
  108OSM    H7F11123   1.824  -0.319   9.622 -0.0460 -0.2942 -1.0530
  108OSM    H7G11124   2.014  -0.338   9.638 -0.8777  0.5680  0.6993
  108OSM    C8F11125   1.938  -0.277   9.449 -0.0997  0.6910 -0.4522
  108OSM    H8F11126   1.931  -0.381   9.410 -0.5766 -0.0782  1.5758
  108OSM    H8G11127   2.041  -0.236   9.440 -0.6388  2.3196  0.5379
  108OSM    C9F11128   1.841  -0.183   9.391 -0.2205 -0.6208 -0.4975
  108OSM    H9F11129   1.760  -0.148   9.457  0.3604 -0.2693  0.0478
  108OSM   C10F11130   1.838  -0.141   9.262 -0.1699  0.2607  0.1084
  108OSM   H10F11131   1.769  -0.063   9.231  1.8473  1.4702 -1.5829
  108OSM   C11F11132   1.946  -0.174   9.159  0.0071  0.3625  0.0229
  108OSM   H11F11133   2.016  -0.251   9.198  1.0654  0.3215 -1.8211
  108OSM   H11G11134   2.008  -0.084   9.138  0.6477 -0.1341 -0.2896
  108OSM   C12F11135   1.881  -0.223   9.030 -0.2590 -0.0762 -0.0833
  108OSM   H12F11136   1.815  -0.141   8.995  0.1933  0.0739 -0.5893
  108OSM   H12G11137   1.810  -0.308   9.043 -1.4920  0.6372 -1.7568
  108OSM   C13F11138   1.968  -0.256   8.916 -0.1774 -0.4900  0.4789
  108OSM   H13F11139   2.044  -0.176   8.901  0.6227 -1.5000 -1.2184
  108OSM   H13G11140   1.916  -0.262   8.818 -1.0599  2.7503  0.6392
  108OSM   C14F11141   2.046  -0.392   8.930 -0.1537 -0.5487 -0.5493
  108OSM   H14F11142   1.984  -0.484   8.934  0.8999 -1.2553  0.2317
  108OSM   H14G11143   2.102  -0.379   9.026 -1.1529 -0.0911 -0.0103
  108OSM   C15F11144   2.146  -0.406   8.815 -0.1886 -0.1575 -0.0671
  108OSM   H15F11145   2.210  -0.491   8.847 -1.0435 -1.2280 -1.1159
  108OSM   H15G11146   2.219  -0.324   8.801 -0.4177  0.2104  0.8496
  108OSM   C16F11147   2.092  -0.458   8.679  0.5244 -0.0815 -0.1692
  108OSM   H16F11148   2.063  -0.380   8.605  1.3054  1.0687  0.7008
  108OSM   H16G11149   2.010  -0.530   8.700 -0.7576  1.5779  0.7509
  108OSM   C17F11150   2.194  -0.540   8.605 -0.1431  0.8159  0.0364
  108OSM   H17F11151   2.140  -0.595   8.525 -1.0658 -0.1620  1.2913
  108OSM   H17G11152   2.224  -0.623   8.673  1.3145  1.0355 -0.3007
  108OSM   C18F11153   2.321  -0.471   8.565  0.1013  0.3888 -0.6579
  108OSM   H18F11154   2.315  -0.380   8.502 -1.2907  0.6867 -0.1291
  108OSM   H18G11155   2.374  -0.543   8.499 -0.4321  0.4799 -1.1964
  108OSM   H18H11156   2.392  -0.448   8.647  1.4894  1.3682 -2.0814
  109OSM      N11157   1.775   6.165  10.877 -0.3928 -0.5660 -0.3723
  109OSM    C1511158   1.887   6.170  10.975  0.1867  0.3211  0.1603
  109OSM   H15A11159   1.948   6.257  10.953  0.0224  0.1475 -1.0523
  109OSM   H15B11160   1.948   6.081  10.985 -1.3553 -1.1201 -2.2616
  109OSM   H15C11161   1.848   6.176  11.075 -1.0044 -1.2639 -0.1720
  109OSM    C1411162   1.676   6.270  10.906 -0.1824  0.0015  0.5638
  109OSM   H14A11163   1.656   6.275  11.012 -0.2937  0.9829  0.5061
  109OSM   H14B11164   1.583   6.239  10.859 -1.3561  2.9876  0.6957
  109OSM   H14C11165   1.707   6.367  10.869 -1.3786  0.4353  0.6411
  109OSM    C1311166   1.834   6.179  10.733  0.3462 -0.4813  0.2238
  109OSM   H13A11167   1.755   6.170  10.659  0.5424 -1.5101  0.1290
  109OSM   H13B11168   1.914   6.108  10.721  0.7543  0.2074 -1.3698
  109OSM   H13C11169   1.877   6.277  10.718 -1.3574  0.1369 -0.9634
  109OSM    C1211170   1.706   6.026  10.886 -0.7987 -0.3914 -0.1982
  109OSM   H12A11171   1.676   6.008  10.988  1.0665 -0.7389  0.3244
  109OSM   H12B11172   1.787   5.960  10.858 -0.2570  0.2284 -0.1103
  109OSM    C1111173   1.579   6.005  10.806  0.3285 -0.1540  0.1450
  109OSM   H11A11174   1.560   5.896  10.802 -0.9110 -0.1292  2.9941
  109OSM   H11B11175   1.603   6.033  10.701 -0.4864 -0.5842 -0.1715
  109OSM      P11176   1.371   6.018  10.960  0.2726  0.0426 -0.0226
  109OSM    O1311177   1.461   5.940  11.048  0.8443 -0.2281  0.2235
  109OSM    O1411178   1.289   6.133  11.011  0.4922  0.8515 -0.0442
  109OSM    O1111179   1.287   5.920  10.866  0.4205  0.3838  0.1983
  109OSM    O1211180   1.464   6.080  10.849 -0.0201 -0.2651 -0.2760
  109OSM    C1S11181   1.215   5.964  10.751 -0.2979 -0.0875 -0.6629
  109OSM    H1S11182   1.226   6.074  10.740  0.5150  0.1730  2.0246
  109OSM    H1T11183   1.106   5.942  10.755  0.1378 -2.3474  0.9986
  109OSM     NF11184   1.163   5.944  10.522 -0.2901  0.5989 -0.5689
  109OSM    HNF11185   1.101   5.873  10.490  0.7822 -1.0440  0.8066
  109OSM    C2S11186   1.262   5.904  10.620 -0.6708 -0.2473  0.3024
  109OSM    H2S11187   1.356   5.952  10.586 -1.8845  2.1172  0.1111
  109OSM    C3S11188   1.273   5.747  10.637  0.5446 -0.4965 -0.2389
  109OSM    H3S11189   1.188   5.708  10.698 -1.4444  1.2801 -1.6736
  109OSM     O311190   1.389   5.714  10.708  0.1831 -0.3743 -0.0380
  109OSM    HO311191   1.385   5.784  10.774 -0.0713  0.0561 -0.4934
  109OSM    C4S11192   1.289   5.678  10.505 -0.3928  0.1523 -0.2734
  109OSM    H4S11193   1.388   5.682  10.458 -0.8421 -1.3845 -1.4386
  109OSM    C5S11194   1.198   5.611  10.436  0.0232  0.2434 -0.0920
  109OSM    H5S11195   1.097   5.620  10.478 -0.0044  0.7204 -0.2504
  109OSM    C6S11196   1.220   5.555  10.297  0.0535  0.7507 -0.0361
  109OSM    H6S11197   1.157   5.599  10.217  1.4912  0.0707 -1.6007
  109OSM    H6T11198   1.195   5.447  10.300 -0.8257  0.9717  0.8938
  109OSM    C7S11199   1.362   5.564  10.248 -0.4221 -0.1470 -0.5276
  109OSM    H7S11200   1.430   5.526  10.328  0.3277  1.0342 -0.5686
  109OSM    H7T11201   1.394   5.671  10.254  0.0454 -0.3334  0.6425
  109OSM    C8S11202   1.377   5.515  10.100 -0.3139  0.0493  0.9643
  109OSM    H8S11203   1.302   5.573  10.044 -0.0180 -0.3305  0.1591
  109OSM    H8T11204   1.352   5.407  10.104  1.3320 -0.3753  0.5167
  109OSM    C9S11205   1.520   5.536  10.033  0.3279  0.5279 -0.3343
  109OSM    H9S11206   1.543   5.641  10.061  0.2410  0.4910 -0.1250
  109OSM    H9T11207   1.519   5.514   9.924  0.6220 -2.7605  0.2192
  109OSM   C10S11208   1.635   5.446  10.089 -0.4033  0.1834 -0.0089
  109OSM   H10S11209   1.618   5.336  10.081 -2.1778  0.4928 -1.0179
  109OSM   H10T11210   1.620   5.456  10.199 -2.0853 -1.5466 -0.0330
  109OSM   C11S11211   1.773   5.484  10.044 -0.4598 -0.0859  0.1136
  109OSM   H11S11212   1.857   5.440  10.100 -0.3841  0.6173  0.5646
  109OSM   H11T11213   1.785   5.595  10.040  3.1431 -0.4051 -0.9539
  109OSM   C12S11214   1.802   5.446   9.898 -0.0384  0.2148 -0.6126
  109OSM   H12S11215   1.891   5.501   9.859  0.3554  0.3605  0.4662
  109OSM   H12T11216   1.711   5.470   9.840 -1.1165 -0.2026  0.8432
  109OSM   C13S11217   1.813   5.292   9.872 -0.1043  0.3469  0.1908
  109OSM   H13S11218   1.725   5.238   9.913 -0.5444  0.4492 -0.5916
  109OSM   H13T11219   1.900   5.259   9.932  0.7029 -0.9026 -1.5818
  109OSM   C14S11220   1.839   5.270   9.724 -0.4303  0.2661  0.4559
  109OSM   H14S11221   1.935   5.325   9.713 -0.6815  1.3543  2.9502
  109OSM   H14T11222   1.754   5.317   9.672 -1.8979 -0.4599  2.0867
  109OSM   C15S11223   1.862   5.126   9.671 -0.1913  0.0688  0.3311
  109OSM   H15S11224   1.768   5.069   9.654  1.1521 -2.6092  1.2828
  109OSM   H15T11225   1.929   5.070   9.741 -1.4792  0.7908  2.2279
  109OSM   C16S11226   1.932   5.122   9.537 -0.6150 -0.8070  0.5864
  109OSM   H16S11227   2.041   5.144   9.540 -1.1865  2.9638 -0.7430
  109OSM   H16T11228   1.892   5.210   9.482  2.1592  0.2296  0.0483
  109OSM   C17S11229   1.904   4.989   9.466  0.1166  0.3020  0.7717
  109OSM   H17S11230   1.797   4.989   9.436  0.5234  1.1199 -0.8029
  109OSM   H17T11231   1.919   4.899   9.528  1.1389  0.0151  0.1456
  109OSM   C18S11232   1.984   4.976   9.337  0.0832  0.5423 -0.1391
  109OSM   H18S11233   1.946   4.886   9.283 -1.3122  0.5792  0.7344
  109OSM   H18T11234   2.093   4.958   9.349 -0.0814 -0.0702  0.5175
  109OSM   H18U11235   1.970   5.066   9.274 -3.9490 -0.9833 -1.7361
  109OSM    C1F11236   1.156   6.066  10.472 -0.5874 -0.1489  0.4539
  109OSM     OF11237   1.232   6.153  10.508  0.0900 -0.0537 -0.7630
  109OSM    C2F11238   1.045   6.080  10.371  0.1402 -0.2934 -0.3325
  109OSM    H2F11239   0.951   6.052  10.423 -0.5038  1.5887 -0.4076
  109OSM    H2G11240   1.064   6.007  10.290 -0.8160 -0.8576 -0.0610
  109OSM    C3F11241   1.047   6.223  10.320 -0.0117  0.0719 -0.3988
  109OSM    H3F11242   1.144   6.276  10.316 -1.1445  2.2004 -1.6659
  109OSM    H3G11243   0.979   6.278  10.388  1.7323  1.6209  0.1824
  109OSM    C4F11244   0.978   6.239  10.193 -0.3079  0.4295  0.5328
  109OSM    H4F11245   0.883   6.180  10.199  0.7639 -1.7645 -2.0154
  109OSM    H4G11246   1.036   6.206  10.104  1.1776  0.1718  1.5583
  109OSM    C5F11247   0.933   6.384  10.171 -0.0211  0.4563 -0.5197
  109OSM    H5F11248   1.021   6.447  10.199 -1.3021  1.8029  0.7050
  109OSM    H5G11249   0.874   6.405  10.263  2.0135  1.2931  0.6824
  109OSM    C6F11250   0.862   6.437  10.043  0.0712  0.1757  0.3317
  109OSM    H6F11251   0.814   6.534  10.069  0.3240  0.1572  0.8761
  109OSM    H6G11252   0.779   6.367  10.019  1.7316 -1.9922  0.6337
  109OSM    C7F11253   0.967   6.461   9.931  0.1843 -0.0944 -0.0642
  109OSM    H7F11254   1.007   6.359   9.915 -1.8103 -1.3793  2.3494
  109OSM    H7G11255   1.052   6.524   9.964 -0.3354  0.1386  0.8829
  109OSM    C8F11256   0.897   6.524   9.808 -0.0582 -0.0107 -0.5056
  109OSM    H8F11257   0.843   6.612   9.848  1.5809  0.2503  1.2770
  109OSM    H8G11258   0.828   6.444   9.775  0.9359 -2.2534  2.4205
  109OSM    C9F11259   0.996   6.565   9.703  0.1036 -0.4960  0.1864
  109OSM    H9F11260   1.084   6.628   9.719 -0.4641  0.4403 -0.2937
  109OSM   C10F11261   0.969   6.544   9.576 -0.8584  0.1272 -0.9860
  109OSM   H10F11262   1.047   6.563   9.501  0.3786 -2.2969 -0.3934
  109OSM   C11F11263   0.851   6.481   9.512 -0.0056 -0.7110  0.2757
  109OSM   H11F11264   0.761   6.494   9.575  0.6464 -1.3318  1.3709
  109OSM   H11G11265   0.881   6.375   9.492  3.4766 -0.1115  1.5626
  109OSM   C12F11266   0.817   6.556   9.380  0.4720  0.8459 -0.1216
  109OSM   H12F11267   0.826   6.664   9.402 -0.5768  1.1726 -1.1855
  109OSM   H12G11268   0.709   6.529   9.378  0.5631  0.5048 -0.5638
  109OSM   C13F11269   0.899   6.495   9.260 -0.4259 -0.5848  0.1366
  109OSM   H13F11270   0.891   6.384   9.269 -0.9281 -0.5180  0.5276
  109OSM   H13G11271   1.004   6.530   9.270 -0.1778 -1.3124  0.1962
  109OSM   C14F11272   0.847   6.533   9.124  0.3298 -0.3244  0.8286
  109OSM   H14F11273   0.936   6.523   9.058 -0.4899 -0.9503 -0.2068
  109OSM   H14G11274   0.805   6.635   9.126 -2.4656 -1.3811  2.1172
  109OSM   C15F11275   0.734   6.445   9.075 -0.0472  0.8435 -0.0775
  109OSM   H15F11276   0.649   6.452   9.147 -0.9025 -0.7646 -0.8605
  109OSM   H15G11277   0.764   6.339   9.086 -1.4578  0.2828 -1.1925
  109OSM   C16F11278   0.694   6.469   8.932  0.5407  0.3344 -0.6517
  109OSM   H16F11279   0.776   6.443   8.862  0.3993 -1.1364 -0.3135
  109OSM   H16G11280   0.653   6.572   8.924  1.0615  0.7285  1.2893
  109OSM   C17F11281   0.583   6.369   8.888  0.1890 -0.2365  0.2958
  109OSM   H17F11282   0.534   6.322   8.976 -2.1834 -1.3181 -1.4859
  109OSM   H17G11283   0.639   6.281   8.849 -1.1277 -1.7028  1.5684
  109OSM   C18F11284   0.468   6.423   8.805  0.0075  1.1955  0.5889
  109OSM   H18F11285   0.502   6.445   8.701 -0.4572 -1.1419 -0.1125
  109OSM   H18G11286   0.427   6.511   8.859  2.9716  2.1098  1.5631
  109OSM   H18H11287   0.395   6.343   8.783 -0.4852  1.9094 -0.4604
  110OSM      N11288   2.429   3.564  11.283  0.9518 -0.4953 -0.9753
  110OSM    C1511289   2.440   3.417  11.250 -0.5666 -0.7853 -0.5207
  110OSM   H15A11290   2.456   3.421  11.144  1.6655  2.2551 -0.2160
  110OSM   H15B11291   2.348   3.364  11.268 -0.8097 -0.9413 -2.1406
  110OSM   H15C11292   2.524   3.368  11.297  0.2608  0.0152 -1.1305
  110OSM    C1411293   2.361   3.578  11.415  0.2980  0.3162  0.8655
  110OSM   H14A11294   2.429   3.542  11.491 -0.7943 -1.0487  1.2217
  110OSM   H14B11295   2.270   3.521  11.413  0.5611 -0.1072 -1.5399
  110OSM   H14C11296   2.330   3.678  11.443  0.0400  0.2618  0.7731
  110OSM    C1311297   2.565   3.604  11.310  0.4569  0.5661  0.3980
  110OSM   H13A11298   2.612   3.536  11.380  2.0067  1.4902  0.3094
  110OSM   H13B11299   2.561   3.706  11.346 -2.7577  0.2201  1.3257
  110OSM   H13C11300   2.623   3.613  11.219 -0.1645 -0.5168 -0.1220
  110OSM    C1211301   2.361   3.649  11.179  0.0040  0.3517  0.0968
  110OSM   H12A11302   2.360   3.753  11.210 -0.0594 -0.1720  1.9578
  110OSM   H12B11303   2.256   3.623  11.182  0.0535  0.2381  1.6409
  110OSM    C1111304   2.416   3.648  11.038  0.1660  0.2147 -0.8353
  110OSM   H11A11305   2.334   3.696  10.980 -0.5793  1.8564  1.4331
  110OSM   H11B11306   2.414   3.540  11.012  1.5249 -0.0694  0.1572
  110OSM      P11307   2.652   3.664  10.919  0.0671  0.2088  0.5877
  110OSM    O1311308   2.721   3.788  10.885 -0.1888  0.3092 -0.4229
  110OSM    O1411309   2.729   3.562  10.987 -0.0484  0.2268 -0.5888
  110OSM    O1111310   2.571   3.609  10.792 -0.3731 -0.6969 -0.2243
  110OSM    O1211311   2.538   3.712  11.022 -0.1523 -0.5611  0.0978
  110OSM    C1S11312   2.611   3.655  10.664 -0.1147  1.1807 -0.3602
  110OSM    H1S11313   2.714   3.613  10.656 -0.2857  0.0334  2.2299
  110OSM    H1T11314   2.609   3.765  10.653 -2.8855  0.9982 -2.7042
  110OSM     NF11315   2.564   3.624  10.428  0.2058  0.0843  0.3787
  110OSM    HNF11316   2.531   3.705  10.381 -0.3693  0.0552  0.7165
  110OSM    C2S11317   2.511   3.602  10.561  0.4924  0.2543  0.0041
  110OSM    H2S11318   2.512   3.491  10.572  0.7861  0.1526 -0.9025
  110OSM    C3S11319   2.361   3.652  10.578 -1.2159 -0.5025  0.1070
  110OSM    H3S11320   2.364   3.759  10.549 -2.1250 -0.9036 -1.6256
  110OSM     O311321   2.316   3.645  10.710 -0.0117 -0.4377 -0.6459
  110OSM    HO311322   2.393   3.627  10.765  0.4546  0.3262 -1.0397
  110OSM    C4S11323   2.275   3.588  10.475  0.6623 -0.1341 -0.3814
  110OSM    H4S11324   2.250   3.484  10.502  2.1787 -0.5843 -0.6047
  110OSM    C5S11325   2.226   3.633  10.358  0.5672  0.3969  0.0550
  110OSM    H5S11326   2.251   3.732  10.317 -1.0237  1.1952  0.9123
  110OSM    C6S11327   2.135   3.558  10.269  0.4236 -0.7924 -0.6619
  110OSM    H6S11328   2.092   3.463  10.308 -2.7833  1.4437  1.7676
  110OSM    H6T11329   2.194   3.530  10.179  0.9998 -1.5016 -0.0732
  110OSM    C7S11330   2.016   3.642  10.220  0.2686  0.0122 -0.2889
  110OSM    H7S11331   2.047   3.723  10.152 -1.6536  0.4529 -0.7039
  110OSM    H7T11332   1.964   3.703  10.297  1.1281  1.9688 -1.1934
  110OSM    C8S11333   1.913   3.564  10.145 -0.2997 -0.5953  0.3394
  110OSM    H8S11334   1.827   3.631  10.127 -1.0699 -1.2242  1.5547
  110OSM    H8T11335   1.884   3.474  10.204  0.2201 -0.3467  0.9879
  110OSM    C9S11336   1.970   3.510  10.010  1.0005 -0.6355  0.3483
  110OSM    H9S11337   1.899   3.431   9.978  0.6310 -0.5565  0.9512
  110OSM    H9T11338   2.066   3.457  10.026  2.2728  0.6529 -2.2908
  110OSM   C10S11339   1.983   3.604   9.886  0.0455 -0.3380  0.0235
  110OSM   H10S11340   2.032   3.694   9.928  0.9205 -0.6796 -0.2462
  110OSM   H10T11341   1.881   3.625   9.848 -0.3530 -1.5809  0.3611
  110OSM   C11S11342   2.075   3.533   9.784  0.2651  0.0735 -0.5528
  110OSM   H11S11343   2.029   3.434   9.760 -0.1804  0.2140 -0.2916
  110OSM   H11T11344   2.183   3.529   9.806  0.4172  0.9308 -1.0988
  110OSM   C12S11345   2.052   3.605   9.647 -0.1845 -0.2569 -0.4172
  110OSM   H12S11346   2.068   3.713   9.664  0.1364 -0.5934  1.7164
  110OSM   H12T11347   1.943   3.598   9.626  0.0110 -0.5167 -1.4019
  110OSM   C13S11348   2.101   3.532   9.520  0.3903  0.2101 -0.4560
  110OSM   H13S11349   2.058   3.430   9.506  1.4536 -0.2222 -0.6724
  110OSM   H13T11350   2.211   3.530   9.538  0.5423 -0.7235 -1.3708
  110OSM   C14S11351   2.076   3.614   9.391 -0.0746 -0.3789  0.0391
  110OSM   H14S11352   2.117   3.717   9.397 -2.1815  0.5540 -0.7981
  110OSM   H14T11353   1.971   3.649   9.392  0.7540  2.3672 -0.7990
  110OSM   C15S11354   2.095   3.557   9.257 -0.0003  0.3488 -0.3932
  110OSM   H15S11355   2.066   3.450   9.263 -1.7224  0.7417 -1.0100
  110OSM   H15T11356   2.200   3.565   9.221  0.6533 -2.0573  0.7879
  110OSM   C16S11357   1.997   3.621   9.162  0.0453  0.5017  1.3452
  110OSM   H16S11358   2.000   3.730   9.181  0.3622  0.9367 -0.8572
  110OSM   H16T11359   1.896   3.578   9.182 -0.8776  0.3125 -2.7084
  110OSM   C17S11360   2.032   3.596   9.016 -0.3319 -0.9545  0.3300
  110OSM   H17S11361   2.067   3.492   8.996 -0.0846 -0.4739 -2.0002
  110OSM   H17T11362   2.124   3.657   8.999 -1.4659  0.9905  0.9402
  110OSM   C18S11363   1.913   3.627   8.929 -0.0243 -0.2931  0.2687
  110OSM   H18S11364   1.854   3.534   8.912 -1.2302  0.3333  0.9416
  110OSM   H18T11365   1.939   3.679   8.834  2.0069 -1.0975  0.3366
  110OSM   H18U11366   1.848   3.700   8.981 -0.6836  0.0794 -1.0344
  110OSM    C1F11367   2.676   3.571  10.388  0.2500 -1.2267 -0.6393
  110OSM     OF11368   2.719   3.479  10.457  0.5740 -0.1231 -0.0768
  110OSM    C2F11369   2.752   3.643  10.279  0.0089  0.3702  0.3737
  110OSM    H2F11370   2.784   3.742  10.317  0.5973  0.0856  0.6356
  110OSM    H2G11371   2.683   3.658  10.194 -1.0104 -0.6555  0.9883
  110OSM    C3F11372   2.880   3.565  10.231  0.1187  0.2786  0.1553
  110OSM    H3F11373   2.851   3.461  10.205 -1.1037  0.5935  0.2190
  110OSM    H3G11374   2.954   3.542  10.310 -0.3772 -0.7586  0.3375
  110OSM    C4F11375   2.942   3.632  10.105  0.4020  0.1671 -0.4923
  110OSM    H4F11376   3.051   3.614  10.097  0.3286 -1.1246  0.9582
  110OSM    H4G11377   2.926   3.742  10.103 -0.3362  0.0612 -1.1927
  110OSM    C5F11378   2.872   3.584   9.978  0.1398 -0.2474  0.2225
  110OSM    H5F11379   2.764   3.609   9.986  0.6158  2.5280 -0.7541
  110OSM    H5G11380   2.868   3.473   9.971  0.2837 -0.2423  0.0417
  110OSM    C6F11381   2.936   3.645   9.848 -0.8118  0.3049 -0.3798
  110OSM    H6F11382   3.009   3.719   9.886  0.6134 -1.5450  0.7006
  110OSM    H6G11383   2.852   3.685   9.787 -0.8902 -1.2541 -1.3694
  110OSM    C7F11384   3.023   3.535   9.778 -0.5617 -0.2736 -0.3510
  110OSM    H7F11385   2.961   3.443   9.787 -1.0085  0.2136  2.2878
  110OSM    H7G11386   3.114   3.508   9.834 -0.8549 -2.4939 -0.8647
  110OSM    C8F11387   3.057   3.581   9.632  0.1306 -0.0804 -0.5586
  110OSM    H8F11388   2.960   3.602   9.582 -0.6292 -1.3279  0.3115
  110OSM    H8G11389   3.097   3.499   9.568 -2.0759 -1.4918 -0.2574
  110OSM    C9F11390   3.160   3.694   9.628  0.0414 -0.3971  0.4678
  110OSM    H9F11391   3.259   3.668   9.667  0.5063 -1.1733 -1.1301
  110OSM   C10F11392   3.143   3.820   9.579 -0.1834 -0.2517  0.8942
  110OSM   H10F11393   3.231   3.886   9.569 -0.6369  0.1653 -0.4771
  110OSM   C11F11394   3.023   3.875   9.514  0.3592  0.2371  0.7997
  110OSM   H11F11395   2.988   3.967   9.564  1.2643  0.7988  0.4126
  110OSM   H11G11396   2.933   3.808   9.514 -1.5597  2.6359 -0.9706
  110OSM   C12F11397   3.043   3.903   9.364 -0.3111  0.8863  0.1157
  110OSM   H12F11398   3.124   3.977   9.347  0.1835 -0.0777 -2.1036
  110OSM   H12G11399   2.950   3.955   9.330 -1.6062  0.0569  2.1758
  110OSM   C13F11400   3.072   3.767   9.296 -0.1642 -0.0231 -0.5825
  110OSM   H13F11401   2.994   3.696   9.331  0.6416 -0.4085  0.4931
  110OSM   H13G11402   3.175   3.735   9.321  0.3317  2.0451  0.2545
  110OSM   C14F11403   3.076   3.787   9.138 -0.5892  0.0095  0.0615
  110OSM   H14F11404   3.121   3.702   9.083 -0.5080 -0.2324  0.4988
  110OSM   H14G11405   3.140   3.875   9.118 -2.6819  1.1411 -2.1063
  110OSM   C15F11406   2.942   3.832   9.075 -0.3875  0.3335  0.1651
  110OSM   H15F11407   2.892   3.916   9.127 -2.4904 -0.0697 -1.0796
  110OSM   H15G11408   2.871   3.747   9.082 -0.8073  0.4958 -1.6305
  110OSM   C16F11409   2.947   3.866   8.922  0.1473  0.5321 -0.0531
  110OSM   H16F11410   2.843   3.885   8.889  0.4341  0.4747 -1.0358
  110OSM   H16G11411   2.973   3.770   8.873 -1.2015 -1.9302  3.6310
  110OSM   C17F11412   3.037   3.983   8.875 -0.0333  0.2794 -0.0861
  110OSM   H17F11413   3.072   3.976   8.770 -0.1504  1.2206 -0.1994
  110OSM   H17G11414   3.135   3.980   8.927  0.1237 -3.8085 -0.2968
  110OSM   C18F11415   2.972   4.129   8.896  0.1044  0.2544  0.9193
  110OSM   H18F11416   3.042   4.200   8.847  2.3273 -2.7096 -0.5073
  110OSM   H18G11417   2.981   4.154   9.004 -2.5021 -3.3580  2.1766
  110OSM   H18H11418   2.873   4.146   8.849  0.0474  0.6623  1.1802
  111OSM      N11419   3.591   1.612  10.944  0.0625  0.1066 -0.3208
  111OSM    C1511420   3.527   1.718  11.026  0.4284  0.2120 -0.4527
  111OSM   H15A11421   3.566   1.720  11.126 -0.4221  0.6601 -0.1265
  111OSM   H15B11422   3.422   1.704  11.047  0.5388  1.0485  0.7368
  111OSM   H15C11423   3.536   1.817  10.984  0.7422  0.3577 -0.0520
  111OSM    C1411424   3.733   1.652  10.949  0.0778 -0.1892  0.0750
  111OSM   H14A11425   3.770   1.673  11.048 -0.1311  0.0183  0.1096
  111OSM   H14B11426   3.740   1.741  10.889  1.3991  0.2727  0.8576
  111OSM   H14C11427   3.791   1.568  10.914  2.5354  0.9339  1.2240
  111OSM    C1311428   3.561   1.475  11.005  0.2489 -0.7135 -0.2474
  111OSM   H13A11429   3.597   1.391  10.948 -0.2746 -1.6265  0.7187
  111OSM   H13B11430   3.455   1.468  11.026 -0.2324  2.6018 -0.9601
  111OSM   H13C11431   3.604   1.465  11.104 -1.1559  0.7182  0.5544
  111OSM    C1211432   3.524   1.622  10.798  0.3956 -0.0051 -0.7040
  111OSM   H12A11433   3.556   1.707  10.740 -2.5829 -0.3195 -3.0558
  111OSM   H12B11434   3.418   1.634  10.813  0.3953 -0.0897 -0.6394
  111OSM    C1111435   3.556   1.498  10.709  0.1906 -1.2380 -0.5984
  111OSM   H11A11436   3.661   1.467  10.729  0.3797  0.2995  0.9227
  111OSM   H11B11437   3.556   1.535  10.604  3.2132  2.0758  0.3824
  111OSM      P11438   3.323   1.391  10.713  0.0935  0.3292  0.0570
  111OSM    O1311439   3.272   1.250  10.716  0.0129 -0.5679 -0.0965
  111OSM    O1411440   3.254   1.488  10.798  0.5606  0.6173 -0.7154
  111OSM    O1111441   3.315   1.432  10.567  0.0929  0.7905  0.1643
  111OSM    O1211442   3.475   1.391  10.734 -0.0732 -0.2513 -0.0238
  111OSM    C1S11443   3.192   1.464  10.513 -0.2399  0.6317  0.3345
  111OSM    H1S11444   3.148   1.559  10.551 -1.5166 -0.1994  1.0125
  111OSM    H1T11445   3.110   1.390  10.528 -0.7848  1.3200  0.8019
  111OSM     NF11446   3.075   1.534  10.317 -0.2677  0.1940  0.3720
  111OSM    HNF11447   3.000   1.476  10.285  0.0512 -0.5482  0.9366
  111OSM    C2S11448   3.197   1.467  10.358  0.0874  0.1466 -0.0710
  111OSM    H2S11449   3.276   1.540  10.330 -0.6936  0.5416 -1.3254
  111OSM    C3S11450   3.217   1.325  10.301 -0.9691  0.0487  0.0851
  111OSM    H3S11451   3.127   1.265  10.328 -1.4460 -0.3388 -2.2070
  111OSM     O311452   3.336   1.259  10.349 -0.3488  0.0458 -0.3920
  111OSM    HO311453   3.370   1.321  10.414 -0.5217  1.7800 -1.8926
  111OSM    C4S11454   3.221   1.316  10.154  0.7505 -0.1183 -0.6178
  111OSM    H4S11455   3.134   1.362  10.105  1.1405  2.8277  1.2272
  111OSM    C5S11456   3.316   1.280  10.069  0.8899 -0.0847  0.1744
  111OSM    H5S11457   3.414   1.256  10.112  1.3864  0.5126 -0.6028
  111OSM    C6S11458   3.322   1.291   9.921 -0.3121  0.2813  0.0276
  111OSM    H6S11459   3.221   1.280   9.876  0.2085 -1.3204 -0.8335
  111OSM    H6T11460   3.367   1.201   9.874 -3.2956  0.2142 -3.1087
  111OSM    C7S11461   3.385   1.416   9.861  0.1037  0.4241 -0.2332
  111OSM    H7S11462   3.486   1.431   9.907  0.2290 -0.5435 -0.1715
  111OSM    H7T11463   3.316   1.497   9.893 -1.2160 -0.6271 -0.3451
  111OSM    C8S11464   3.393   1.407   9.708  0.0784 -0.4214 -0.4691
  111OSM    H8S11465   3.302   1.365   9.660  0.5816  0.7636 -2.5505
  111OSM    H8T11466   3.472   1.330   9.696 -1.3265 -1.9516 -0.2134
  111OSM    C9S11467   3.424   1.541   9.646 -0.0783 -0.2865  1.0112
  111OSM    H9S11468   3.504   1.588   9.707  1.5972 -1.6954 -0.0358
  111OSM    H9T11469   3.331   1.602   9.642  1.1906  1.6235 -1.6616
  111OSM   C10S11470   3.458   1.533   9.496 -0.8345  0.4669  0.3313
  111OSM   H10S11471   3.549   1.470   9.486 -1.0806  0.4327 -2.4561
  111OSM   H10T11472   3.479   1.637   9.464  1.6339  0.0928  0.5688
  111OSM   C11S11473   3.357   1.470   9.401 -0.4706 -0.2649 -0.4109
  111OSM   H11S11474   3.261   1.523   9.423  0.6453  0.4796  3.5251
  111OSM   H11T11475   3.341   1.361   9.412 -0.0663 -0.2011  0.9599
  111OSM   C12S11476   3.394   1.495   9.249  0.3745 -0.2072  0.5101
  111OSM   H12S11477   3.446   1.593   9.239 -1.6724  0.7393 -1.8475
  111OSM   H12T11478   3.303   1.509   9.188  0.1717 -1.5457  0.4858
  111OSM   C13S11479   3.479   1.386   9.179  0.6214 -0.2101  0.1176
  111OSM   H13S11480   3.446   1.287   9.217  1.9267 -0.1950  1.3921
  111OSM   H13T11481   3.588   1.383   9.197  0.4936 -0.1213  0.9485
  111OSM   C14S11482   3.464   1.389   9.028  0.3723  0.4753  0.8227
  111OSM   H14S11483   3.510   1.480   8.984  1.5820 -1.1824 -1.5436
  111OSM   H14T11484   3.358   1.395   8.994  1.0801 -0.4401 -1.7608
  111OSM   C15S11485   3.528   1.260   8.965  0.1988 -0.6518 -0.6900
  111OSM   H15S11486   3.472   1.166   8.983  1.7907 -1.3931  0.7203
  111OSM   H15T11487   3.634   1.265   8.997  0.0466 -1.0232 -0.1061
  111OSM   C16S11488   3.521   1.269   8.812  0.1487 -0.4284 -0.6104
  111OSM   H16S11489   3.555   1.373   8.788 -0.0455 -0.0674  0.6065
  111OSM   H16T11490   3.417   1.243   8.785  0.1211 -1.6461  0.6058
  111OSM   C17S11491   3.611   1.161   8.751 -0.4436 -0.0230 -0.0706
  111OSM   H17S11492   3.562   1.062   8.752 -1.0406  0.2553 -0.7608
  111OSM   H17T11493   3.708   1.157   8.806 -0.1495  0.7908 -0.5104
  111OSM   C18S11494   3.645   1.202   8.606 -0.7098 -0.0406 -0.4688
  111OSM   H18S11495   3.671   1.310   8.606 -2.6904  0.4861  1.1072
  111OSM   H18T11496   3.553   1.197   8.543 -0.7966  0.7596 -0.4208
  111OSM   H18U11497   3.725   1.137   8.565  0.7192  0.8221  0.8478
  111OSM    C1F11498   3.051   1.664  10.308 -0.6371  0.2028  0.2259
  111OSM     OF11499   3.128   1.747  10.361 -0.2996  0.2866  0.2736
  111OSM    C2F11500   2.934   1.711  10.224  0.3853  0.5797  1.0048
  111OSM    H2F11501   2.953   1.811  10.181 -0.4601 -0.0630 -1.0011
  111OSM    H2G11502   2.836   1.694  10.274 -0.6148  2.1537 -0.2893
  111OSM    C3F11503   2.931   1.638  10.086 -0.4007  0.2767 -0.0696
  111OSM    H3F11504   2.846   1.676  10.026  0.7079  1.4212 -0.9805
  111OSM    H3G11505   2.906   1.530  10.085  1.3445 -0.1585 -1.5047
  111OSM    C4F11506   3.054   1.649  10.001 -0.3121  0.3749 -0.2356
  111OSM    H4F11507   3.134   1.586  10.044 -0.5992  1.0168  1.2852
  111OSM    H4G11508   3.092   1.753  10.013  0.5322  0.2983 -1.8411
  111OSM    C5F11509   3.034   1.602   9.859  0.1815  0.3685 -0.6578
  111OSM    H5F11510   2.943   1.539   9.859  0.5329 -0.3096  2.3044
  111OSM    H5G11511   3.114   1.530   9.833 -1.1408 -2.6387  2.7416
  111OSM    C6F11512   3.023   1.716   9.758  0.1145 -0.0612  0.2704
  111OSM    H6F11513   3.107   1.788   9.763 -0.2793  0.4559 -0.3705
  111OSM    H6G11514   2.932   1.774   9.784 -1.3650 -1.3365 -1.7929
  111OSM    C7F11515   3.012   1.678   9.611  0.2428 -0.5535  0.0121
  111OSM    H7F11516   2.932   1.602   9.595 -1.3745  0.9778  0.5574
  111OSM    H7G11517   3.113   1.644   9.578 -0.0409 -1.4975  0.0692
  111OSM    C8F11518   2.983   1.799   9.517 -0.0040 -0.0601 -0.5689
  111OSM    H8F11519   3.060   1.873   9.549  0.8329 -2.0332  2.3093
  111OSM    H8G11520   2.882   1.840   9.533 -0.0651  0.5063 -2.1550
  111OSM    C9F11521   3.002   1.768   9.368 -0.1800  0.2292  0.1894
  111OSM    H9F11522   2.928   1.697   9.328 -1.2049  1.5526 -0.3310
  111OSM   C10F11523   3.102   1.817   9.292 -0.6886 -0.0077 -0.4295
  111OSM   H10F11524   3.114   1.789   9.187 -0.6834 -0.8982 -0.1954
  111OSM   C11F11525   3.217   1.912   9.347  0.5603  0.3593  0.5438
  111OSM   H11F11526   3.267   1.864   9.433 -0.1166 -1.0451  0.1794
  111OSM   H11G11527   3.168   2.004   9.386  2.9513  2.8437 -1.8978
  111OSM   C12F11528   3.303   1.959   9.228 -0.5845  0.3776 -0.2102
  111OSM   H12F11529   3.358   2.050   9.258 -1.4258  0.8849 -0.1768
  111OSM   H12G11530   3.242   1.975   9.137  1.3062 -3.0693 -2.2836
  111OSM   C13F11531   3.413   1.855   9.184  0.4878 -0.3848  0.7098
  111OSM   H13F11532   3.357   1.761   9.163  1.0092 -0.6460  0.4580
  111OSM   H13G11533   3.489   1.842   9.264  1.8151 -0.2631 -0.4909
  111OSM   C14F11534   3.468   1.903   9.044 -0.3654  0.2803  0.3046
  111OSM   H14F11535   3.384   1.929   8.976 -1.5381  1.6494  2.1986
  111OSM   H14G11536   3.524   1.818   8.998 -0.9309  0.3785 -0.5781
  111OSM   C15F11537   3.578   2.011   9.052 -0.4810 -0.2962  0.0692
  111OSM   H15F11538   3.537   2.102   9.102  0.0802 -0.7871  1.4743
  111OSM   H15G11539   3.607   2.039   8.948 -0.1851 -2.4069 -0.4531
  111OSM   C16F11540   3.697   1.963   9.128  0.0261 -0.2629  0.2908
  111OSM   H16F11541   3.718   1.860   9.092 -0.5613 -0.0214 -0.7836
  111OSM   H16G11542   3.668   1.968   9.235  0.5471  0.4570  0.4015
  111OSM   C17F11543   3.824   2.053   9.104 -0.2441  0.1321  0.6531
  111OSM   H17F11544   3.897   2.034   9.186  0.6076 -0.3655 -0.2052
  111OSM   H17G11545   3.796   2.160   9.110 -0.1131  0.1903  0.2291
  111OSM   C18F11546   3.892   2.021   8.970  0.2117  0.6475  0.1674
  111OSM   H18F11547   3.989   2.074   8.961  0.4107  0.4270  0.9431
  111OSM   H18G11548   3.822   2.056   8.891 -0.6340  0.6641  0.9079
  111OSM   H18H11549   3.904   1.911   8.964  0.2405  0.5632  1.3651
  112OSM      N11550   1.719   0.770  10.465 -0.4753  0.0392 -0.1387
  112OSM    C1511551   1.849   0.697  10.483 -0.3648 -0.1963  0.3451
  112OSM   H15A11552   1.910   0.746  10.558 -0.1236  2.1255 -1.2491
  112OSM   H15B11553   1.915   0.683  10.399  0.1686  0.8666  0.5744
  112OSM   H15C11554   1.834   0.596  10.518 -1.2868 -0.4830 -0.8175
  112OSM    C1411555   1.746   0.900  10.416  1.0843 -1.0533  0.2115
  112OSM   H14A11556   1.787   0.907  10.317  1.3086  0.6175  0.3922
  112OSM   H14B11557   1.818   0.954  10.477  0.1544  1.9959 -1.1682
  112OSM   H14C11558   1.653   0.954  10.418  1.7881  0.1906  0.9619
  112OSM    C1311559   1.648   0.706  10.357  0.5145  0.0598  0.1748
  112OSM   H13A11560   1.551   0.752  10.340 -0.1652 -1.8222 -1.4497
  112OSM   H13B11561   1.634   0.601  10.378 -0.5994  0.5487  2.1284
  112OSM   H13C11562   1.695   0.716  10.260  0.5860 -0.0147  0.2013
  112OSM    C1211563   1.645   0.761  10.590  0.1005  0.4389  0.1450
  112OSM   H12A11564   1.645   0.655  10.614  5.2245 -0.3035 -1.8311
  112OSM   H12B11565   1.546   0.803  10.580 -0.6321 -1.5105 -1.7252
  112OSM    C1111566   1.699   0.830  10.717 -0.1785 -0.4795  0.4199
  112OSM   H11A11567   1.801   0.793  10.740 -0.3192 -2.0840 -1.3093
  112OSM   H11B11568   1.637   0.809  10.807  0.2285  0.5016  0.9462
  112OSM      P11569   1.561   1.053  10.699 -0.1357 -0.1416  0.2638
  112OSM    O1311570   1.501   1.026  10.826 -0.0600  0.1711  0.1753
  112OSM    O1411571   1.580   1.191  10.652 -0.2461 -0.2060 -0.4945
  112OSM    O1111572   1.458   0.983  10.589  0.2944 -0.2243 -0.4137
  112OSM    O1211573   1.701   0.971  10.699  0.7839 -0.0002 -0.1435
  112OSM    C1S11574   1.424   1.058  10.470 -0.5124 -0.6254 -0.6630
  112OSM    H1S11575   1.513   1.070  10.404 -1.4985  2.0025 -1.6460
  112OSM    H1T11576   1.377   1.157  10.488 -2.4384 -0.9875 -3.2162
  112OSM     NF11577   1.336   1.019  10.238  0.5877 -0.3610 -0.1878
  112OSM    HNF11578   1.258   1.073  10.206  0.8287 -0.2138 -0.5279
  112OSM    C2S11579   1.336   0.970  10.375  0.2286 -0.1050 -0.5981
  112OSM    H2S11580   1.388   0.872  10.383  0.0311 -0.4009 -2.3829
  112OSM    C3S11581   1.192   0.935  10.424 -0.5849  0.0851  0.1125
  112OSM    H3S11582   1.130   1.025  10.445  0.3623  0.4733  1.3459
  112OSM     O311583   1.203   0.872  10.556 -0.8646 -0.1629 -0.1337
  112OSM    HO311584   1.294   0.881  10.588  0.3691 -2.7701 -2.4902
  112OSM    C4S11585   1.119   0.842  10.332  0.0967 -0.1551  0.4679
  112OSM    H4S11586   1.144   0.735  10.326  1.8378  0.2029  0.7535
  112OSM    C5S11587   1.014   0.880  10.258 -1.0089  0.0118 -0.3883
  112OSM    H5S11588   1.001   0.989  10.252 -1.0486  0.0742  0.7432
  112OSM    C6S11589   0.931   0.788  10.176  0.4624  0.1946  0.9805
  112OSM    H6S11590   0.830   0.788  10.222  0.5639  3.1687  1.3863
  112OSM    H6T11591   0.967   0.683  10.178 -3.1759 -1.2004  0.5481
  112OSM    C7S11592   0.909   0.848  10.035 -0.4416  0.3187  0.0044
  112OSM    H7S11593   0.855   0.944  10.039 -1.5441 -0.1293 -2.4802
  112OSM    H7T11594   0.846   0.779   9.975  0.0127 -0.8170  0.8023
  112OSM    C8S11595   1.040   0.852   9.951 -0.0648  0.4565  0.4752
  112OSM    H8S11596   1.096   0.757   9.965 -0.7070  0.0059  0.0052
  112OSM    H8T11597   1.105   0.938   9.981  1.8746 -0.1493 -1.6934
  112OSM    C9S11598   1.013   0.834   9.802  0.3061  0.0643  0.6053
  112OSM    H9S11599   0.956   0.739   9.791  0.7663 -0.0862 -0.6741
  112OSM    H9T11600   1.108   0.814   9.747  0.6002 -1.2462  1.5505
  112OSM   C10S11601   0.939   0.947   9.724  0.2484  0.2338 -0.3680
  112OSM   H10S11602   0.974   1.047   9.756 -1.8847  0.9366 -0.0534
  112OSM   H10T11603   0.836   0.933   9.763  0.1157 -0.4763 -0.9535
  112OSM   C11S11604   0.915   0.934   9.575 -0.4204 -0.9353  0.3453
  112OSM   H11S11605   0.905   0.826   9.553 -0.5117 -0.5572 -1.7408
  112OSM   H11T11606   1.008   0.968   9.523  1.0242  0.8117  3.7218
  112OSM   C12S11607   0.798   1.018   9.518  0.7672 -0.2640 -0.2396
  112OSM   H12S11608   0.848   1.110   9.482  1.1697 -1.2764 -2.4451
  112OSM   H12T11609   0.732   1.048   9.602 -0.0613  1.4912 -1.4542
  112OSM   C13S11610   0.727   0.945   9.403 -0.1387  0.1469  0.2242
  112OSM   H13S11611   0.659   1.025   9.365  1.8052  1.1132 -1.4381
  112OSM   H13T11612   0.669   0.863   9.451 -1.6952  0.1828 -1.4786
  112OSM   C14S11613   0.816   0.905   9.283 -0.3873 -0.3041 -0.8175
  112OSM   H14S11614   0.746   0.856   9.212 -2.4209  0.8272  0.3143
  112OSM   H14T11615   0.888   0.829   9.321  0.2487  0.4649 -0.4631
  112OSM   C15S11616   0.900   1.026   9.216  0.7484  0.9657  0.2470
  112OSM   H15S11617   0.942   1.096   9.291 -2.0324  2.1387  0.8560
  112OSM   H15T11618   0.832   1.076   9.144  1.0067 -0.2870 -0.9049
  112OSM   C16S11619   1.014   0.978   9.133  0.0979  0.0774  0.4523
  112OSM   H16S11620   1.095   0.930   9.192 -0.1420  0.0671  0.7775
  112OSM   H16T11621   1.062   1.070   9.093 -0.3388 -0.3212 -1.0378
  112OSM   C17S11622   0.979   0.882   9.016  0.0361 -0.2269 -0.0503
  112OSM   H17S11623   0.914   0.942   8.949 -1.2711  1.9862  2.9192
  112OSM   H17T11624   0.925   0.794   9.056 -1.2835  0.8396  0.5947
  112OSM   C18S11625   1.102   0.835   8.936  0.1947 -0.3548  0.1100
  112OSM   H18S11626   1.091   0.737   8.885 -1.7182 -0.6528  0.9885
  112OSM   H18T11627   1.185   0.814   9.007 -0.4938 -0.7484  0.8125
  112OSM   H18U11628   1.129   0.913   8.861  0.4336 -0.4797  0.0642
  112OSM    C1F11629   1.438   1.022  10.159 -0.1941  0.1558  0.6220
  112OSM     OF11630   1.544   0.960  10.179  0.0889 -0.0998  0.4623
  112OSM    C2F11631   1.429   1.104  10.038  0.1428 -1.3161  0.2540
  112OSM    H2F11632   1.526   1.159  10.031 -1.0909  1.0524  0.6140
  112OSM    H2G11633   1.338   1.168  10.043  0.3718 -1.0256  0.8874
  112OSM    C3F11634   1.427   1.017   9.909 -0.2789  0.0398  0.1993
  112OSM    H3F11635   1.324   0.976   9.910  0.1525 -1.2418 -1.8672
  112OSM    H3G11636   1.492   0.927   9.911  2.8001  2.0891 -0.4305
  112OSM    C4F11637   1.453   1.109   9.789  0.0002  0.5128 -0.3285
  112OSM    H4F11638   1.559   1.139   9.780  0.1382 -0.1979 -1.1421
  112OSM    H4G11639   1.390   1.195   9.821  2.2875  1.3481  2.4154
  112OSM    C5F11640   1.409   1.055   9.659 -0.5564  0.3294 -0.2630
  112OSM    H5F11641   1.302   1.031   9.681 -0.4788 -0.2608 -0.5183
  112OSM    H5G11642   1.458   0.956   9.643  0.9220  0.9141  0.4982
  112OSM    C6F11643   1.435   1.148   9.542  0.0216 -1.0217 -0.6583
  112OSM    H6F11644   1.545   1.169   9.541 -0.0481 -0.6060 -2.0919
  112OSM    H6G11645   1.388   1.245   9.569 -0.1323 -0.7634 -1.7850
  112OSM    C7F11646   1.396   1.097   9.402  0.7969  0.3859  0.0558
  112OSM    H7F11647   1.369   1.180   9.333 -0.9225 -0.9691 -0.9771
  112OSM    H7G11648   1.306   1.035   9.418  0.3092  0.9404 -0.4648
  112OSM    C8F11649   1.505   1.013   9.324  0.2632 -0.2612 -0.3815
  112OSM    H8F11650   1.547   0.934   9.391  2.6355  0.6189 -0.7102
  112OSM    H8G11651   1.597   1.068   9.292 -0.0855  0.9407  0.5908
  112OSM    C9F11652   1.436   0.945   9.206 -0.2432 -0.5578  0.0392
  112OSM    H9F11653   1.383   0.852   9.230 -0.1408 -0.3056  1.2748
  112OSM   C10F11654   1.422   1.001   9.089 -0.7784 -0.0561 -0.0346
  112OSM   H10F11655   1.375   0.937   9.012  0.9971 -0.2219 -1.0180
  112OSM   C11F11656   1.489   1.129   9.055  0.0985 -0.6318 -0.6810
  112OSM   H11F11657   1.590   1.115   9.012 -0.3902 -1.5525 -1.5960
  112OSM   H11G11658   1.488   1.200   9.140  2.0733 -1.9465  0.5099
  112OSM   C12F11659   1.422   1.199   8.935  0.2584 -0.4686  0.1630
  112OSM   H12F11660   1.468   1.298   8.915 -1.6377  0.4052 -0.1268
  112OSM   H12G11661   1.316   1.225   8.959  0.1006 -0.9948  0.0414
  112OSM   C13F11662   1.430   1.119   8.803  0.1679  0.0434  0.2709
  112OSM   H13F11663   1.458   1.013   8.821 -0.1801  0.1532  1.6070
  112OSM   H13G11664   1.510   1.161   8.738 -1.9460  0.9521 -1.8805
  112OSM   C14F11665   1.297   1.103   8.729  0.2925 -0.0734  0.1273
  112OSM   H14F11666   1.285   1.191   8.662 -2.1008  0.2196  0.8598
  112OSM   H14G11667   1.217   1.112   8.806 -0.3042  0.2695 -0.5126
  112OSM   C15F11668   1.285   0.970   8.651 -0.3504 -0.4363 -0.8555
  112OSM   H15F11669   1.193   0.987   8.591 -0.2603  0.4077 -0.7797
  112OSM   H15G11670   1.270   0.879   8.712  0.5161 -0.0307 -0.0088
  112OSM   C16F11671   1.406   0.941   8.561  0.5503 -0.4944 -0.4020
  112OSM   H16F11672   1.489   0.926   8.633  2.6066  1.6551 -2.1792
  112OSM   H16G11673   1.429   1.030   8.497  1.4335  1.2214  2.1408
  112OSM   C17F11674   1.386   0.805   8.484 -0.0280 -0.1315  0.1207
  112OSM   H17F11675   1.307   0.808   8.406  2.6068  0.3877 -2.7394
  112OSM   H17G11676   1.351   0.731   8.559  0.5205 -1.3392 -0.7656
  112OSM   C18F11677   1.510   0.764   8.410  0.2358 -0.5560 -0.0184
  112OSM   H18F11678   1.602   0.756   8.472  0.6155  2.4812 -0.0158
  112OSM   H18G11679   1.518   0.828   8.320 -0.3183  0.9870  0.9838
  112OSM   H18H11680   1.488   0.666   8.363 -2.0564 -1.6705  3.0007
  113OSM      N11681   2.506   6.029  10.910 -0.5635  0.2413  0.1759
  113OSM    C1511682   2.414   5.957  10.814  0.1243 -0.0266 -0.2075
  113OSM   H15A11683   2.337   6.030  10.790 -1.5236 -2.1607 -1.7640
  113OSM   H15B11684   2.365   5.874  10.862 -0.6167  0.6914  0.3126
  113OSM   H15C11685   2.455   5.934  10.717 -1.7018  0.2854 -1.0861
  113OSM    C1411686   2.443   6.053  11.048 -0.2542 -0.0044 -0.0100
  113OSM   H14A11687   2.355   6.115  11.040 -1.1943 -1.3448 -0.2928
  113OSM   H14B11688   2.509   6.106  11.116  1.5870 -2.2834  0.0951
  113OSM   H14C11689   2.413   5.962  11.097 -0.0823  1.1208  2.3071
  113OSM    C1311690   2.630   5.949  10.930 -0.0457  0.0613  0.0043
  113OSM   H13A11691   2.691   6.003  11.001 -0.1778  0.2521 -0.0284
  113OSM   H13B11692   2.696   5.936  10.846 -0.7628  1.1291 -0.7412
  113OSM   H13C11693   2.604   5.851  10.968  2.6414 -1.0839 -0.8809
  113OSM    C1211694   2.550   6.160  10.855  0.1407 -0.4803 -0.3896
  113OSM   H12A11695   2.592   6.143  10.757  2.0213 -0.1951  0.3334
  113OSM   H12B11696   2.639   6.196  10.903  0.9185 -0.6799 -1.6331
  113OSM    C1111697   2.452   6.282  10.852  0.0583  0.5422  0.7568
  113OSM   H11A11698   2.515   6.363  10.809  0.1027  1.1849  2.0050
  113OSM   H11B11699   2.420   6.314  10.953  2.8008  0.0607  1.8558
  113OSM      P11700   2.195   6.262  10.794 -0.3798 -0.0973  0.3965
  113OSM    O1311701   2.167   6.176  10.910  0.1034  0.0144  0.4908
  113OSM    O1411702   2.150   6.408  10.804  0.1980  0.5244  0.6055
  113OSM    O1111703   2.124   6.213  10.666 -0.3117 -0.2252 -0.1294
  113OSM    O1211704   2.353   6.251  10.759  0.0206 -0.0405 -0.0119
  113OSM    C1S11705   2.201   6.185  10.549 -0.1522  0.3813 -0.1806
  113OSM    H1S11706   2.231   6.078  10.549 -0.8906  0.1463 -1.5114
  113OSM    H1T11707   2.290   6.251  10.543  0.2122  0.1799  2.1525
  113OSM     NF11708   2.188   6.142  10.312  0.1299 -0.3988  0.5986
  113OSM    HNF11709   2.221   6.217  10.255 -1.0613 -0.0678  0.3112
  113OSM    C2S11710   2.110   6.195  10.423 -0.1556  0.1460 -0.1564
  113OSM    H2S11711   2.027   6.123  10.438  1.6316 -2.0809 -0.3553
  113OSM    C3S11712   2.048   6.337  10.413  0.1656 -0.0059 -0.0049
  113OSM    H3S11713   2.139   6.399  10.398  0.2668  0.1806  1.2473
  113OSM     O311714   1.994   6.393  10.533  0.5294 -0.5573  0.3638
  113OSM    HO311715   2.044   6.349  10.603  1.0916  0.0950  0.3863
  113OSM    C4S11716   1.951   6.341  10.302 -0.2003 -0.7821  0.3633
  113OSM    H4S11717   1.856   6.285  10.311 -0.2102 -1.1417 -1.5995
  113OSM    C5S11718   1.970   6.409  10.186  0.5619 -0.2447 -0.1835
  113OSM    H5S11719   2.060   6.470  10.171 -0.9560  2.2560  0.2942
  113OSM    C6S11720   1.881   6.408  10.066 -0.7349 -0.1389 -0.5959
  113OSM    H6S11721   1.940   6.402   9.972  0.3901  2.8395 -0.1993
  113OSM    H6T11722   1.822   6.503  10.062 -1.0385 -0.2362  1.0446
  113OSM    C7S11723   1.772   6.293  10.070  0.0657 -0.6295 -0.2356
  113OSM    H7S11724   1.708   6.298  10.160 -0.4695  2.2377 -0.6683
  113OSM    H7T11725   1.826   6.196  10.077  0.3997 -0.3214  2.2182
  113OSM    C8S11726   1.679   6.281   9.946 -0.5801 -0.2934 -0.1811
  113OSM    H8S11727   1.641   6.384   9.930  1.1245  0.3844 -0.1308
  113OSM    H8T11728   1.591   6.217   9.968 -0.9716 -0.0879 -1.1158
  113OSM    C9S11729   1.743   6.239   9.819 -0.6013  0.2993  0.5919
  113OSM    H9S11730   1.808   6.149   9.827 -0.2127  0.6556  1.7249
  113OSM    H9T11731   1.806   6.323   9.784  2.3537 -2.2698 -0.7929
  113OSM   C10S11732   1.653   6.214   9.703  0.0960  0.5865 -0.5456
  113OSM   H10S11733   1.575   6.293   9.712 -0.7582 -0.1830 -0.9762
  113OSM   H10T11734   1.595   6.120   9.717  0.8353  0.5345  3.0366
  113OSM   C11S11735   1.722   6.212   9.563  0.6430  1.1606 -0.5481
  113OSM   H11S11736   1.797   6.130   9.561 -0.7732 -0.2382  0.6968
  113OSM   H11T11737   1.782   6.306   9.557 -0.1885  1.7498  0.2129
  113OSM   C12S11738   1.631   6.214   9.439  0.0780  0.3425  0.0141
  113OSM   H12S11739   1.562   6.299   9.459 -0.6954 -0.5081  1.0186
  113OSM   H12T11740   1.568   6.125   9.421  0.5802  0.5642 -3.5086
  113OSM   C13S11741   1.730   6.241   9.315  0.0698 -0.2642 -0.0502
  113OSM   H13S11742   1.812   6.166   9.320 -0.6441 -1.0742 -0.1857
  113OSM   H13T11743   1.766   6.345   9.332 -0.5838  0.6902 -3.7468
  113OSM   C14S11744   1.657   6.247   9.175 -0.2837 -0.2783  0.4320
  113OSM   H14S11745   1.744   6.254   9.105 -0.8722 -0.3424 -0.3219
  113OSM   H14T11746   1.586   6.331   9.171 -0.4623 -0.4343  0.3128
  113OSM   C15S11747   1.589   6.111   9.146 -0.1874 -0.1901 -0.4653
  113OSM   H15S11748   1.501   6.105   9.215  0.0930  1.7045  0.1202
  113OSM   H15T11749   1.659   6.030   9.175  0.0442  0.4328  0.8255
  113OSM   C16S11750   1.553   6.091   8.993  0.1990 -0.2520  0.2908
  113OSM   H16S11751   1.651   6.092   8.941  0.1163 -0.2228  0.1375
  113OSM   H16T11752   1.492   6.179   8.963 -1.1919 -1.3521 -0.1960
  113OSM   C17S11753   1.484   5.954   8.958 -0.6884  0.0606  0.0634
  113OSM   H17S11754   1.379   5.956   8.994 -1.3109  0.8848 -1.6982
  113OSM   H17T11755   1.539   5.875   9.013 -1.8556  0.5946  2.1234
  113OSM   C18S11756   1.479   5.921   8.811 -0.7786 -0.5073 -0.6974
  113OSM   H18S11757   1.438   6.011   8.761  0.9859 -0.2507 -1.7647
  113OSM   H18T11758   1.417   5.829   8.803 -0.9867 -0.7186  2.2495
  113OSM   H18U11759   1.580   5.904   8.768  0.0710 -0.5397  1.1930
  113OSM    C1F11760   2.224   6.008  10.301 -0.4882  0.5084  0.2990
  113OSM     OF11761   2.191   5.931  10.385 -0.1646  1.0403  0.1342
  113OSM    C2F11762   2.305   5.954  10.179  0.2223  0.3965  0.4809
  113OSM    H2F11763   2.393   5.889  10.195  0.9513  0.5979 -2.1463
  113OSM    H2G11764   2.350   6.039  10.124  2.1595 -0.4907  0.6065
  113OSM    C3F11765   2.211   5.868  10.085 -0.0942 -0.1468  0.2688
  113OSM    H3F11766   2.184   5.775  10.141 -1.3549  1.0291  1.6786
  113OSM    H3G11767   2.279   5.830  10.006  2.7087  1.3491  1.8058
  113OSM    C4F11768   2.075   5.932  10.043  0.2117 -0.2390  0.3207
  113OSM    H4F11769   2.092   6.010   9.966 -1.7612  0.0334  0.1113
  113OSM    H4G11770   2.022   5.967  10.134 -2.0431 -1.5686 -0.4194
  113OSM    C5F11771   1.992   5.823   9.972 -0.0211  0.6404  0.5527
  113OSM    H5F11772   1.956   5.744  10.042 -1.5098  1.4906  0.7819
  113OSM    H5G11773   2.051   5.767   9.897  2.5489  1.4921  1.8175
  113OSM    C6F11774   1.874   5.883   9.897 -0.1888 -0.3927 -0.3446
  113OSM    H6F11775   1.902   5.972   9.836 -1.9344 -0.7542 -1.7582
  113OSM    H6G11776   1.809   5.918   9.980  1.2841  2.2793 -0.2076
  113OSM    C7F11777   1.802   5.789   9.805  0.1735  0.3066 -0.2200
  113OSM    H7F11778   1.777   5.713   9.883 -2.1187  0.1894 -0.9926
  113OSM    H7G11779   1.867   5.736   9.733 -0.4507 -2.7749  1.2984
  113OSM    C8F11780   1.672   5.846   9.762  0.6016 -0.1503 -0.0875
  113OSM    H8F11781   1.689   5.930   9.691 -1.0893 -1.7581 -2.5383
  113OSM    H8G11782   1.617   5.893   9.847 -2.6282 -0.1948 -2.0092
  113OSM    C9F11783   1.574   5.752   9.688  0.0190 -0.5301  0.4605
  113OSM    H9F11784   1.519   5.676   9.746 -0.7523  0.7222  1.4215
  113OSM   C10F11785   1.568   5.737   9.549  0.0438 -0.1789 -0.0791
  113OSM   H10F11786   1.500   5.665   9.503 -0.3517  0.9893 -1.3884
  113OSM   C11F11787   1.650   5.807   9.440  0.1598 -0.3452 -0.0842
  113OSM   H11F11788   1.700   5.893   9.488 -0.4986  0.5980 -1.0400
  113OSM   H11G11789   1.578   5.852   9.368  0.4623  1.9270  0.9473
  113OSM   C12F11790   1.752   5.718   9.367  0.1958 -0.3941 -0.9731
  113OSM   H12F11791   1.790   5.789   9.289  1.3140 -0.4313 -0.4761
  113OSM   H12G11792   1.703   5.635   9.311  0.1772 -1.2141  0.2390
  113OSM   C13F11793   1.868   5.652   9.456  0.3713  0.0745  0.3737
  113OSM   H13F11794   1.826   5.568   9.514 -1.1316 -1.2740 -2.4640
  113OSM   H13G11795   1.915   5.737   9.509  1.9154 -0.7215  0.3258
  113OSM   C14F11796   1.968   5.589   9.361  0.4356  0.6258  0.4636
  113OSM   H14F11797   2.070   5.563   9.398  0.4969  0.3054  0.0754
  113OSM   H14G11798   1.972   5.663   9.279  0.1997 -0.1604 -0.2726
  113OSM   C15F11799   1.929   5.441   9.309  0.0272 -0.5831 -0.4389
  113OSM   H15F11800   1.828   5.432   9.264  0.7309 -1.7299 -1.8557
  113OSM   H15G11801   1.947   5.376   9.398 -0.6676  1.1468  1.0321
  113OSM   C16F11802   2.016   5.393   9.191  0.4789  0.3727  0.0261
  113OSM   H16F11803   2.012   5.456   9.099  0.6768 -0.8087 -0.8218
  113OSM   H16G11804   1.972   5.293   9.172  1.8734 -0.2655  0.0077
  113OSM   C17F11805   2.166   5.366   9.217  0.3385  0.1496 -0.2532
  113OSM   H17F11806   2.181   5.311   9.312  1.1952  0.6603 -0.0825
  113OSM   H17G11807   2.214   5.465   9.233  0.5855  0.2977 -1.7735
  113OSM   C18F11808   2.230   5.295   9.096  0.3261  0.1352 -0.3854
  113OSM   H18F11809   2.340   5.305   9.106  0.4810  0.6532 -2.1899
  113OSM   H18G11810   2.211   5.338   8.995  1.1515 -0.1183 -0.6540
  113OSM   H18H11811   2.194   5.190   9.087 -0.5593  0.4665 -0.8159
  114OSM      N11812   5.508   4.025  11.868 -0.6597 -0.4879  0.3286
  114OSM    C1511813   5.636   4.100  11.850 -0.7973  0.2692 -0.3234
  114OSM   H15A11814   5.617   4.207  11.843 -0.0832  0.2969 -3.4796
  114OSM   H15B11815   5.675   4.080  11.751  0.7731  0.6473  0.1893
  114OSM   H15C11816   5.713   4.091  11.924  0.8190  3.9446 -1.2889
  114OSM    C1411817   5.554   3.884  11.895 -0.1126  0.2940 -0.4820
  114OSM   H14A11818   5.616   3.849  11.814  0.0298 -0.1208 -0.1952
  114OSM   H14B11819   5.471   3.821  11.922 -0.9499  2.6038  3.0767
  114OSM   H14C11820   5.621   3.878  11.981 -0.8431  0.3706  0.1026
  114OSM    C1311821   5.445   4.066  11.998 -0.3586 -0.1155 -0.9242
  114OSM   H13A11822   5.349   4.021  12.017 -1.1543  1.6526 -0.5328
  114OSM   H13B11823   5.436   4.174  12.001 -0.9291 -0.1835  1.5503
  114OSM   H13C11824   5.507   4.052  12.085 -0.3054  0.9882 -0.7648
  114OSM    C1211825   5.419   4.045  11.748 -1.1420 -0.5087  0.1234
  114OSM   H12A11826   5.393   4.150  11.751  0.0281 -0.2077  1.7339
  114OSM   H12B11827   5.326   3.996  11.772 -0.5153 -0.8635  2.0252
  114OSM    C1111828   5.461   4.003  11.609  0.0423 -0.3183 -0.2200
  114OSM   H11A11829   5.374   4.020  11.541 -0.0886 -2.3590 -0.6371
  114OSM   H11B11830   5.481   3.894  11.607 -0.6364 -0.4758  0.9392
  114OSM      P11831   5.578   4.183  11.465  0.1303  0.2306 -0.3430
  114OSM    O1311832   5.454   4.261  11.475  0.3557 -0.2080 -0.3919
  114OSM    O1411833   5.700   4.266  11.474  0.2777 -0.1008 -0.3849
  114OSM    O1111834   5.561   4.118  11.324 -0.5460  0.3786  0.3258
  114OSM    O1211835   5.582   4.069  11.574 -0.4498 -0.5055  0.3411
  114OSM    C1S11836   5.444   4.065  11.267  0.1403 -0.4274 -0.5115
  114OSM    H1S11837   5.355   4.120  11.303  0.0797 -1.6540  1.3394
  114OSM    H1T11838   5.434   3.958  11.296 -2.9038  0.0603  0.5927
  114OSM     NF11839   5.301   4.062  11.058 -0.3774  0.5249 -0.6583
  114OSM    HNF11840   5.297   3.973  11.015  0.6466 -1.8019  3.4908
  114OSM    C2S11841   5.435   4.098  11.109 -0.3195  0.0588  0.0583
  114OSM    H2S11842   5.441   4.208  11.101  3.5666 -0.0206 -0.3812
  114OSM    C3S11843   5.551   4.025  11.036 -0.5828  0.5722 -0.6084
  114OSM    H3S11844   5.532   3.916  11.031  1.2350  0.2137 -0.2664
  114OSM     O311845   5.676   4.042  11.103  0.1996  0.4965 -0.5081
  114OSM    HO311846   5.636   4.084  11.179 -0.8130  0.9007 -1.2410
  114OSM    C4S11847   5.568   4.078  10.894  0.3513 -0.1310  0.2281
  114OSM    H4S11848   5.493   4.040  10.822 -0.6017 -1.2306  1.7348
  114OSM    C5S11849   5.647   4.175  10.846 -1.0037  0.0609 -0.4825
  114OSM    H5S11850   5.699   4.244  10.914  0.2714  1.0161 -2.3181
  114OSM    C6S11851   5.652   4.209  10.693 -0.8477 -1.2536 -0.0084
  114OSM    H6S11852   5.670   4.109  10.649  0.3294 -2.5558  3.1525
  114OSM    H6T11853   5.744   4.269  10.675  0.3628 -2.9699  0.2654
  114OSM    C7S11854   5.527   4.278  10.634 -0.4353 -0.0724 -0.7906
  114OSM    H7S11855   5.494   4.361  10.701  1.1752 -0.8253  1.0567
  114OSM    H7T11856   5.449   4.199  10.643 -1.2601  0.8114  0.1172
  114OSM    C8S11857   5.544   4.310  10.489 -0.2653 -0.2279 -0.2108
  114OSM    H8S11858   5.624   4.387  10.485  0.4568 -1.0065 -2.4260
  114OSM    H8T11859   5.450   4.344  10.439  0.3531  0.9827 -0.5822
  114OSM    C9S11860   5.596   4.191  10.407 -0.2803 -0.2231 -0.0052
  114OSM    H9S11861   5.540   4.099  10.433  1.7513 -1.3958  0.4153
  114OSM    H9T11862   5.701   4.161  10.428 -0.8558 -1.2724  1.6290
  114OSM   C10S11863   5.592   4.216  10.254  0.4863  0.0845 -1.0099
  114OSM   H10S11864   5.665   4.297  10.236 -0.6053  0.7028 -2.9234
  114OSM   H10T11865   5.491   4.250  10.221 -0.5012  1.7986  3.1032
  114OSM   C11S11866   5.632   4.092  10.184  0.8366  0.1810  0.2669
  114OSM   H11S11867   5.542   4.029  10.170  1.5098 -0.9158  0.7856
  114OSM   H11T11868   5.694   4.029  10.251  0.1218 -1.0732 -0.2161
  114OSM   C12S11869   5.717   4.113  10.059 -0.4993 -1.1228  0.9368
  114OSM   H12S11870   5.762   4.017  10.028 -1.0734 -1.5014  1.2545
  114OSM   H12T11871   5.800   4.181  10.088 -0.3699 -1.1790  0.7005
  114OSM   C13S11872   5.646   4.183   9.940 -0.3667  0.7969  0.3335
  114OSM   H13S11873   5.604   4.277   9.982  1.3156  2.1870 -0.9586
  114OSM   H13T11874   5.559   4.123   9.907 -1.2087  2.4666 -0.6260
  114OSM   C14S11875   5.746   4.217   9.833  0.2468 -0.6404  0.4008
  114OSM   H14S11876   5.765   4.123   9.778 -0.7094 -2.2724  2.6695
  114OSM   H14T11877   5.842   4.245   9.881  0.5514 -0.7778 -0.1231
  114OSM   C15S11878   5.708   4.344   9.748  0.2609  0.6026  0.0233
  114OSM   H15S11879   5.802   4.378   9.699  1.3818  1.2897  2.4812
  114OSM   H15T11880   5.678   4.432   9.808 -1.3471  0.3413 -0.3582
  114OSM   C16S11881   5.602   4.315   9.641  0.1759  0.1661  0.4557
  114OSM   H16S11882   5.499   4.302   9.682  0.1555 -0.3767  0.2456
  114OSM   H16T11883   5.633   4.211   9.614  2.7766  1.2179 -0.9190
  114OSM   C17S11884   5.589   4.423   9.539 -0.2656 -0.5098  0.1595
  114OSM   H17S11885   5.691   4.430   9.496 -0.8465 -2.8939 -1.8708
  114OSM   H17T11886   5.566   4.509   9.606  1.7817  0.1915  0.0186
  114OSM   C18S11887   5.481   4.389   9.435  0.3265  0.2577 -0.1647
  114OSM   H18S11888   5.389   4.344   9.478  0.2306 -1.3537 -1.9169
  114OSM   H18T11889   5.503   4.298   9.376  0.6906 -0.1312  0.5478
  114OSM   H18U11890   5.451   4.473   9.370  0.1344  0.3733  0.0741
  114OSM    C1F11891   5.187   4.132  11.087 -0.0190 -0.1009 -0.3879
  114OSM     OF11892   5.190   4.236  11.162  0.8661 -0.4233 -0.1094
  114OSM    C2F11893   5.058   4.071  11.034  0.0686 -0.2040  0.2576
  114OSM    H2F11894   4.985   4.076  11.117  1.0699 -0.5120  1.1857
  114OSM    H2G11895   5.077   3.967  11.000  2.9370 -0.3190  1.8750
  114OSM    C3F11896   5.017   4.167  10.924  0.2593 -0.1251 -0.0133
  114OSM    H3F11897   5.031   4.274  10.951  1.3905  0.0400 -1.1273
  114OSM    H3G11898   4.909   4.152  10.903 -0.3639  0.4441  2.5352
  114OSM    C4F11899   5.108   4.157  10.800 -0.4145  0.1447  0.0497
  114OSM    H4F11900   5.119   4.050  10.773  0.3046  0.5042 -1.1902
  114OSM    H4G11901   5.208   4.195  10.828 -0.8921  0.0223  2.0295
  114OSM    C5F11902   5.062   4.225  10.671  0.2196 -0.3319  0.5099
  114OSM    H5F11903   5.092   4.330  10.694  1.6636 -0.7511  0.6697
  114OSM    H5G11904   4.954   4.209  10.652  0.0976  1.5740 -0.7169
  114OSM    C6F11905   5.143   4.172  10.552  0.6869 -0.8214  0.0067
  114OSM    H6F11906   5.128   4.062  10.550 -0.4838 -0.6935  0.7670
  114OSM    H6G11907   5.251   4.186  10.574  0.5258 -0.7331  0.7631
  114OSM    C7F11908   5.109   4.234  10.413 -0.1592 -0.0600  0.3471
  114OSM    H7F11909   5.181   4.198  10.337 -0.3457 -0.3332  0.3018
  114OSM    H7G11910   5.122   4.343  10.434  0.8274 -0.1994  0.5216
  114OSM    C8F11911   4.969   4.195  10.363  0.4290 -0.0794  0.0532
  114OSM    H8F11912   4.906   4.244  10.439 -0.6817 -3.4310  1.4973
  114OSM    H8G11913   4.957   4.084  10.366 -1.5351  0.1005  0.1098
  114OSM    C9F11914   4.935   4.242  10.223  0.2609  0.1128  0.4853
  114OSM    H9F11915   4.866   4.327  10.223  0.0980 -0.0109  1.6346
  114OSM   C10F11916   4.985   4.198  10.102  0.2339  0.7166 -0.1499
  114OSM   H10F11917   4.965   4.254  10.009  0.8362  0.3040 -0.5339
  114OSM   C11F11918   5.080   4.084  10.089 -0.0437 -0.1613  0.0102
  114OSM   H11F11919   5.040   4.007  10.020  2.4586  0.7303 -2.6152
  114OSM   H11G11920   5.088   4.030  10.185 -0.5340  1.0007  0.7292
  114OSM   C12F11921   5.219   4.138  10.046 -0.2878 -0.2185  0.0128
  114OSM   H12F11922   5.295   4.057  10.042 -1.7426 -1.6099 -0.5555
  114OSM   H12G11923   5.261   4.217  10.112  0.7479  0.8499 -1.8533
  114OSM   C13F11924   5.222   4.196   9.899  0.1831  0.6434  1.1566
  114OSM   H13F11925   5.322   4.239   9.879 -0.2946  2.3226  2.1736
  114OSM   H13G11926   5.154   4.283   9.903 -2.1653 -1.1213  3.2041
  114OSM   C14F11927   5.167   4.096   9.794  0.1913  0.0557  0.3292
  114OSM   H14F11928   5.066   4.058   9.819  0.0502 -0.6502 -1.1809
  114OSM   H14G11929   5.229   4.004   9.788  1.2144  0.7437 -0.0310
  114OSM   C15F11930   5.152   4.164   9.660 -0.0403 -0.3049 -0.4367
  114OSM   H15F11931   5.243   4.227   9.649 -1.6342  2.0729 -0.8133
  114OSM   H15G11932   5.066   4.234   9.655 -1.2373 -1.8478 -2.7393
  114OSM   C16F11933   5.142   4.065   9.544  0.4423  0.1389  0.1458
  114OSM   H16F11934   5.037   4.032   9.535  0.8013 -1.0340 -0.0054
  114OSM   H16G11935   5.195   3.975   9.583  3.0241  2.1232  1.5527
  114OSM   C17F11936   5.190   4.122   9.406 -0.3295 -0.2201  0.6415
  114OSM   H17F11937   5.298   4.146   9.414 -0.5222  1.4963 -1.1427
  114OSM   H17G11938   5.149   4.223   9.385  2.1804  0.7066 -0.2068
  114OSM   C18F11939   5.159   4.043   9.280 -0.5938 -0.4722 -0.6261
  114OSM   H18F11940   5.049   4.025   9.274 -0.6072 -0.0246 -3.4789
  114OSM   H18G11941   5.209   3.945   9.289 -0.1541 -0.0887  1.8599
  114OSM   H18H11942   5.197   4.099   9.192 -0.0919 -0.7502 -0.5866
  115OSM      N11943   5.887   1.353   6.213 -0.1282  0.5921 -0.0961
  115OSM    C1511944   5.810   1.378   6.087 -0.0547  0.0800  0.7938
  115OSM   H15A11945   5.745   1.464   6.090 -1.2628 -0.6920 -1.2461
  115OSM   H15B11946   5.742   1.295   6.070 -1.0518  0.5788  2.1718
  115OSM   H15C11947   5.877   1.406   6.007  0.1335  2.4121  1.7147
  115OSM    C1411948   5.798   1.320   6.328 -0.5068 -0.7874 -1.0007
  115OSM   H14A11949   5.859   1.331   6.417 -1.3343  2.0619 -0.7125
  115OSM   H14B11950   5.754   1.221   6.321  1.5987 -1.7698 -1.3879
  115OSM   H14C11951   5.717   1.391   6.336 -1.8343 -2.2849 -0.5564
  115OSM    C1311952   5.986   1.236   6.179  0.0271 -0.8790  0.2348
  115OSM   H13A11953   5.928   1.150   6.150 -1.6771 -0.6107  2.4956
  115OSM   H13B11954   6.048   1.202   6.261  1.9613 -1.7470 -1.4929
  115OSM   H13C11955   6.052   1.267   6.099 -2.6147 -0.5623 -1.9605
  115OSM    C1211956   5.974   1.480   6.250  0.6791 -0.2597  0.6401
  115OSM   H12A11957   6.019   1.519   6.160  1.2942  2.0673  1.8634
  115OSM   H12B11958   6.062   1.450   6.305  0.4368 -3.4749 -0.4943
  115OSM    C1111959   5.901   1.601   6.318 -0.1923 -0.6249 -0.2856
  115OSM   H11A11960   5.972   1.680   6.352  0.4785 -1.0665 -0.6266
  115OSM   H11B11961   5.863   1.560   6.413  0.1516  0.1050  0.1808
  115OSM      P11962   5.810   1.752   6.126 -0.1455  0.2120  0.4425
  115OSM    O1311963   5.936   1.729   6.058  0.2421 -0.2087 -0.2405
  115OSM    O1411964   5.689   1.744   6.043 -0.4869  0.0504 -0.1829
  115OSM    O1111965   5.819   1.892   6.198  0.2811  0.2303 -0.5367
  115OSM    O1211966   5.792   1.648   6.250  0.0486  0.0824  0.2256
  115OSM    C1S11967   5.711   1.955   6.265  0.3436  0.4215 -0.3315
  115OSM    H1S11968   5.622   1.904   6.223  0.6231 -1.5115  1.2962
  115OSM    H1T11969   5.705   2.064   6.242  2.4976  1.3073  2.7052
  115OSM     NF11970   5.609   2.007   6.484  0.7983 -0.0503  0.2589
  115OSM    HNF11971   5.623   2.102   6.511 -1.9720  0.1898  1.1898
  115OSM    C2S11972   5.718   1.938   6.421 -0.0270 -0.1944 -0.3303
  115OSM    H2S11973   5.705   1.831   6.446 -1.3460  0.3335  1.4204
  115OSM    C3S11974   5.855   1.992   6.474 -0.1032 -0.0868 -0.3706
  115OSM    H3S11975   5.865   2.101   6.452 -2.1598 -0.4770 -4.2342
  115OSM     O311976   5.971   1.936   6.409  0.2443  0.1628 -0.2106
  115OSM    HO311977   5.930   1.890   6.335 -0.7900  0.6346  0.0447
  115OSM    C4S11978   5.842   1.976   6.625 -0.0190  1.5319 -0.4512
  115OSM    H4S11979   5.787   2.061   6.667 -0.3200  2.8913 -3.3357
  115OSM    C5S11980   5.883   1.881   6.709  0.2219 -0.9668  0.3262
  115OSM    H5S11981   5.945   1.797   6.676  1.4243  0.5197 -1.3491
  115OSM    C6S11982   5.861   1.898   6.858  0.1695 -0.7637 -0.2939
  115OSM    H6S11983   5.884   2.005   6.874 -2.1944 -0.2975  0.2776
  115OSM    H6T11984   5.920   1.830   6.923  0.7686 -1.6457 -1.7123
  115OSM    C7S11985   5.708   1.890   6.892 -0.0833 -0.3658  0.4547
  115OSM    H7S11986   5.672   1.785   6.898 -0.0320 -0.4491 -0.4403
  115OSM    H7T11987   5.661   1.934   6.801 -1.3091 -4.0134 -0.8462
  115OSM    C8S11988   5.673   1.971   7.015 -1.0513 -0.3350 -0.3721
  115OSM    H8S11989   5.652   2.077   6.992  1.3623  0.8477  2.3437
  115OSM    H8T11990   5.754   1.975   7.091 -0.5525 -1.3384 -0.8221
  115OSM    C9S11991   5.553   1.912   7.080  0.5167 -0.0120  0.3496
  115OSM    H9S11992   5.570   1.806   7.109  1.1250  0.1108  0.4558
  115OSM    H9T11993   5.469   1.916   7.008  1.5993  2.3818 -0.9013
  115OSM   C10S11994   5.500   1.998   7.200 -0.2714  0.6317 -0.5472
  115OSM   H10S11995   5.471   2.100   7.166 -2.4598 -0.1697 -1.2568
  115OSM   H10T11996   5.585   2.010   7.271 -2.0036  1.3017  1.5375
  115OSM   C11S11997   5.373   1.958   7.277 -0.1864  0.4195 -0.2877
  115OSM   H11S11998   5.377   1.847   7.273  0.3899  0.4516 -0.5274
  115OSM   H11T11999   5.275   1.987   7.233  0.1611 -0.1219 -1.4565
  115OSM   C12S12000   5.384   2.006   7.419 -0.0247  0.2484 -0.3252
  115OSM   H12S12001   5.387   2.117   7.424 -2.4577  0.3327  0.9874
  115OSM   H12T12002   5.472   1.973   7.478 -1.6229  0.1361  2.1471
  115OSM   C13S12003   5.256   1.968   7.500 -0.4852 -0.0932  0.8782
  115OSM   H13S12004   5.231   1.861   7.488 -0.7004  0.0413  0.1118
  115OSM   H13T12005   5.171   2.026   7.457  0.1390  1.5044  1.7054
  115OSM   C14S12006   5.266   2.002   7.649  0.5522  0.4096 -0.3475
  115OSM   H14S12007   5.276   2.111   7.669 -0.5355  0.5197 -0.3339
  115OSM   H14T12008   5.349   1.948   7.700  1.4189  1.5170 -0.5321
  115OSM   C15S12009   5.140   1.961   7.722 -0.0220 -0.2581  0.2439
  115OSM   H15S12010   5.126   1.851   7.724 -1.9903 -0.0235  1.3320
  115OSM   H15T12011   5.048   1.996   7.671  0.1296 -0.0972  0.0782
  115OSM   C16S12012   5.127   2.013   7.862 -0.6146  0.2176  0.0763
  115OSM   H16S12013   5.144   2.122   7.849  2.0574 -0.3959 -2.5687
  115OSM   H16T12014   5.204   1.980   7.934 -1.7392  2.9856  2.7702
  115OSM   C17S12015   4.987   1.974   7.918 -0.3211  0.4884 -0.2675
  115OSM   H17S12016   4.979   1.864   7.935 -1.0218  0.1591 -2.4774
  115OSM   H17T12017   4.902   2.002   7.852 -0.4114  2.4221  0.6069
  115OSM   C18S12018   4.965   2.052   8.045  1.0377 -0.3045  0.0303
  115OSM   H18S12019   4.875   2.005   8.089  0.8852  1.3424  1.6099
  115OSM   H18T12020   4.951   2.160   8.023  0.2004 -0.3209  0.4489
  115OSM   H18U12021   5.041   2.031   8.124  0.9688  1.0776  0.4906
  115OSM    C1F12022   5.483   1.956   6.480  0.0044 -0.0086  0.4924
  115OSM     OF12023   5.456   1.855   6.414  0.0477  0.4297 -0.1682
  115OSM    C2F12024   5.370   2.033   6.552  0.0263 -0.3702  0.4262
  115OSM    H2F12025   5.279   1.978   6.519 -0.1588 -1.2082  2.2020
  115OSM    H2G12026   5.378   2.138   6.517 -0.4327  0.3483  2.3227
  115OSM    C3F12027   5.367   2.017   6.709 -0.4641  0.6048 -0.1841
  115OSM    H3F12028   5.464   2.058   6.744  0.6758 -1.3289 -0.9296
  115OSM    H3G12029   5.357   1.908   6.725  0.9746  0.2611 -1.4052
  115OSM    C4F12030   5.247   2.097   6.757 -0.0566  0.2516 -0.0274
  115OSM    H4F12031   5.157   2.049   6.715  0.6983  0.4658 -2.0320
  115OSM    H4G12032   5.264   2.201   6.719  3.0464  0.2303  0.9645
  115OSM    C5F12033   5.251   2.112   6.914  0.3363  1.3666 -0.0639
  115OSM    H5F12034   5.346   2.168   6.929  0.4284  1.5132 -1.0812
  115OSM    H5G12035   5.261   2.014   6.964 -3.1553  1.2246  0.5933
  115OSM    C6F12036   5.128   2.192   6.964  0.2575 -0.2465 -0.8130
  115OSM    H6F12037   5.127   2.290   6.913 -1.0369  0.4603  0.5168
  115OSM    H6G12038   5.136   2.201   7.074  0.4744  1.6508 -0.9670
  115OSM    C7F12039   4.997   2.127   6.931 -0.7761 -0.4531 -0.5202
  115OSM    H7F12040   4.989   2.147   6.822 -0.7033 -0.4038 -0.5167
  115OSM    H7G12041   4.919   2.182   6.988 -1.4183 -1.8393 -0.0373
  115OSM    C8F12042   4.990   1.977   6.969  0.1086 -0.8700  0.0447
  115OSM    H8F12043   5.056   1.918   6.902 -2.1098 -2.9825 -0.3993
  115OSM    H8G12044   4.889   1.946   6.937  0.4001 -0.7312 -1.0459
  115OSM    C9F12045   5.027   1.930   7.110 -0.0645  0.5357 -0.1296
  115OSM    H9F12046   5.131   1.894   7.112  0.5520  2.2111 -0.3724
  115OSM   C10F12047   4.956   1.934   7.225 -0.0975 -0.0885  0.0852
  115OSM   H10F12048   4.991   1.883   7.316  0.2277 -1.9156 -1.0130
  115OSM   C11F12049   4.816   1.979   7.242  0.2702 -0.7639  0.9340
  115OSM   H11F12050   4.762   1.887   7.273 -1.2777  0.4340  1.9821
  115OSM   H11G12051   4.773   2.016   7.147  2.7611  1.3251  0.5162
  115OSM   C12F12052   4.817   2.098   7.339  0.1400  0.6425 -0.3041
  115OSM   H12F12053   4.878   2.076   7.429 -1.1910 -0.9185  0.2880
  115OSM   H12G12054   4.713   2.126   7.368  0.3858  0.5243  0.7342
  115OSM   C13F12055   4.885   2.225   7.287 -0.4993  0.3467  0.1576
  115OSM   H13F12056   4.826   2.278   7.209  1.2001  1.1539 -0.6256
  115OSM   H13G12057   4.983   2.189   7.248  0.3118  0.9034  1.5997
  115OSM   C14F12058   4.934   2.320   7.404 -0.0437 -0.1123  0.3062
  115OSM   H14F12059   5.019   2.276   7.460  1.5223 -0.2972 -2.0868
  115OSM   H14G12060   4.850   2.342   7.473  1.5738  1.3263  1.9450
  115OSM   C15F12061   4.981   2.451   7.336 -1.1570 -0.6669  0.0598
  115OSM   H15F12062   4.969   2.542   7.400  4.2613 -0.5766  1.4580
  115OSM   H15G12063   4.935   2.474   7.237  0.3522 -1.1438 -0.7792
  115OSM   C16F12064   5.135   2.448   7.302  0.0259  0.1698 -0.4983
  115OSM   H16F12065   5.157   2.366   7.231 -1.0250 -1.3037  0.8170
  115OSM   H16G12066   5.190   2.445   7.399  0.1088 -2.3507 -0.5678
  115OSM   C17F12067   5.190   2.579   7.241 -0.4726  0.6004  0.4249
  115OSM   H17F12068   5.300   2.587   7.231 -0.5211 -0.0928 -0.9440
  115OSM   H17G12069   5.161   2.667   7.302 -1.3404  0.5235  0.1461
  115OSM   C18F12070   5.138   2.617   7.098  0.3649  0.8412 -0.0968
  115OSM   H18F12071   5.177   2.719   7.078  0.2744  0.6887 -1.0920
  115OSM   H18G12072   5.028   2.627   7.106  0.0488 -2.5354  1.5173
  115OSM   H18H12073   5.167   2.544   7.019  3.0543  0.5020  1.0690
  116OSM      N12074   5.113   6.211   6.287 -0.8377 -0.7712 -0.5350
  116OSM    C1512075   5.134   6.354   6.258 -0.4189 -0.0886  0.2225
  116OSM   H15A12076   5.149   6.407   6.351  1.6302 -0.6971  0.2919
  116OSM   H15B12077   5.047   6.398   6.213 -0.9597  0.6633  1.9178
  116OSM   H15C12078   5.219   6.368   6.193  1.0910 -0.3648  2.0300
  116OSM    C1412079   5.021   6.204   6.407 -0.0308  0.1909 -0.1911
  116OSM   H14A12080   4.988   6.102   6.416 -1.2860  0.2133 -3.2761
  116OSM   H14B12081   4.934   6.268   6.411 -1.1973 -1.4008  1.6845
  116OSM   H14C12082   5.082   6.229   6.493  1.4790 -0.2121 -1.1019
  116OSM    C1312083   5.062   6.138   6.170  0.0413 -0.3595 -0.4284
  116OSM   H13A12084   5.122   6.143   6.080 -0.9416  2.2769 -1.0178
  116OSM   H13B12085   4.968   6.181   6.140  0.7792  0.6193 -1.4130
  116OSM   H13C12086   5.054   6.036   6.206  1.4969 -0.4688 -0.3305
  116OSM    C1212087   5.249   6.158   6.330 -0.0472 -0.0974 -0.8187
  116OSM   H12A12088   5.222   6.072   6.390  0.3523  1.1902  1.3106
  116OSM   H12B12089   5.293   6.226   6.401  0.6149 -0.6729 -0.6622
  116OSM    C1112090   5.354   6.132   6.220  1.1505 -0.3831 -0.5198
  116OSM   H11A12091   5.301   6.074   6.141 -0.3041  2.5983 -1.9299
  116OSM   H11B12092   5.440   6.075   6.260  1.1930  1.1506  1.7427
  116OSM      P12093   5.503   6.342   6.230  0.3514  0.1056 -0.2940
  116OSM    O1312094   5.631   6.324   6.164 -0.4482  0.1562 -0.1567
  116OSM    O1412095   5.453   6.483   6.237 -0.0807  0.5805  0.1747
  116OSM    O1112096   5.510   6.290   6.380  0.1350 -0.2277 -0.5788
  116OSM    O1212097   5.396   6.253   6.158 -0.1513 -0.1081  0.0018
  116OSM    C1S12098   5.526   6.382   6.487  0.2293 -0.3736  0.0697
  116OSM    H1S12099   5.428   6.433   6.489 -0.0911 -0.8935 -1.2386
  116OSM    H1T12100   5.602   6.461   6.466 -1.1410  1.6042  2.1557
  116OSM     NF12101   5.579   6.439   6.726 -0.4153  0.4001  0.4587
  116OSM    HNF12102   5.669   6.482   6.733 -0.8910  1.2625  1.5947
  116OSM    C2S12103   5.572   6.325   6.625  0.8750  0.3613 -0.1807
  116OSM    H2S12104   5.502   6.243   6.652 -1.1371  0.6653 -3.7896
  116OSM    C3S12105   5.716   6.264   6.603 -0.0595 -0.3887  0.6620
  116OSM    H3S12106   5.795   6.341   6.592  1.2272 -1.8196 -0.5290
  116OSM     O312107   5.724   6.165   6.501 -0.3378 -0.0161 -0.3550
  116OSM    HO312108   5.644   6.188   6.453  0.8772 -0.7808 -2.9149
  116OSM    C4S12109   5.748   6.189   6.730 -0.0519  0.4519  0.6539
  116OSM    H4S12110   5.656   6.143   6.768  0.9271 -1.7517  0.5344
  116OSM    C5S12111   5.864   6.170   6.790  0.4116 -0.1234  0.1115
  116OSM    H5S12112   5.959   6.211   6.752  0.7810 -0.6854  0.4093
  116OSM    C6S12113   5.866   6.087   6.908  0.2887  0.2626 -0.7459
  116OSM    H6S12114   5.958   6.025   6.916  0.9800  1.4018  0.3954
  116OSM    H6T12115   5.782   6.014   6.907 -0.5733  1.2487 -1.6015
  116OSM    C7S12116   5.860   6.167   7.043 -0.3831  0.3784 -0.2547
  116OSM    H7S12117   5.770   6.232   7.040 -0.6650  0.1216  1.6914
  116OSM    H7T12118   5.953   6.228   7.049 -0.2050 -0.0391  1.5753
  116OSM    C8S12119   5.862   6.087   7.180  0.7462 -0.7459 -0.5912
  116OSM    H8S12120   5.946   6.017   7.166  1.5228 -0.1520  0.8792
  116OSM    H8T12121   5.768   6.036   7.209  1.3034 -0.1123  2.7763
  116OSM    C9S12122   5.890   6.183   7.299  0.6214  0.0200  0.3010
  116OSM    H9S12123   5.802   6.248   7.318  1.2679  1.5299 -1.5606
  116OSM    H9T12124   5.973   6.254   7.278 -0.3556  2.1911  3.2299
  116OSM   C10S12125   5.890   6.115   7.437  0.1304 -0.1628  0.8150
  116OSM   H10S12126   5.962   6.031   7.438 -0.2075 -0.5867 -2.0470
  116OSM   H10T12127   5.791   6.066   7.447  0.4220 -0.8758  0.2753
  116OSM   C11S12128   5.912   6.212   7.555 -0.7900  0.5671  0.0413
  116OSM   H11S12129   5.849   6.303   7.550  2.9824  3.3397 -1.5460
  116OSM   H11T12130   6.011   6.261   7.544 -1.1729  1.2848 -0.3367
  116OSM   C12S12131   5.893   6.158   7.695  0.0552 -0.3973 -0.8303
  116OSM   H12S12132   5.955   6.068   7.712 -0.2607  0.0327  3.7357
  116OSM   H12T12133   5.785   6.133   7.711  0.6686 -1.2262  2.8511
  116OSM   C13S12134   5.921   6.270   7.803  0.0050  0.2181  0.3030
  116OSM   H13S12135   5.853   6.356   7.786  0.5678  0.8370  1.1294
  116OSM   H13T12136   6.028   6.299   7.803  0.5347 -1.5764  0.3091
  116OSM   C14S12137   5.900   6.213   7.941 -0.7349  0.0764  0.3326
  116OSM   H14S12138   5.980   6.140   7.967 -0.7750 -0.1093 -0.0622
  116OSM   H14T12139   5.804   6.157   7.942 -0.9148  0.3680 -0.2929
  116OSM   C15S12140   5.889   6.322   8.054  0.5119 -0.6283 -0.1681
  116OSM   H15S12141   5.815   6.271   8.120  0.7714 -0.1561  0.4945
  116OSM   H15T12142   5.848   6.414   8.008  0.9879  0.0292  0.6909
  116OSM   C16S12143   6.025   6.360   8.119 -0.1347 -0.5710 -0.3741
  116OSM   H16S12144   6.077   6.446   8.071 -1.3361 -0.0879 -0.8484
  116OSM   H16T12145   6.103   6.281   8.116  0.7777  0.3183 -0.5637
  116OSM   C17S12146   5.992   6.401   8.262 -0.0751  0.3444 -0.2802
  116OSM   H17S12147   5.980   6.319   8.336 -0.6585 -0.9617 -1.7643
  116OSM   H17T12148   5.892   6.451   8.259 -0.0827  0.3204 -0.4353
  116OSM   C18S12149   6.097   6.500   8.326  0.0949  0.3558 -0.0952
  116OSM   H18S12150   6.059   6.556   8.414 -1.4920 -0.0071 -0.5079
  116OSM   H18T12151   6.119   6.583   8.255 -1.7050  1.6110  0.7653
  116OSM   H18U12152   6.189   6.443   8.353 -0.3603  0.3624  1.5439
  116OSM    C1F12153   5.477   6.477   6.793  0.2276 -0.2429 -0.5941
  116OSM     OF12154   5.363   6.453   6.748  0.1751  0.6529  0.0632
  116OSM    C2F12155   5.492   6.556   6.917 -0.0765 -0.8711  0.4322
  116OSM    H2F12156   5.389   6.588   6.941 -0.4404  0.0263 -2.0501
  116OSM    H2G12157   5.560   6.643   6.901  2.0434 -1.6256  4.0222
  116OSM    C3F12158   5.568   6.469   7.026 -0.0011 -0.6952  0.5393
  116OSM    H3F12159   5.668   6.444   6.984  1.1600  0.4070  2.5085
  116OSM    H3G12160   5.518   6.375   7.061 -2.8233  0.7547  0.6929
  116OSM    C4F12161   5.582   6.541   7.162  0.6289 -0.2402 -0.0453
  116OSM    H4F12162   5.641   6.634   7.157  0.9919 -0.5396 -1.9917
  116OSM    H4G12163   5.635   6.458   7.213 -0.8303 -0.4570  1.2169
  116OSM    C5F12164   5.444   6.556   7.237 -0.5765 -0.1258  0.2994
  116OSM    H5F12165   5.385   6.463   7.250 -0.7510  0.2614  2.7637
  116OSM    H5G12166   5.384   6.619   7.168  1.9984 -0.6818 -2.6789
  116OSM    C6F12167   5.466   6.628   7.372  0.0846  0.4371  0.4323
  116OSM    H6F12168   5.464   6.736   7.347  1.2209  0.6301  1.1562
  116OSM    H6G12169   5.569   6.612   7.409 -0.1091  0.7837  1.1228
  116OSM    C7F12170   5.347   6.594   7.471  0.6097 -0.3755  0.4014
  116OSM    H7F12171   5.341   6.483   7.472 -1.1105 -0.3030  0.1277
  116OSM    H7G12172   5.247   6.627   7.438  1.3289  1.2609 -0.2317
  116OSM    C8F12173   5.371   6.642   7.618  0.1183  0.2013  0.0690
  116OSM    H8F12174   5.293   6.613   7.690  1.4115  1.2350  1.9796
  116OSM    H8G12175   5.373   6.753   7.625 -1.2792  0.2469  0.0231
  116OSM    C9F12176   5.495   6.581   7.674 -0.7648  0.6285 -0.3944
  116OSM    H9F12177   5.529   6.491   7.621  2.2534  0.6800  1.2110
  116OSM   C10F12178   5.579   6.612   7.773  0.2683 -0.5380  0.5934
  116OSM   H10F12179   5.671   6.553   7.783  0.4245 -0.5721 -0.7634
  116OSM   C11F12180   5.557   6.734   7.861 -0.1396  1.1729 -1.3879
  116OSM   H11F12181   5.459   6.783   7.845 -1.5069 -0.9343 -0.0001
  116OSM   H11G12182   5.639   6.806   7.841  0.8993 -0.0096 -1.5080
  116OSM   C12F12183   5.557   6.686   8.014 -0.4008  0.0521 -0.5993
  116OSM   H12F12184   5.588   6.770   8.079  0.5140 -0.7398  0.0277
  116OSM   H12G12185   5.652   6.631   8.031  0.3391  0.8167 -2.0943
  116OSM   C13F12186   5.433   6.615   8.070  0.0410  0.1123  0.0757
  116OSM   H13F12187   5.407   6.536   7.997  0.5679 -1.2389  1.3081
  116OSM   H13G12188   5.364   6.702   8.076  0.7188  0.7341 -0.8146
  116OSM   C14F12189   5.458   6.554   8.212 -0.4403  0.3919 -0.1812
  116OSM   H14F12190   5.535   6.476   8.192 -1.3901 -0.2464 -1.4877
  116OSM   H14G12191   5.362   6.510   8.248 -0.0704 -1.9919 -1.8093
  116OSM   C15F12192   5.518   6.644   8.321 -0.2030 -0.7948  0.0488
  116OSM   H15F12193   5.448   6.731   8.322  0.1805 -0.4587 -1.1449
  116OSM   H15G12194   5.621   6.680   8.300 -0.6468  0.6821  0.2888
  116OSM   C16F12195   5.512   6.577   8.460  0.1637  0.2711  0.3437
  116OSM   H16F12196   5.413   6.527   8.467 -0.2121  0.1928 -3.3557
  116OSM   H16G12197   5.506   6.665   8.527 -4.0884  0.2120  0.3000
  116OSM   C17F12198   5.621   6.474   8.495 -0.1980 -0.4577  0.1892
  116OSM   H17F12199   5.645   6.405   8.411 -0.9791  1.2904 -1.5635
  116OSM   H17G12200   5.588   6.404   8.575  0.6693 -0.9522  0.1286
  116OSM   C18F12201   5.756   6.540   8.553 -0.6348  0.0871  0.1005
  116OSM   H18F12202   5.821   6.574   8.470 -0.7239 -0.0714 -0.0354
  116OSM   H18G12203   5.827   6.479   8.612  1.1865  0.2655 -1.8100
  116OSM   H18H12204   5.728   6.631   8.611 -1.4120 -0.2887  0.3262
  117OSM      N12205   2.562   3.332   6.148 -0.1206  0.1240 -0.5988
  117OSM    C1512206   2.513   3.261   6.268  0.0315 -0.2488 -0.0214
  117OSM   H15A12207   2.466   3.334   6.332 -0.3579 -0.5026 -0.0182
  117OSM   H15B12208   2.595   3.209   6.316 -0.2789 -2.3643 -1.6595
  117OSM   H15C12209   2.440   3.183   6.251  1.7011 -1.7313 -0.6831
  117OSM    C1412210   2.445   3.405   6.077 -0.1917  0.0856 -0.7212
  117OSM   H14A12211   2.482   3.464   5.994 -0.4107 -0.5666 -1.2936
  117OSM   H14B12212   2.400   3.463   6.156 -0.2754 -1.5942  0.5233
  117OSM   H14C12213   2.369   3.334   6.049 -0.8850 -0.2436  1.7691
  117OSM    C1312214   2.645   3.452   6.186  0.3473  0.3020 -0.5849
  117OSM   H13A12215   2.589   3.536   6.224  1.5155 -0.1561  2.3787
  117OSM   H13B12216   2.689   3.483   6.092  1.9991 -0.6359 -0.1580
  117OSM   H13C12217   2.728   3.430   6.252  1.7351  3.6471 -1.0304
  117OSM    C1212218   2.626   3.233   6.049  0.6875 -0.1735 -0.5890
  117OSM   H12A12219   2.671   3.294   5.972  1.7135  1.6245  1.3435
  117OSM   H12B12220   2.547   3.178   6.000 -0.0813 -0.3544  0.8041
  117OSM    C1112221   2.733   3.134   6.101 -0.6760 -0.3866 -0.1695
  117OSM   H11A12222   2.821   3.187   6.144  0.2478 -0.1335 -2.2330
  117OSM   H11B12223   2.755   3.084   6.005  0.6582  1.5604 -0.9534
  117OSM      P12224   2.574   2.934   6.157  0.0564  0.1481 -0.1602
  117OSM    O1312225   2.485   2.929   6.272 -0.3227  0.1330  0.0512
  117OSM    O1412226   2.513   2.967   6.023 -0.2102  0.2794 -0.1060
  117OSM    O1112227   2.641   2.787   6.160 -0.2484  0.0551  0.3282
  117OSM    O1212228   2.681   3.044   6.200 -0.2704 -0.6094  0.0740
  117OSM    C1S12229   2.731   2.750   6.267 -0.2550  0.8096 -0.4071
  117OSM    H1S12230   2.807   2.827   6.292  2.0621 -1.7014  0.7117
  117OSM    H1T12231   2.797   2.665   6.238 -0.4419 -1.1950  4.2671
  117OSM     NF12232   2.734   2.671   6.506  0.4743  0.1831  0.0479
  117OSM    HNF12233   2.774   2.581   6.523  1.0258  0.1618 -1.2557
  117OSM    C2S12234   2.645   2.687   6.391 -0.4630 -0.4734  1.1061
  117OSM    H2S12235   2.555   2.749   6.412  0.6870  0.5746  3.2270
  117OSM    C3S12236   2.585   2.550   6.344 -0.6075 -0.5361  0.2923
  117OSM    H3S12237   2.669   2.482   6.318  0.8828  0.7128  1.6119
  117OSM     O312238   2.514   2.558   6.222 -0.1653  0.2129  0.0424
  117OSM    HO312239   2.545   2.642   6.188 -1.1332  0.2977 -0.6594
  117OSM    C4S12240   2.513   2.488   6.459  0.7837 -0.7560 -0.2246
  117OSM    H4S12241   2.560   2.393   6.489 -0.7867 -1.9198 -1.3343
  117OSM    C5S12242   2.390   2.535   6.500 -0.0045 -0.1748 -0.4859
  117OSM    H5S12243   2.363   2.636   6.466  1.1271  0.1534 -0.4746
  117OSM    C6S12244   2.300   2.487   6.607 -0.1218 -0.0416  0.8041
  117OSM    H6S12245   2.223   2.423   6.560  0.2950 -1.2484  1.7045
  117OSM    H6T12246   2.251   2.571   6.661  0.1521  0.9276 -0.4122
  117OSM    C7S12247   2.368   2.407   6.718  0.2083  0.1927  0.4527
  117OSM    H7S12248   2.440   2.478   6.764 -0.9614  0.7346  1.4936
  117OSM    H7T12249   2.423   2.323   6.670 -0.7823 -0.8054  1.0261
  117OSM    C8S12250   2.268   2.359   6.818  0.0167  0.1849 -0.3193
  117OSM    H8S12251   2.184   2.316   6.760  1.9248 -1.8939 -1.6755
  117OSM    H8T12252   2.225   2.447   6.871 -1.3363 -2.1843  2.8195
  117OSM    C9S12253   2.308   2.252   6.916  0.1968 -0.5923 -0.3338
  117OSM    H9S12254   2.376   2.286   6.997  0.2289 -0.2302 -0.5150
  117OSM    H9T12255   2.363   2.174   6.858  1.2536  0.6167 -1.0039
  117OSM   C10S12256   2.190   2.171   6.977  0.1492  0.1017  0.2453
  117OSM   H10S12257   2.118   2.138   6.899  0.0292  4.6855 -1.9002
  117OSM   H10T12258   2.135   2.238   7.047  1.4423  0.1105  1.3011
  117OSM   C11S12259   2.241   2.055   7.066 -0.0609 -0.4747  0.4028
  117OSM   H11S12260   2.306   2.095   7.146 -1.0704 -0.1415  1.0781
  117OSM   H11T12261   2.303   1.993   6.997  1.9243  1.4834  0.3182
  117OSM   C12S12262   2.136   1.968   7.139  0.3035 -0.4544  0.3435
  117OSM   H12S12263   2.062   1.930   7.065  0.7759  0.8369 -0.8362
  117OSM   H12T12264   2.068   2.035   7.196 -1.1354  0.4602 -2.2795
  117OSM   C13S12265   2.188   1.853   7.234 -0.2006 -0.1322 -0.6050
  117OSM   H13S12266   2.264   1.792   7.181  1.1539  0.0993  0.9912
  117OSM   H13T12267   2.099   1.792   7.261 -0.8857 -0.0310 -2.5089
  117OSM   C14S12268   2.248   1.908   7.362 -1.1438 -0.1649 -0.4783
  117OSM   H14S12269   2.173   1.967   7.418 -0.3334 -0.0727  0.5499
  117OSM   H14T12270   2.337   1.974   7.354 -1.0708 -0.1220  0.4925
  117OSM   C15S12271   2.289   1.804   7.467 -0.2590 -0.5872  0.7827
  117OSM   H15S12272   2.216   1.720   7.461  1.9301 -2.5153 -0.3691
  117OSM   H15T12273   2.285   1.844   7.570  0.6322 -0.1446  0.6553
  117OSM   C16S12274   2.429   1.741   7.436 -0.7118 -0.2684  0.4604
  117OSM   H16S12275   2.506   1.820   7.426 -0.7656 -0.2744 -0.0500
  117OSM   H16T12276   2.418   1.679   7.345  1.9944 -1.5458  0.9032
  117OSM   C17S12277   2.481   1.640   7.536  0.5258 -0.3128 -0.1009
  117OSM   H17S12278   2.398   1.570   7.557  0.5009  0.1663  1.5354
  117OSM   H17T12279   2.494   1.700   7.629  0.0156  2.3750 -1.6703
  117OSM   C18S12280   2.602   1.567   7.487 -0.3388 -0.2771  0.6494
  117OSM   H18S12281   2.582   1.516   7.390  0.0143  1.1054 -0.1777
  117OSM   H18T12282   2.638   1.494   7.563  0.1184  0.4079  1.1044
  117OSM   H18U12283   2.684   1.637   7.463 -0.1249  0.5613  3.4195
  117OSM    C1F12284   2.774   2.780   6.570 -0.9267 -0.1302  0.4568
  117OSM     OF12285   2.745   2.887   6.532  0.2727 -1.1487 -0.2353
  117OSM    C2F12286   2.870   2.764   6.686  0.2163 -0.3953  0.0364
  117OSM    H2F12287   2.883   2.862   6.736 -0.8678 -0.4235  0.4070
  117OSM    H2G12288   2.967   2.741   6.636  0.0817 -1.8727  0.4135
  117OSM    C3F12289   2.836   2.657   6.781  0.9613  0.8674 -0.2499
  117OSM    H3F12290   2.815   2.561   6.730  0.1412  1.1831 -0.5257
  117OSM    H3G12291   2.740   2.685   6.829  0.1573 -0.1057 -1.2380
  117OSM    C4F12292   2.945   2.634   6.886 -0.4531 -0.4189  0.0173
  117OSM    H4F12293   2.962   2.725   6.947 -0.5025 -0.6265  0.3384
  117OSM    H4G12294   3.038   2.613   6.828  0.6184  0.7911  1.2251
  117OSM    C5F12295   2.918   2.511   6.977 -0.1677 -0.2965 -0.1236
  117OSM    H5F12296   3.017   2.461   6.988  0.4929  0.4645 -2.1125
  117OSM    H5G12297   2.852   2.428   6.946  2.0577 -2.7024  1.1091
  117OSM    C6F12298   2.871   2.551   7.121 -0.2749 -0.4453 -0.3808
  117OSM    H6F12299   2.779   2.613   7.111  0.2815  0.1556 -2.2561
  117OSM    H6G12300   2.950   2.616   7.165 -0.2880  0.2914 -1.4115
  117OSM    C7F12301   2.851   2.439   7.220  0.0307 -0.1305  0.5659
  117OSM    H7F12302   2.847   2.487   7.320  0.4335  0.7967  0.1400
  117OSM    H7G12303   2.936   2.368   7.221 -0.6554 -0.9640  1.8484
  117OSM    C8F12304   2.709   2.378   7.208  0.4386 -0.6131  0.0122
  117OSM    H8F12305   2.703   2.288   7.273  0.7542 -0.8087 -0.2235
  117OSM    H8G12306   2.712   2.333   7.107  2.4290 -1.1739  0.2692
  117OSM    C9F12307   2.592   2.470   7.224 -0.4755  0.0643  0.9228
  117OSM    H9F12308   2.591   2.554   7.154 -0.4826 -2.2405 -2.0222
  117OSM   C10F12309   2.486   2.458   7.308  0.1495 -0.2310  0.2041
  117OSM   H10F12310   2.424   2.548   7.323  0.5383 -0.1900  1.7139
  117OSM   C11F12311   2.458   2.347   7.404 -0.5316 -0.5398  0.2179
  117OSM   H11F12312   2.476   2.379   7.509 -0.2053 -0.3587  0.1092
  117OSM   H11G12313   2.524   2.261   7.381  0.8264  0.6005 -0.2918
  117OSM   C12F12314   2.310   2.301   7.395 -0.1540  0.1271 -0.5778
  117OSM   H12F12315   2.305   2.205   7.450 -0.7674  0.5069  0.0580
  117OSM   H12G12316   2.294   2.272   7.289 -1.3028  2.1880 -1.0268
  117OSM   C13F12317   2.214   2.409   7.439  0.4525  0.4284 -0.2772
  117OSM   H13F12318   2.223   2.498   7.374 -0.7441  0.5488 -0.3012
  117OSM   H13G12319   2.247   2.445   7.539  0.6324 -2.1249  0.6706
  117OSM   C14F12320   2.072   2.353   7.451  0.2638  0.2506 -0.1259
  117OSM   H14F12321   2.009   2.428   7.503 -0.0323  1.2190 -1.8139
  117OSM   H14G12322   2.075   2.264   7.517  0.8522  0.3909  0.0455
  117OSM   C15F12323   2.010   2.321   7.309 -0.7033 -0.0591  0.2037
  117OSM   H15F12324   2.076   2.252   7.252 -1.6724 -0.6192 -0.2659
  117OSM   H15G12325   2.005   2.422   7.263 -0.2048 -0.0724  0.1188
  117OSM   C16F12326   1.869   2.258   7.319  0.6162 -0.2867  0.5128
  117OSM   H16F12327   1.804   2.320   7.384  0.0203 -1.5630  1.1731
  117OSM   H16G12328   1.887   2.160   7.369  0.5062  0.2557  1.6441
  117OSM   C17F12329   1.793   2.244   7.185  0.1849 -0.5063  0.3803
  117OSM   H17F12330   1.779   2.345   7.140 -0.3648 -1.0927 -0.8090
  117OSM   H17G12331   1.850   2.190   7.106  0.8627  0.6912  0.0125
  117OSM   C18F12332   1.659   2.164   7.187 -0.5065 -0.2284 -0.9375
  117OSM   H18F12333   1.651   2.100   7.278  0.3758 -0.2190 -0.8422
  117OSM   H18G12334   1.661   2.085   7.110 -1.5858 -1.8732  0.6357
  117OSM   H18H12335   1.572   2.232   7.189 -0.4161 -0.0796  1.3460
  118OSM      N12336   5.243   3.093   5.849  0.9323 -0.3252 -0.5034
  118OSM    C1512337   5.200   2.957   5.898 -0.0649  1.0186  0.4954
  118OSM   H15A12338   5.192   2.883   5.820  1.6150  0.1064  1.1334
  118OSM   H15B12339   5.104   2.962   5.947 -1.0538  1.1901 -1.3895
  118OSM   H15C12340   5.267   2.916   5.972  0.8044  2.7214  0.7160
  118OSM    C1412341   5.387   3.080   5.810  0.7195 -0.6657  0.5316
  118OSM   H14A12342   5.391   3.017   5.723  0.7642  0.7014 -0.4980
  118OSM   H14B12343   5.447   3.045   5.893  0.1781 -0.9224  0.8183
  118OSM   H14C12344   5.425   3.177   5.780  2.8249 -1.5008  0.3368
  118OSM    C1312345   5.163   3.119   5.723  0.3757  0.2332  0.2195
  118OSM   H13A12346   5.185   3.056   5.638 -3.0412 -1.5794  0.5273
  118OSM   H13B12347   5.192   3.217   5.687 -1.9045  0.2362 -1.8738
  118OSM   H13C12348   5.059   3.113   5.751  0.9410 -1.1822  2.1774
  118OSM    C1212349   5.222   3.196   5.959  0.6389 -0.5302 -0.2353
  118OSM   H12A12350   5.116   3.192   5.976  0.3980 -0.9801 -1.7303
  118OSM   H12B12351   5.247   3.294   5.921  1.2017  0.0260  1.4569
  118OSM    C1112352   5.295   3.174   6.100 -0.4299  0.8197  0.1953
  118OSM   H11A12353   5.259   3.079   6.145  0.5261  0.4235  0.1341
  118OSM   H11B12354   5.252   3.248   6.171 -1.7745  0.1711  0.0980
  118OSM      P12355   5.506   3.312   6.086 -0.1405 -0.1225  0.8248
  118OSM    O1312356   5.655   3.285   6.081 -0.1110  0.1712 -0.3205
  118OSM    O1412357   5.452   3.390   5.975 -0.5271  0.2992 -0.2363
  118OSM    O1112358   5.472   3.390   6.218  0.2203  0.1978  0.1528
  118OSM    O1212359   5.435   3.171   6.087 -0.2851 -0.6418  0.1537
  118OSM    C1S12360   5.551   3.371   6.334  0.5539  0.2245 -0.1637
  118OSM    H1S12361   5.647   3.424   6.316 -0.3242  1.8851 -0.1695
  118OSM    H1T12362   5.577   3.265   6.353  0.8044  0.7563  2.9162
  118OSM     NF12363   5.585   3.400   6.577 -0.2380 -0.3471 -0.1928
  118OSM    HNF12364   5.563   3.315   6.625 -1.2989 -0.3791 -0.6961
  118OSM    C2S12365   5.500   3.432   6.464  0.7124  0.1063  0.4700
  118OSM    H2S12366   5.500   3.543   6.462  0.5795  0.1095  0.6096
  118OSM    C3S12367   5.353   3.373   6.484  1.0309  0.3980 -0.1311
  118OSM    H3S12368   5.354   3.263   6.497  2.0683  0.4221  0.1311
  118OSM     O312369   5.260   3.393   6.379  0.7055 -0.5410  0.0474
  118OSM    HO312370   5.312   3.417   6.302 -0.3149  1.6182 -0.0330
  118OSM    C4S12371   5.280   3.449   6.601 -0.0810  0.4257 -0.0070
  118OSM    H4S12372   5.274   3.558   6.594  0.9435  0.8688  3.9391
  118OSM    C5S12373   5.216   3.395   6.708  0.5040 -0.4928  1.0488
  118OSM    H5S12374   5.232   3.286   6.717  0.4009 -0.4701  1.5149
  118OSM    C6S12375   5.134   3.457   6.825 -0.0500 -0.4647 -0.0754
  118OSM    H6S12376   5.164   3.419   6.924 -1.5635  1.2956  1.1309
  118OSM    H6T12377   5.027   3.425   6.823  0.8014 -3.8560  2.1252
  118OSM    C7S12378   5.122   3.614   6.827 -0.0770 -0.2983  0.4939
  118OSM    H7S12379   5.085   3.632   6.724 -1.9502 -2.6075  0.6863
  118OSM    H7T12380   5.220   3.667   6.838  0.0490 -0.0035 -1.6773
  118OSM    C8S12381   5.005   3.674   6.916  0.3816 -0.6972 -0.0625
  118OSM    H8S12382   4.917   3.610   6.894 -0.1089 -0.6668  1.6284
  118OSM    H8T12383   4.991   3.779   6.882  1.9489 -1.1604 -2.4083
  118OSM    C9S12384   5.047   3.660   7.060 -0.0024 -0.1720  0.0530
  118OSM    H9S12385   5.144   3.714   7.068 -0.5227  0.9658 -1.0021
  118OSM    H9T12386   5.084   3.558   7.083 -1.5708 -0.8490 -0.2905
  118OSM   C10S12387   4.954   3.706   7.169 -0.4325  0.3818  0.4856
  118OSM   H10S12388   4.864   3.640   7.164 -0.4815  0.4663  0.2564
  118OSM   H10T12389   4.906   3.804   7.151 -0.9175  0.1244  0.3454
  118OSM   C11S12390   5.007   3.702   7.315  0.0745  0.0490  0.6323
  118OSM   H11S12391   5.098   3.765   7.324  0.5476 -0.5294 -0.0046
  118OSM   H11T12392   5.037   3.596   7.330 -1.7958 -0.2297  2.9898
  118OSM   C12S12393   4.920   3.738   7.433 -0.2495  0.0468  0.6451
  118OSM   H12S12394   4.832   3.670   7.439  0.1953 -1.2000 -3.6898
  118OSM   H12T12395   4.883   3.840   7.406  0.4849  0.3546  0.7708
  118OSM   C13S12396   4.994   3.732   7.572 -0.7292 -0.0947 -0.6228
  118OSM   H13S12397   5.068   3.815   7.564  0.9572 -1.4746  0.0598
  118OSM   H13T12398   5.038   3.631   7.574 -0.3915  0.0458  1.9156
  118OSM   C14S12399   4.902   3.757   7.694  0.2682  0.4858  0.2220
  118OSM   H14S12400   4.826   3.677   7.695  0.1695  0.5449 -0.9022
  118OSM   H14T12401   4.865   3.859   7.668  3.1477  1.9713  1.4414
  118OSM   C15S12402   4.993   3.765   7.821  0.3265 -0.6489 -0.1812
  118OSM   H15S12403   5.073   3.837   7.792 -0.8571 -0.4144 -3.2271
  118OSM   H15T12404   5.039   3.667   7.845  2.0008  0.5141  1.5911
  118OSM   C16S12405   4.905   3.831   7.926  0.3017 -0.1401 -0.6932
  118OSM   H16S12406   4.820   3.763   7.950  0.4940  0.2747  1.3766
  118OSM   H16T12407   4.870   3.926   7.882 -1.5199  0.2254  1.3619
  118OSM   C17S12408   4.983   3.870   8.052  0.1479  0.1570 -0.1466
  118OSM   H17S12409   5.059   3.937   8.005 -0.2797  0.0011 -1.0797
  118OSM   H17T12410   5.033   3.788   8.108 -1.0722 -1.1110 -0.8643
  118OSM   C18S12411   4.895   3.948   8.147  0.1023 -0.2586 -0.1602
  118OSM   H18S12412   4.842   4.033   8.100  0.2370  0.0264  0.2017
  118OSM   H18T12413   4.944   3.986   8.239  0.7074  0.5426 -0.7973
  118OSM   H18U12414   4.809   3.884   8.176  0.0327 -0.2927 -0.4432
  118OSM    C1F12415   5.711   3.452   6.585 -0.7680 -0.1769 -0.3607
  118OSM     OF12416   5.753   3.532   6.503  0.0746 -0.3770  0.4055
  118OSM    C2F12417   5.798   3.411   6.695 -0.5348 -0.1967  0.1024
  118OSM    H2F12418   5.889   3.475   6.697 -0.4528 -0.2693 -0.9416
  118OSM    H2G12419   5.849   3.316   6.666 -0.3987  0.0856 -0.5994
  118OSM    C3F12420   5.722   3.391   6.827 -0.4053  0.1026 -0.0483
  118OSM    H3F12421   5.651   3.306   6.827 -0.1013 -0.1533  0.3427
  118OSM    H3G12422   5.664   3.480   6.858 -0.0671  0.8356 -1.4363
  118OSM    C4F12423   5.830   3.352   6.935 -1.2944  0.4057  0.0339
  118OSM    H4F12424   5.894   3.442   6.924 -0.6872 -0.1314 -0.9815
  118OSM    H4G12425   5.896   3.263   6.920  1.9260  2.2229  2.1280
  118OSM    C5F12426   5.773   3.322   7.081  0.6603  1.0865 -0.6102
  118OSM    H5F12427   5.755   3.214   7.094  3.5895  0.6906  0.7310
  118OSM    H5G12428   5.673   3.370   7.095 -1.0989 -2.2924 -0.5558
  118OSM    C6F12429   5.859   3.367   7.200  0.1080  0.1217  0.2707
  118OSM    H6F12430   5.870   3.477   7.196 -0.8086  0.2583  1.0969
  118OSM    H6G12431   5.962   3.325   7.193 -0.4889 -1.0458 -4.4125
  118OSM    C7F12432   5.798   3.330   7.338 -0.4186 -0.1588  0.1140
  118OSM    H7F12433   5.747   3.232   7.342 -0.0146 -0.3463  0.9343
  118OSM    H7G12434   5.716   3.400   7.367 -0.2387  0.3851 -0.6582
  118OSM    C8F12435   5.901   3.325   7.447  0.4084  0.2682 -0.2672
  118OSM    H8F12436   5.944   3.427   7.445  0.2889  0.3168 -0.3677
  118OSM    H8G12437   5.967   3.245   7.408 -0.8724 -1.4760  0.9487
  118OSM    C9F12438   5.852   3.285   7.583  0.3591 -0.1173 -0.2740
  118OSM    H9F12439   5.792   3.193   7.586 -0.5959  0.3152 -3.0501
  118OSM   C10F12440   5.846   3.371   7.689 -0.0781  0.0686  0.1040
  118OSM   H10F12441   5.810   3.335   7.786 -1.1279 -1.6437 -0.8728
  118OSM   C11F12442   5.895   3.510   7.679  0.7962  0.6729  0.3552
  118OSM   H11F12443   5.828   3.570   7.614 -0.0056 -0.6322 -0.0622
  118OSM   H11G12444   6.000   3.512   7.643  1.1061  0.8885  1.2462
  118OSM   C12F12445   5.892   3.572   7.812 -0.0327 -0.2069 -0.4744
  118OSM   H12F12446   5.937   3.673   7.802  0.3243 -0.4290 -1.1898
  118OSM   H12G12447   5.950   3.518   7.890 -0.2729  0.6315  0.3008
  118OSM   C13F12448   5.749   3.590   7.856 -0.0963 -0.0388  0.1859
  118OSM   H13F12449   5.693   3.494   7.857 -0.6690  0.2897  0.5370
  118OSM   H13G12450   5.688   3.660   7.795 -4.6667 -1.9188  2.1634
  118OSM   C14F12451   5.744   3.650   7.999  0.2800 -0.0850  0.2128
  118OSM   H14F12452   5.766   3.759   7.991 -1.3167  0.2066 -0.5547
  118OSM   H14G12453   5.818   3.599   8.064  1.4152  0.5756 -0.5203
  118OSM   C15F12454   5.604   3.644   8.058  0.4014 -0.0422 -0.1068
  118OSM   H15F12455   5.598   3.677   8.164  1.7948 -3.9433  1.3742
  118OSM   H15G12456   5.584   3.535   8.068  1.1774 -0.0961  1.2108
  118OSM   C16F12457   5.488   3.695   7.981 -0.0842 -0.0551 -0.2930
  118OSM   H16F12458   5.397   3.656   8.031  0.0445  1.4785  1.2280
  118OSM   H16G12459   5.496   3.644   7.882 -1.1850  0.3066 -0.5864
  118OSM   C17F12460   5.484   3.847   7.967  0.3996 -0.2294  0.1945
  118OSM   H17F12461   5.571   3.883   7.908  1.3776 -0.2790  1.5385
  118OSM   H17G12462   5.477   3.892   8.069 -0.8002 -0.3455  0.1741
  118OSM   C18F12463   5.345   3.885   7.903 -0.3833  0.1202  0.1720
  118OSM   H18F12464   5.323   3.832   7.808 -2.1699 -0.8138  1.0553
  118OSM   H18G12465   5.351   3.994   7.878 -0.7072  0.6847  2.3697
  118OSM   H18H12466   5.262   3.870   7.975  0.1334 -0.2839  0.6865
  119OSM      N12467   0.610   2.226   5.825 -0.5240  0.4963  0.1418
  119OSM    C1512468   0.534   2.324   5.755 -0.2284 -0.5129  0.2424
  119OSM   H15A12469   0.493   2.402   5.817 -2.0747  0.9031 -2.5986
  119OSM   H15B12470   0.447   2.279   5.710 -1.1432 -0.0788  1.5005
  119OSM   H15C12471   0.590   2.375   5.678 -0.1624  1.5478  1.5602
  119OSM    C1412472   0.679   2.138   5.720  0.4135 -0.0525 -0.4331
  119OSM   H14A12473   0.613   2.066   5.674  0.9465 -0.7059 -0.1912
  119OSM   H14B12474   0.769   2.087   5.753  1.2309 -0.7363 -3.4013
  119OSM   H14C12475   0.709   2.201   5.637 -0.8363  2.5990  1.0045
  119OSM    C1312476   0.714   2.309   5.892  0.0362  0.5810  0.3533
  119OSM   H13A12477   0.789   2.245   5.936  0.4800 -0.1638 -1.4110
  119OSM   H13B12478   0.667   2.375   5.964 -1.8309 -1.1603  0.8501
  119OSM   H13C12479   0.762   2.376   5.822 -0.0042 -1.3853 -1.6453
  119OSM    C1212480   0.515   2.154   5.919 -0.2036  0.0031 -0.0647
  119OSM   H12A12481   0.466   2.233   5.974 -0.6287  0.0655 -0.5334
  119OSM   H12B12482   0.563   2.086   5.988 -1.5911 -0.2795  0.6606
  119OSM    C1112483   0.412   2.066   5.847 -0.0698  0.0714 -0.1507
  119OSM   H11A12484   0.372   2.131   5.767  0.3161  0.0417 -0.3732
  119OSM   H11B12485   0.325   2.045   5.912 -0.8316 -0.0627 -1.1885
  119OSM      P12486   0.414   1.817   5.785 -0.1384 -0.0443  0.0201
  119OSM    O1312487   0.309   1.817   5.677 -0.5158  0.2288  0.3156
  119OSM    O1412488   0.519   1.718   5.771 -1.1281 -0.2229 -0.0512
  119OSM    O1112489   0.343   1.803   5.921 -0.3788 -0.2413 -0.4147
  119OSM    O1212490   0.482   1.955   5.796 -0.0998 -0.3112 -0.7630
  119OSM    C1S12491   0.410   1.823   6.054 -0.1803  0.0274 -0.3190
  119OSM    H1S12492   0.476   1.912   6.045  0.7173 -0.6241 -0.2522
  119OSM    H1T12493   0.468   1.730   6.071 -3.4096 -1.7086  2.4772
  119OSM     NF12494   0.397   1.845   6.301  0.6196  0.0863  0.0605
  119OSM    HNF12495   0.398   1.768   6.365 -0.5330 -1.4492 -1.6532
  119OSM    C2S12496   0.310   1.828   6.182 -0.2041 -0.5471  0.1085
  119OSM    H2S12497   0.241   1.914   6.166 -0.8390 -0.9056  0.8663
  119OSM    C3S12498   0.225   1.696   6.169  0.4753 -0.1883 -1.0775
  119OSM    H3S12499   0.295   1.610   6.163 -0.4654 -1.1693  1.1012
  119OSM     O312500   0.142   1.686   6.053  0.3957 -0.3415 -0.2382
  119OSM    HO312501   0.171   1.756   5.994 -0.6255  1.1843  0.9775
  119OSM    C4S12502   0.148   1.674   6.300  0.3549  0.7276  0.2162
  119OSM    H4S12503   0.202   1.608   6.370  1.6490  0.3085 -1.1152
  119OSM    C5S12504   0.029   1.739   6.335  0.5131  0.8884 -0.3303
  119OSM    H5S12505  -0.014   1.817   6.270  1.7850 -0.7487 -3.3237
  119OSM    C6S12506  -0.027   1.725   6.476 -0.3132 -0.3858  0.8163
  119OSM    H6S12507   0.032   1.666   6.548  0.9450 -3.6315 -2.5886
  119OSM    H6T12508  -0.128   1.678   6.466 -1.0070  0.9107  1.4088
  119OSM    C7S12509  -0.056   1.861   6.540  0.0144 -0.1645  0.1912
  119OSM    H7S12510  -0.105   1.946   6.488 -1.0368  0.3847  1.9805
  119OSM    H7T12511   0.041   1.887   6.589  1.0633 -0.8304 -1.4717
  119OSM    C8S12512  -0.154   1.833   6.667 -0.1129  0.2592  0.1395
  119OSM    H8S12513  -0.121   1.748   6.729 -1.9358 -0.9692 -0.4831
  119OSM    H8T12514  -0.255   1.810   6.626 -0.4359 -0.8911  1.5407
  119OSM    C9S12515  -0.166   1.966   6.745  0.7180  0.9501 -0.2027
  119OSM    H9S12516  -0.211   2.046   6.683  0.6653  1.3490  0.3403
  119OSM    H9T12517  -0.067   2.009   6.771  0.6853  0.1315  1.4614
  119OSM   C10S12518  -0.240   1.949   6.881  0.0626 -0.4962 -0.5004
  119OSM   H10S12519  -0.182   1.874   6.938  1.6901  1.8468  1.1045
  119OSM   H10T12520  -0.343   1.911   6.864  0.0897 -1.1567  0.7129
  119OSM   C11S12521  -0.248   2.088   6.961 -0.0602  1.0352 -0.2391
  119OSM   H11S12522  -0.332   2.143   6.914 -0.9433  1.7412  2.0186
  119OSM   H11T12523  -0.160   2.142   6.922 -0.4443  1.9980  0.2084
  119OSM   C12S12524  -0.267   2.083   7.107  0.1891 -0.3131 -1.4381
  119OSM   H12S12525  -0.340   2.008   7.143 -0.0984  0.4999 -0.2776
  119OSM   H12T12526  -0.296   2.188   7.129  1.9021  0.6167 -3.2841
  119OSM   C13S12527  -0.136   2.063   7.196  0.9092  0.1479  0.8361
  119OSM   H13S12528  -0.047   2.097   7.138 -0.0081  0.2770 -0.5382
  119OSM   H13T12529  -0.124   1.953   7.205  0.3761  0.0376  0.2222
  119OSM   C14S12530  -0.142   2.133   7.338  0.0481  0.2265  0.6323
  119OSM   H14S12531  -0.147   2.242   7.323 -0.4227 -0.0384 -1.4321
  119OSM   H14T12532  -0.042   2.113   7.383  0.3580  0.4722  0.0566
  119OSM   C15S12533  -0.250   2.086   7.437 -0.1714  0.2009 -0.2864
  119OSM   H15S12534  -0.243   1.975   7.438 -1.9600  0.0687 -0.0546
  119OSM   H15T12535  -0.349   2.105   7.392 -0.4522  0.4605  0.4233
  119OSM   C16S12536  -0.237   2.149   7.578 -0.2614  0.4603 -0.6937
  119OSM   H16S12537  -0.339   2.146   7.623 -0.0225  4.9808  0.6666
  119OSM   H16T12538  -0.201   2.254   7.581  2.0385 -0.2773 -0.4853
  119OSM   C17S12539  -0.143   2.061   7.667  0.2341  0.1184  0.1544
  119OSM   H17S12540  -0.035   2.067   7.640  0.8649  0.9251  2.5908
  119OSM   H17T12541  -0.172   1.954   7.664 -0.0260  0.1963 -0.1393
  119OSM   C18S12542  -0.151   2.108   7.814  0.5250  0.4116 -0.1371
  119OSM   H18S12543  -0.153   2.220   7.815  0.1942  0.4073 -0.3933
  119OSM   H18T12544  -0.057   2.079   7.866 -0.0762 -1.8929 -0.2520
  119OSM   H18U12545  -0.247   2.074   7.859  0.2336 -0.4828 -1.3892
  119OSM    C1F12546   0.458   1.956   6.331  0.0424  0.4707  0.5859
  119OSM     OF12547   0.471   2.048   6.247 -1.2663 -0.0825  0.6086
  119OSM    C2F12548   0.525   1.964   6.462 -0.0389  0.5902  0.1751
  119OSM    H2F12549   0.626   2.007   6.448  0.6936 -0.4336  1.9206
  119OSM    H2G12550   0.535   1.864   6.510 -2.2850  0.2264 -0.0011
  119OSM    C3F12551   0.441   2.038   6.558  0.2026 -0.7054 -0.4858
  119OSM    H3F12552   0.341   1.992   6.569  0.2485 -1.2198 -1.9898
  119OSM    H3G12553   0.427   2.145   6.533  0.3713 -0.8863 -1.3675
  119OSM    C4F12554   0.505   2.038   6.697  0.0457 -0.0558 -0.1529
  119OSM    H4F12555   0.534   1.940   6.739  1.1214  1.0353  1.8402
  119OSM    H4G12556   0.441   2.090   6.772  1.3458  1.3176  0.0640
  119OSM    C5F12557   0.641   2.119   6.704  0.2436  0.2416  0.4273
  119OSM    H5F12558   0.622   2.225   6.677  2.5182 -0.0170 -2.7524
  119OSM    H5G12559   0.703   2.070   6.627  2.0192  1.8489  0.7617
  119OSM    C6F12560   0.720   2.109   6.837  0.1139 -0.2283 -0.6531
  119OSM    H6F12561   0.730   2.003   6.867 -0.8289 -1.2724 -3.6132
  119OSM    H6G12562   0.665   2.171   6.910  2.0505 -0.1732  0.8224
  119OSM    C7F12563   0.864   2.166   6.829  0.3105  0.0591  0.1553
  119OSM    H7F12564   0.868   2.274   6.805 -0.8611 -0.0190 -0.4645
  119OSM    H7G12565   0.900   2.126   6.732  1.6059  0.4759  0.4418
  119OSM    C8F12566   0.956   2.128   6.947 -0.1003  0.3749  0.3931
  119OSM    H8F12567   1.062   2.156   6.929  0.5440 -1.8620  0.5088
  119OSM    H8G12568   0.945   2.018   6.959 -2.1689  0.6079  0.9571
  119OSM    C9F12569   0.912   2.202   7.069 -0.2803  0.3289 -0.6916
  119OSM    H9F12570   0.881   2.307   7.056 -0.9200  0.1983 -0.2585
  119OSM   C10F12571   0.891   2.137   7.187 -0.6779  0.1950 -0.6438
  119OSM   H10F12572   0.850   2.200   7.267  2.4023  2.6496 -0.7847
  119OSM   C11F12573   0.925   1.995   7.221 -0.4924 -0.3107 -0.0479
  119OSM   H11F12574   0.988   1.947   7.143  1.4476  1.7451  0.1520
  119OSM   H11G12575   0.826   1.945   7.229 -1.1283  1.1779  3.3275
  119OSM   C12F12576   0.995   1.980   7.354 -0.4247  0.2064 -0.6899
  119OSM   H12F12577   1.069   2.062   7.367  0.2782 -0.6368  1.0358
  119OSM   H12G12578   1.053   1.885   7.354 -0.3393  0.2194  1.0321
  119OSM   C13F12579   0.896   1.982   7.470 -0.0047 -0.0082  0.2055
  119OSM   H13F12580   0.844   1.884   7.472 -0.5343  0.2688  0.0824
  119OSM   H13G12581   0.818   2.057   7.446  0.2138 -0.5771 -2.6075
  119OSM   C14F12582   0.955   2.007   7.615  1.1588  0.4282 -0.1553
  119OSM   H14F12583   0.873   1.979   7.686  0.4415  0.0484 -1.1194
  119OSM   H14G12584   0.979   2.115   7.613  0.7712  0.5009 -0.9071
  119OSM   C15F12585   1.086   1.940   7.644  0.5469 -0.0733  1.0950
  119OSM   H15F12586   1.164   1.987   7.580 -1.5299  0.3541 -1.2676
  119OSM   H15G12587   1.083   1.831   7.624  0.8082  0.4748 -2.7234
  119OSM   C16F12588   1.122   1.950   7.793  0.3584  1.0219  0.4127
  119OSM   H16F12589   1.099   2.048   7.838  0.8476  1.6609 -0.6806
  119OSM   H16G12590   1.233   1.946   7.800  0.6601 -0.9866 -3.0830
  119OSM   C17F12591   1.071   1.830   7.882  1.1959  0.2679  0.0108
  119OSM   H17F12592   1.099   1.729   7.846  2.2880  0.2378  0.8922
  119OSM   H17G12593   0.961   1.847   7.881  0.9892 -0.7527  1.7393
  119OSM   C18F12594   1.111   1.840   8.026 -0.3341 -0.1450 -0.4837
  119OSM   H18F12595   1.048   1.768   8.083 -0.3481  0.2916  0.0631
  119OSM   H18G12596   1.076   1.938   8.066  0.8834  0.9642 -2.0036
  119OSM   H18H12597   1.220   1.826   8.038 -0.4328  0.4179  1.3965
  120OSM      N12598   5.918   6.623   6.302 -0.3207  0.4071 -0.1812
  120OSM    C1512599   5.972   6.580   6.433  0.8132  0.1031  0.0458
  120OSM   H15A12600   5.920   6.625   6.515 -1.6396 -0.6003 -1.0324
  120OSM   H15B12601   6.074   6.612   6.448  0.9831 -0.2592 -0.2930
  120OSM   H15C12602   5.968   6.472   6.437  1.8192  0.0665  0.4694
  120OSM    C1412603   5.985   6.543   6.185  0.7120  0.0783 -0.0245
  120OSM   H14A12604   5.952   6.587   6.092  2.0716  0.5818 -0.2790
  120OSM   H14B12605   5.954   6.439   6.189 -1.7694  0.6125 -2.2665
  120OSM   H14C12606   6.092   6.539   6.198  0.4724  0.1415  2.3775
  120OSM    C1312607   5.775   6.593   6.306  0.3993  0.1461  1.0066
  120OSM   H13A12608   5.735   6.644   6.220  1.4166 -0.6109  0.0616
  120OSM   H13B12609   5.717   6.628   6.390 -1.6385  1.0772 -0.7080
  120OSM   H13C12610   5.763   6.486   6.312  1.6446  0.0708  3.2437
  120OSM    C1212611   5.938   6.774   6.280 -1.0290 -0.2921 -0.0780
  120OSM   H12A12612   5.874   6.797   6.195 -2.6239 -3.2287  0.1994
  120OSM   H12B12613   6.041   6.786   6.250 -1.3215 -3.3644 -2.8988
  120OSM    C1112614   5.903   6.871   6.394  0.6581 -0.4201  0.2328
  120OSM   H11A12615   5.958   6.968   6.391  0.9069 -0.5626  0.2047
  120OSM   H11B12616   5.952   6.841   6.488  1.8338 -1.0447 -0.5544
  120OSM      P12617   5.682   6.983   6.323  0.1601  0.5533  0.0308
  120OSM    O1312618   5.774   7.053   6.226 -0.7213 -0.2349 -0.3922
  120OSM    O1412619   5.558   6.916   6.273 -0.2353  0.6330 -1.6242
  120OSM    O1112620   5.635   7.093   6.426 -0.1307  0.6040 -0.2746
  120OSM    O1212621   5.763   6.887   6.419  0.3420 -0.3598  0.4555
  120OSM    C1S12622   5.557   7.059   6.537  0.1831  0.6021  0.0440
  120OSM    H1S12623   5.515   6.956   6.528  0.3453  0.2810  2.2681
  120OSM    H1T12624   5.461   7.114   6.539  0.5756  1.4671 -2.1523
  120OSM     NF12625   5.542   7.056   6.796 -0.3027  0.0278 -0.0767
  120OSM    HNF12626   5.506   7.134   6.848  2.0667  0.4374  1.0650
  120OSM    C2S12627   5.624   7.090   6.677 -0.2923  0.0972 -0.1194
  120OSM    H2S12628   5.716   7.028   6.672  0.4437  1.2028 -0.6017
  120OSM    C3S12629   5.684   7.239   6.682 -0.5992  0.0766 -0.1504
  120OSM    H3S12630   5.595   7.304   6.692 -1.1653 -0.8827  1.4729
  120OSM     O312631   5.757   7.294   6.573 -0.0868 -0.6832  0.4017
  120OSM    HO312632   5.734   7.234   6.502 -1.6953  2.3608 -1.8587
  120OSM    C4S12633   5.772   7.251   6.806 -0.2997  0.4449  0.3634
  120OSM    H4S12634   5.712   7.262   6.898  0.0200  0.4255  0.5747
  120OSM    C5S12635   5.907   7.248   6.816  0.0978 -0.1676  0.0414
  120OSM    H5S12636   5.973   7.254   6.729 -0.1602  0.2393 -0.1301
  120OSM    C6S12637   5.973   7.261   6.955 -0.1307 -0.2786 -0.2494
  120OSM    H6S12638   6.031   7.356   6.958  0.0586 -0.3631 -1.1431
  120OSM    H6T12639   6.044   7.179   6.978 -0.3965  0.2542  2.9306
  120OSM    C7S12640   5.884   7.253   7.084  0.1119  0.2682  0.3597
  120OSM    H7S12641   5.828   7.157   7.089 -2.7346  1.7331 -1.0206
  120OSM    H7T12642   5.805   7.331   7.084 -0.4078 -0.2597  0.8241
  120OSM    C8S12643   5.967   7.270   7.208  0.0031  0.5863  0.0184
  120OSM    H8S12644   6.023   7.365   7.192  2.8925 -0.9152  0.4779
  120OSM    H8T12645   6.041   7.187   7.214 -0.9072 -0.1363  1.7796
  120OSM    C9S12646   5.897   7.279   7.338  0.1001  0.1466 -0.5144
  120OSM    H9S12647   5.834   7.188   7.342  2.1959 -1.4190 -1.4006
  120OSM    H9T12648   5.833   7.369   7.330 -1.5546 -1.1379 -2.5661
  120OSM   C10S12649   5.997   7.284   7.460  0.7921 -0.2313 -0.3932
  120OSM   H10S12650   6.077   7.356   7.436 -0.2508  1.1943  0.2160
  120OSM   H10T12651   6.043   7.186   7.484  2.5549  0.6882  0.1598
  120OSM   C11S12652   5.934   7.324   7.592 -0.0807  0.2997 -0.7644
  120OSM   H11S12653   5.863   7.246   7.627 -0.1121  0.6801  0.0319
  120OSM   H11T12654   5.886   7.424   7.590 -2.9553 -0.8953  1.3476
  120OSM   C12S12655   6.042   7.326   7.708  0.3508 -0.2305 -0.0366
  120OSM   H12S12656   6.100   7.419   7.693 -0.5071  0.4533  0.7831
  120OSM   H12T12657   6.120   7.247   7.704 -0.6482 -1.2607  0.3021
  120OSM   C13S12658   5.982   7.332   7.844 -0.2063  0.0344 -0.3691
  120OSM   H13S12659   5.911   7.248   7.860  0.4862 -0.8697 -1.8497
  120OSM   H13T12660   5.915   7.421   7.852 -1.2610 -0.6348 -1.4155
  120OSM   C14S12661   6.084   7.317   7.960 -0.1607 -0.0070 -0.2051
  120OSM   H14S12662   6.186   7.315   7.914  0.0088 -0.3422  0.1879
  120OSM   H14T12663   6.076   7.214   7.999  1.1203  0.5427  1.6290
  120OSM   C15S12664   6.067   7.420   8.070 -0.4983  0.1720 -0.4661
  120OSM   H15S12665   5.962   7.416   8.106 -0.3260  0.3436  0.0683
  120OSM   H15T12666   6.091   7.517   8.022 -0.9586  0.4643 -0.1191
  120OSM   C16S12667   6.163   7.403   8.190 -0.6190  0.3420  0.3965
  120OSM   H16S12668   6.138   7.486   8.259 -1.6467  1.4043 -1.1873
  120OSM   H16T12669   6.270   7.418   8.163 -0.8095 -0.3569 -0.7860
  120OSM   C17S12670   6.154   7.265   8.256 -0.0647  0.6293 -0.0777
  120OSM   H17S12671   6.218   7.252   8.346 -0.5426  0.8589  0.3037
  120OSM   H17T12672   6.186   7.182   8.190 -1.2777  2.0078 -2.5345
  120OSM   C18S12673   6.014   7.242   8.306 -0.1641 -0.6501  0.2530
  120OSM   H18S12674   5.945   7.235   8.219 -1.3549  2.9146  0.7231
  120OSM   H18T12675   5.982   7.324   8.374 -0.0833 -0.3450 -0.0701
  120OSM   H18U12676   6.016   7.141   8.353  1.5921 -1.1647 -0.8187
  120OSM    C1F12677   5.511   6.935   6.822  0.5109 -0.0028  0.4624
  120OSM     OF12678   5.557   6.846   6.753 -0.2906 -0.2948  0.0874
  120OSM    C2F12679   5.393   6.903   6.908  0.7607  0.1798  0.1335
  120OSM    H2F12680   5.392   6.794   6.925  1.3747  0.0499 -0.5780
  120OSM    H2G12681   5.306   6.929   6.844  0.8158 -0.5915 -0.2542
  120OSM    C3F12682   5.386   6.990   7.035 -0.2285  0.2512  0.2062
  120OSM    H3F12683   5.308   6.944   7.099  0.4326 -2.4562 -0.8018
  120OSM    H3G12684   5.349   7.093   7.012 -3.0514 -0.9032 -0.8978
  120OSM    C4F12685   5.516   7.003   7.117 -0.0169  0.1136 -0.3250
  120OSM    H4F12686   5.593   7.066   7.068 -0.3402  0.4899 -0.3531
  120OSM    H4G12687   5.541   6.895   7.125 -1.6775 -0.2037  1.6862
  120OSM    C5F12688   5.478   7.044   7.259  0.0370 -0.2082 -0.1416
  120OSM    H5F12689   5.555   7.010   7.331 -0.1917  0.5837  0.4896
  120OSM    H5G12690   5.388   6.987   7.292 -1.6826  2.5862  0.3412
  120OSM    C6F12691   5.474   7.197   7.275 -0.2806  0.8622  0.7446
  120OSM    H6F12692   5.402   7.242   7.204  1.6818  0.5984 -1.5668
  120OSM    H6G12693   5.577   7.222   7.242 -0.7655 -0.5548 -2.2999
  120OSM    C7F12694   5.458   7.254   7.414  0.2396  0.3292  0.0116
  120OSM    H7F12695   5.362   7.224   7.461  1.0385 -0.4940  1.1594
  120OSM    H7G12696   5.457   7.362   7.388  0.6451  0.1362 -0.8790
  120OSM    C8F12697   5.577   7.246   7.507 -1.0751 -0.2473 -0.1977
  120OSM    H8F12698   5.568   7.337   7.570  0.5871  0.1357 -0.4665
  120OSM    H8G12699   5.669   7.252   7.444 -0.4458 -1.7828  0.5024
  120OSM    C9F12700   5.595   7.120   7.587 -0.7672 -0.6385  0.2620
  120OSM    H9F12701   5.641   7.040   7.527  0.6376  0.4232 -0.1333
  120OSM   C10F12702   5.561   7.094   7.710 -0.6983  0.2064 -0.2960
  120OSM   H10F12703   5.592   7.004   7.766 -1.5656  0.3354  0.4102
  120OSM   C11F12704   5.491   7.192   7.798  0.2932 -0.1076  0.1412
  120OSM   H11F12705   5.412   7.156   7.867 -0.5578  0.8900 -0.2862
  120OSM   H11G12706   5.444   7.261   7.724  1.2049  0.2017 -0.1574
  120OSM   C12F12707   5.585   7.286   7.877  0.3682  0.5399 -0.0340
  120OSM   H12F12708   5.676   7.317   7.821 -0.6632  0.9828 -1.5051
  120OSM   H12G12709   5.611   7.230   7.970  1.2776  1.2100  0.1344
  120OSM   C13F12710   5.527   7.420   7.920 -0.6627  0.1547  0.2626
  120OSM   H13F12711   5.518   7.487   7.833  0.5502  0.1266  0.0995
  120OSM   H13G12712   5.605   7.470   7.982 -1.3187  0.7857  0.5928
  120OSM   C14F12713   5.386   7.423   7.986  0.2729  0.2945  0.3249
  120OSM   H14F12714   5.379   7.356   8.074 -2.2230  0.9306  0.6949
  120OSM   H14G12715   5.307   7.391   7.915  0.9987  2.3125 -1.4863
  120OSM   C15F12716   5.348   7.557   8.047  0.1308 -0.6032 -0.0522
  120OSM   H15F12717   5.351   7.631   7.964  0.1333 -0.3688  0.1548
  120OSM   H15G12718   5.427   7.599   8.112  0.9532 -0.3133 -1.2108
  120OSM   C16F12719   5.210   7.551   8.121 -0.7760 -0.4459  0.3806
  120OSM   H16F12720   5.223   7.488   8.212  0.3674  0.5884  0.9572
  120OSM   H16G12721   5.147   7.495   8.049  0.3918  0.5582 -1.5065
  120OSM   C17F12722   5.160   7.688   8.172  0.2970  0.3023 -0.0351
  120OSM   H17F12723   5.063   7.671   8.223  1.4332 -1.1689  1.7621
  120OSM   H17G12724   5.137   7.751   8.083 -0.3900  1.2686  0.8089
  120OSM   C18F12725   5.250   7.766   8.270 -0.6461 -0.4223  0.0588
  120OSM   H18F12726   5.307   7.699   8.338  1.0941  1.1808  0.2271
  120OSM   H18G12727   5.195   7.840   8.331 -0.3366  0.5105 -0.7687
  120OSM   H18H12728   5.328   7.819   8.212  1.2682 -2.3691  0.7296
  121OSM      N12729   1.276   0.897   5.755  0.0530  0.5550 -0.2414
  121OSM    C1512730   1.169   0.983   5.696 -0.5616 -0.9312  0.0160
  121OSM   H15A12731   1.075   0.951   5.739 -1.1188  0.1753 -0.3436
  121OSM   H15B12732   1.165   0.980   5.588  0.1735 -1.2270 -0.0125
  121OSM   H15C12733   1.193   1.085   5.722 -0.8192 -0.6173 -0.9580
  121OSM    C1412734   1.265   0.761   5.695 -0.5346 -0.2927  0.2070
  121OSM   H14A12735   1.349   0.705   5.733 -0.2684  0.9443  1.5179
  121OSM   H14B12736   1.255   0.766   5.587 -1.6460 -1.6901  0.2103
  121OSM   H14C12737   1.179   0.700   5.717  0.5399 -1.3040  1.8388
  121OSM    C1312738   1.413   0.948   5.718 -0.0345 -0.2919  0.1066
  121OSM   H13A12739   1.425   0.938   5.611  1.6447 -0.6577  0.2940
  121OSM   H13B12740   1.481   0.888   5.776  0.5636  1.2361  1.0401
  121OSM   H13C12741   1.427   1.050   5.751  1.5528 -0.4619  0.0556
  121OSM    C1212742   1.273   0.893   5.904  0.3881 -0.4946  1.0096
  121OSM   H12A12743   1.343   0.820   5.942  0.9881  0.4598  1.7795
  121OSM   H12B12744   1.172   0.866   5.933  0.1718  0.5788  1.3238
  121OSM    C1112745   1.295   1.032   5.976  1.4001 -0.2332  1.2732
  121OSM   H11A12746   1.384   1.084   5.934  2.1784 -1.7545  0.9584
  121OSM   H11B12747   1.327   1.006   6.080 -1.8853  2.0859  3.0548
  121OSM      P12748   1.038   1.107   6.043 -0.3238 -0.1315 -0.3546
  121OSM    O1312749   0.940   1.169   5.952  0.0556 -0.2345  0.1598
  121OSM    O1412750   1.005   0.977   6.106  0.3661  0.4499  0.4895
  121OSM    O1112751   1.060   1.212   6.156 -0.0517 -0.2875 -0.1343
  121OSM    O1212752   1.172   1.109   5.961  0.1089  0.3994 -0.6154
  121OSM    C1S12753   1.151   1.318   6.148  0.4552 -0.1416 -0.2166
  121OSM    H1S12754   1.121   1.390   6.069  1.1746  1.3774  0.8512
  121OSM    H1T12755   1.255   1.285   6.126  1.3017  1.8797  0.5360
  121OSM     NF12756   1.250   1.514   6.277  0.4486 -0.1430  0.2407
  121OSM    HNF12757   1.341   1.516   6.318  0.0660 -2.0103  1.2591
  121OSM    C2S12758   1.173   1.391   6.282  0.2638 -0.1274  0.3415
  121OSM    H2S12759   1.073   1.427   6.315  0.8283  2.2872 -0.3656
  121OSM    C3S12760   1.233   1.294   6.393  0.0694 -0.2503 -0.7527
  121OSM    H3S12761   1.342   1.286   6.371 -0.0724  0.1222 -1.6430
  121OSM     O312762   1.187   1.158   6.385 -0.6120 -0.0921  0.2175
  121OSM    HO312763   1.137   1.150   6.303 -0.4967 -3.4258  0.3517
  121OSM    C4S12764   1.210   1.345   6.536 -0.1250  0.5108 -0.2259
  121OSM    H4S12765   1.105   1.359   6.565  0.0613  0.3822  0.5282
  121OSM    C5S12766   1.300   1.378   6.629 -0.7471 -0.5278  0.2819
  121OSM    H5S12767   1.406   1.382   6.602 -0.6606  1.3292  0.7754
  121OSM    C6S12768   1.277   1.431   6.772 -0.1582 -0.1120  0.0417
  121OSM    H6S12769   1.183   1.377   6.798  0.5834 -0.9319  1.1272
  121OSM    H6T12770   1.276   1.542   6.766 -0.0592 -0.0060  1.4859
  121OSM    C7S12771   1.383   1.395   6.874 -0.1866  0.7188  0.5096
  121OSM    H7S12772   1.483   1.426   6.838 -0.4069 -0.4738 -1.2750
  121OSM    H7T12773   1.376   1.285   6.892  0.5820  0.3731 -1.1156
  121OSM    C8S12774   1.344   1.464   7.003 -0.3166  0.4514  0.1225
  121OSM    H8S12775   1.244   1.423   7.028 -0.2086 -1.9524 -2.8187
  121OSM    H8T12776   1.346   1.575   7.001  1.8524  0.5021  1.3876
  121OSM    C9S12777   1.438   1.422   7.120 -0.2800  0.1825  0.7174
  121OSM    H9S12778   1.544   1.443   7.093  0.2593 -1.2022  1.6236
  121OSM    H9T12779   1.428   1.312   7.136 -0.5057  0.2919  1.3580
  121OSM   C10S12780   1.396   1.488   7.250 -0.6909 -0.0134  0.3398
  121OSM   H10S12781   1.288   1.466   7.262 -0.2124 -2.4412  0.7884
  121OSM   H10T12782   1.411   1.596   7.233  0.3430 -0.3872 -1.2499
  121OSM   C11S12783   1.483   1.453   7.371  0.6356 -0.0821  0.4665
  121OSM   H11S12784   1.587   1.473   7.339  0.0534  1.1578 -0.7777
  121OSM   H11T12785   1.472   1.343   7.383  1.1414 -0.3740 -1.4262
  121OSM   C12S12786   1.455   1.536   7.499  0.8109 -0.8132  0.0584
  121OSM   H12S12787   1.346   1.557   7.498  1.2123  1.5615  0.5900
  121OSM   H12T12788   1.499   1.638   7.487 -0.6358 -0.3818 -2.0477
  121OSM   C13S12789   1.492   1.456   7.631 -0.0589 -0.6775  0.5934
  121OSM   H13S12790   1.600   1.431   7.620  0.0698 -0.0306  0.3874
  121OSM   H13T12791   1.433   1.361   7.632 -0.0383 -0.7501 -1.1428
  121OSM   C14S12792   1.481   1.531   7.763  0.5168  0.2362 -0.0558
  121OSM   H14S12793   1.376   1.564   7.771 -0.2267 -2.2399  1.5543
  121OSM   H14T12794   1.539   1.625   7.751  0.4754  0.0796 -1.7407
  121OSM   C15S12795   1.527   1.453   7.884 -0.3925 -0.1297 -0.5993
  121OSM   H15S12796   1.629   1.416   7.864 -0.7404 -1.4037 -0.1480
  121OSM   H15T12797   1.470   1.359   7.901  0.6668 -0.4715  1.3612
  121OSM   C16S12798   1.521   1.558   7.996 -0.3988  1.1893  0.3432
  121OSM   H16S12799   1.561   1.651   7.951  3.9203 -1.1257 -1.2704
  121OSM   H16T12800   1.593   1.525   8.075  0.2504 -0.9885 -1.0686
  121OSM   C17S12801   1.377   1.569   8.053 -0.5312 -0.4442  0.1720
  121OSM   H17S12802   1.338   1.465   8.056  1.3161 -1.1572  1.1490
  121OSM   H17T12803   1.303   1.618   7.986 -0.2625 -2.1964 -1.4732
  121OSM   C18S12804   1.380   1.636   8.195 -0.3525  0.3431  0.4117
  121OSM   H18S12805   1.421   1.737   8.178 -0.0055 -0.1977 -2.7537
  121OSM   H18T12806   1.428   1.570   8.270  0.5739 -1.2271 -1.4495
  121OSM   H18U12807   1.272   1.645   8.219 -0.8599 -3.1859  0.0593
  121OSM    C1F12808   1.207   1.621   6.201  0.5340 -0.0163 -0.4779
  121OSM     OF12809   1.102   1.623   6.139 -0.0388 -0.1597  0.3785
  121OSM    C2F12810   1.301   1.742   6.193 -0.4410 -0.5494  0.2621
  121OSM    H2F12811   1.320   1.758   6.085  0.8243  0.8122  0.6582
  121OSM    H2G12812   1.394   1.725   6.251 -0.1727 -0.0245 -0.0141
  121OSM    C3F12813   1.230   1.866   6.254  0.6760 -0.0226 -0.5283
  121OSM    H3F12814   1.131   1.878   6.205 -0.9705 -3.0363  1.6918
  121OSM    H3G12815   1.292   1.955   6.231 -1.4307  1.0161 -2.5040
  121OSM    C4F12816   1.205   1.855   6.405 -0.4958 -0.0761  0.1918
  121OSM    H4F12817   1.141   1.768   6.427 -0.5759  0.6963  3.5924
  121OSM    H4G12818   1.150   1.950   6.423  1.0235  0.7552  0.6893
  121OSM    C5F12819   1.334   1.849   6.494  0.2059  0.4240  0.3892
  121OSM    H5F12820   1.401   1.931   6.462  1.3098  0.3118  2.2686
  121OSM    H5G12821   1.382   1.752   6.467 -0.4497  0.3888 -0.7271
  121OSM    C6F12822   1.300   1.862   6.644 -0.8977 -0.1930 -0.1397
  121OSM    H6F12823   1.227   1.786   6.678 -0.7691 -0.2588 -0.0121
  121OSM    H6G12824   1.253   1.962   6.650 -0.7403  0.1200 -2.7426
  121OSM    C7F12825   1.430   1.868   6.727  0.2293  0.2141  0.1690
  121OSM    H7F12826   1.486   1.959   6.697 -0.7958  0.3099 -1.6373
  121OSM    H7G12827   1.495   1.787   6.689 -2.1238 -1.2720 -0.9358
  121OSM    C8F12828   1.401   1.851   6.877 -0.2154 -0.7829 -0.5425
  121OSM    H8F12829   1.498   1.845   6.931 -0.3142 -0.9845 -0.3876
  121OSM    H8G12830   1.343   1.757   6.890 -0.7007 -0.3069  1.0036
  121OSM    C9F12831   1.327   1.971   6.935 -0.6577  0.4093  0.2767
  121OSM    H9F12832   1.295   2.053   6.869 -0.6957 -0.1505 -0.4034
  121OSM   C10F12833   1.295   1.982   7.070 -0.4009 -0.1565  0.1726
  121OSM   H10F12834   1.250   2.075   7.109  0.2629  0.3744 -0.3075
  121OSM   C11F12835   1.327   1.881   7.179  0.6674 -0.0153 -0.3870
  121OSM   H11F12836   1.414   1.819   7.150  1.8319  0.7014  1.4013
  121OSM   H11G12837   1.247   1.805   7.188 -0.0227  0.5855 -1.1965
  121OSM   C12F12838   1.359   1.967   7.304 -0.0519 -0.1269  0.9272
  121OSM   H12F12839   1.276   2.032   7.338 -0.9408 -1.3741  1.2159
  121OSM   H12G12840   1.439   2.036   7.272 -2.0120  2.2640  0.9039
  121OSM   C13F12841   1.397   1.867   7.415  0.3684 -0.6199 -0.6884
  121OSM   H13F12842   1.457   1.788   7.365 -0.6627 -1.9584  0.1166
  121OSM   H13G12843   1.303   1.829   7.461 -1.0982 -0.4912 -3.3244
  121OSM   C14F12844   1.492   1.922   7.517 -0.6959  0.3414  0.4361
  121OSM   H14F12845   1.594   1.920   7.473 -1.9946 -1.4370 -2.8701
  121OSM   H14G12846   1.503   1.839   7.591 -2.1255  0.2240  0.5537
  121OSM   C15F12847   1.449   2.052   7.581 -0.3285  0.1939 -0.4817
  121OSM   H15F12848   1.372   2.020   7.654  2.5714 -0.4260  2.5330
  121OSM   H15G12849   1.423   2.126   7.502 -0.6115 -1.6268 -2.1624
  121OSM   C16F12850   1.561   2.109   7.670  0.1544  0.1287  0.2228
  121OSM   H16F12851   1.517   2.184   7.740  1.5203  0.5720  0.6435
  121OSM   H16G12852   1.633   2.160   7.602  0.4905  1.0453  1.2343
  121OSM   C17F12853   1.649   2.002   7.738  0.3560 -0.0726  0.1897
  121OSM   H17F12854   1.736   2.061   7.774 -1.2604  1.5751  1.5832
  121OSM   H17G12855   1.685   1.926   7.665 -1.9529  1.8399 -3.2184
  121OSM   C18F12856   1.574   1.931   7.848 -0.0330 -0.2456  0.7104
  121OSM   H18F12857   1.511   1.850   7.804 -0.3161  1.0926 -1.4949
  121OSM   H18G12858   1.519   2.003   7.913  0.1316  2.8034 -2.2369
  121OSM   H18H12859   1.655   1.874   7.897  0.2345 -0.5273 -0.0473
  122OSM      N12860   5.615   3.757   6.184 -0.0321 -0.2947  0.2265
  122OSM    C1512861   5.711   3.662   6.125 -0.4852  0.3342  0.0674
  122OSM   H15A12862   5.808   3.708   6.134 -1.1770  2.6563 -2.8163
  122OSM   H15B12863   5.696   3.636   6.021  1.5309  0.3591 -0.2650
  122OSM   H15C12864   5.710   3.575   6.190  0.5896  0.5459  0.3759
  122OSM    C1412865   5.476   3.696   6.186  0.2562 -0.4404  1.3815
  122OSM   H14A12866   5.405   3.762   6.235 -0.6680 -0.5605  0.2456
  122OSM   H14B12867   5.472   3.597   6.231  0.3772 -1.1179 -0.0407
  122OSM   H14C12868   5.449   3.669   6.085  1.0247 -1.7625  1.5052
  122OSM    C1312869   5.660   3.794   6.319  0.4368 -0.0510  0.2060
  122OSM   H13A12870   5.630   3.722   6.394 -1.8614  0.4454 -0.1608
  122OSM   H13B12871   5.636   3.890   6.362  2.5386 -0.2986  2.1264
  122OSM   H13C12872   5.767   3.787   6.320  0.6952  2.8338  0.4340
  122OSM    C1212873   5.608   3.883   6.098 -0.4403 -0.2366 -0.0520
  122OSM   H12A12874   5.518   3.936   6.125 -1.5076 -2.6988  1.6646
  122OSM   H12B12875   5.596   3.860   5.993 -2.8346  2.3331 -0.4593
  122OSM    C1112876   5.736   3.971   6.103 -0.7284  1.1792  1.0530
  122OSM   H11A12877   5.727   4.018   6.203  1.0296 -1.0175  2.3491
  122OSM   H11B12878   5.718   4.042   6.020 -1.3460 -0.6354 -0.4562
  122OSM      P12879   5.987   3.967   6.045  0.1827 -0.2888 -0.5458
  122OSM    O1312880   6.096   3.877   6.014 -0.7926 -0.1430  0.2031
  122OSM    O1412881   5.958   4.075   5.946  0.1351 -0.2903 -0.3148
  122OSM    O1112882   6.033   4.045   6.171  0.8523 -0.0758  0.0688
  122OSM    O1212883   5.856   3.893   6.085  0.6391  0.3768 -0.0203
  122OSM    C1S12884   5.993   4.004   6.301  0.1123 -0.2801 -0.5872
  122OSM    H1S12885   5.970   3.896   6.308 -2.7079  0.3268  1.0474
  122OSM    H1T12886   5.907   4.066   6.335  0.2776 -0.1187 -0.4595
  122OSM     NF12887   6.086   3.972   6.525  0.0989 -0.0144 -0.2979
  122OSM    HNF12888   6.042   4.030   6.593 -1.5712  0.7256 -1.9075
  122OSM    C2S12889   6.108   4.042   6.399  0.0209  0.0476 -0.8305
  122OSM    H2S12890   6.209   4.006   6.368  0.3790  1.3371 -1.2316
  122OSM    C3S12891   6.124   4.206   6.406  0.3380  0.2464  0.2975
  122OSM    H3S12892   6.034   4.251   6.451  0.6856  0.7676  0.4681
  122OSM     O312893   6.126   4.261   6.276 -0.3695  0.3455  0.4010
  122OSM    HO312894   6.108   4.179   6.229  0.2213 -0.3617  1.3697
  122OSM    C4S12895   6.245   4.251   6.478 -0.1614 -0.1241 -0.4341
  122OSM    H4S12896   6.332   4.215   6.420 -0.1435 -1.8287  0.5727
  122OSM    C5S12897   6.256   4.312   6.597 -0.3918  0.8617 -0.9555
  122OSM    H5S12898   6.164   4.347   6.647 -0.6374 -0.0576 -0.7484
  122OSM    C6S12899   6.384   4.343   6.673 -0.7017  0.0058  1.4851
  122OSM    H6S12900   6.475   4.308   6.620 -0.5631  2.3951 -0.0252
  122OSM    H6T12901   6.388   4.295   6.773  1.7539 -0.4089  1.2372
  122OSM    C7S12902   6.421   4.494   6.670  0.4664  0.1931  0.6941
  122OSM    H7S12903   6.353   4.554   6.734  0.1098  1.4250 -0.7834
  122OSM    H7T12904   6.412   4.536   6.568 -0.6665 -1.9556 -0.1495
  122OSM    C8S12905   6.562   4.506   6.739  0.1573 -0.2586  0.0569
  122OSM    H8S12906   6.589   4.612   6.721 -0.2885 -0.0737  0.4561
  122OSM    H8T12907   6.635   4.446   6.680 -0.9569  0.9611 -2.7146
  122OSM    C9S12908   6.553   4.477   6.886 -0.1086  0.3076 -0.4109
  122OSM    H9S12909   6.622   4.399   6.923  0.3703 -1.0663 -3.8461
  122OSM    H9T12910   6.452   4.440   6.913 -0.4187  1.0170 -0.5552
  122OSM   C10S12911   6.588   4.594   6.970  0.5990  0.2188  0.0338
  122OSM   H10S12912   6.534   4.689   6.949  0.6987  0.5684  1.2548
  122OSM   H10T12913   6.695   4.621   6.956  0.9884 -1.4272 -0.3137
  122OSM   C11S12914   6.573   4.558   7.121  0.5607  0.9215  0.1079
  122OSM   H11S12915   6.619   4.459   7.145  1.8562  1.3906 -0.3786
  122OSM   H11T12916   6.464   4.546   7.141  0.9508 -0.4698  1.6985
  122OSM   C12S12917   6.622   4.668   7.216 -0.2187  0.1029 -0.9248
  122OSM   H12S12918   6.558   4.758   7.204 -0.4418 -0.2499 -2.7946
  122OSM   H12T12919   6.727   4.696   7.195  0.0937 -0.3185  0.0158
  122OSM   C13S12920   6.610   4.622   7.365  0.4029  0.3344  0.3158
  122OSM   H13S12921   6.685   4.542   7.379 -0.8085 -1.3417 -2.0605
  122OSM   H13T12922   6.517   4.560   7.367 -0.0083  0.8781 -0.7701
  122OSM   C14S12923   6.623   4.744   7.466  0.1300  0.5989 -0.4429
  122OSM   H14S12924   6.539   4.813   7.450 -1.1443 -0.4214  1.4187
  122OSM   H14T12925   6.722   4.790   7.443 -0.1343  0.8506 -1.1040
  122OSM   C15S12926   6.623   4.684   7.609  0.7845 -0.5873  0.5414
  122OSM   H15S12927   6.702   4.607   7.623  0.9350 -0.1510  2.4171
  122OSM   H15T12928   6.520   4.647   7.630  0.7046  0.3232  1.8662
  122OSM   C16S12929   6.635   4.799   7.719  0.2152 -0.3654 -0.6637
  122OSM   H16S12930   6.561   4.880   7.700 -1.6320 -1.8373 -0.0680
  122OSM   H16T12931   6.739   4.836   7.708 -0.4975  1.3763 -1.9226
  122OSM   C17S12932   6.605   4.738   7.859 -0.8494 -0.3362  0.2928
  122OSM   H17S12933   6.500   4.713   7.881 -1.5223  1.6535 -0.4530
  122OSM   H17T12934   6.624   4.821   7.931  2.0064  0.0526 -0.7731
  122OSM   C18S12935   6.705   4.627   7.902 -0.4990  0.2335  0.2949
  122OSM   H18S12936   6.811   4.661   7.900 -0.4184  0.0530  1.2976
  122OSM   H18T12937   6.684   4.540   7.835  0.4907  0.0399  0.2164
  122OSM   H18U12938   6.692   4.596   8.007 -0.7157 -2.3171 -0.4119
  122OSM    C1F12939   6.114   3.843   6.550 -0.0410  0.1772 -0.1220
  122OSM     OF12940   6.181   3.775   6.469  0.8911 -0.5880 -0.2567
  122OSM    C2F12941   6.075   3.789   6.684 -0.3790  0.4519 -0.8893
  122OSM    H2F12942   5.997   3.713   6.665  0.5228 -1.3536  2.0663
  122OSM    H2G12943   6.028   3.871   6.743  0.3314  0.6660 -0.6110
  122OSM    C3F12944   6.198   3.724   6.754  0.4378  0.5269 -0.8371
  122OSM    H3F12945   6.281   3.797   6.764 -0.5348  1.5573 -0.0173
  122OSM    H3G12946   6.246   3.653   6.683  2.3872  0.8112  0.1232
  122OSM    C4F12947   6.163   3.634   6.884 -0.3818  0.3773 -0.0515
  122OSM    H4F12948   6.070   3.577   6.866 -1.1931  0.4492  3.3254
  122OSM    H4G12949   6.156   3.693   6.978  1.2468  1.7678 -0.7460
  122OSM    C5F12950   6.275   3.532   6.919 -0.5688 -0.5402  0.2296
  122OSM    H5F12951   6.375   3.579   6.930  1.3169 -3.5633 -2.1635
  122OSM    H5G12952   6.286   3.461   6.833 -0.0492  0.0518 -0.2062
  122OSM    C6F12953   6.240   3.447   7.043 -0.0678  0.6570 -0.6119
  122OSM    H6F12954   6.315   3.366   7.054  0.0499  0.8947  0.4105
  122OSM    H6G12955   6.141   3.397   7.035  0.8943 -2.2458  3.0079
  122OSM    C7F12956   6.249   3.526   7.172  0.3291  0.3736  0.0310
  122OSM    H7F12957   6.170   3.604   7.183  1.4503  1.3323  1.9731
  122OSM    H7G12958   6.350   3.573   7.172  1.1357 -1.2621  0.9166
  122OSM    C8F12959   6.236   3.430   7.291 -0.5782  0.3726 -0.6043
  122OSM    H8F12960   6.321   3.358   7.285 -0.1801  0.8055 -0.2770
  122OSM    H8G12961   6.140   3.375   7.289 -0.3559 -0.0019 -1.0330
  122OSM    C9F12962   6.255   3.513   7.418 -0.3063  0.6206  0.0446
  122OSM    H9F12963   6.280   3.618   7.398  1.0138  0.1709 -0.8278
  122OSM   C10F12964   6.265   3.459   7.543 -0.0083 -0.0536 -0.5040
  122OSM   H10F12965   6.291   3.524   7.627 -1.4847 -0.4295  0.2687
  122OSM   C11F12966   6.269   3.309   7.582  0.5825  0.0666  0.4884
  122OSM   H11F12967   6.333   3.259   7.507  0.2105  0.2756  0.0254
  122OSM   H11G12968   6.176   3.252   7.559  1.4515 -0.5272 -1.8633
  122OSM   C12F12969   6.337   3.271   7.718  0.1248  0.1077 -0.2074
  122OSM   H12F12970   6.267   3.302   7.799  1.5245 -2.6227  2.2294
  122OSM   H12G12971   6.436   3.320   7.732 -0.8644  2.2965 -0.3875
  122OSM   C13F12972   6.364   3.120   7.738 -0.3116  0.0524 -0.5106
  122OSM   H13F12973   6.416   3.081   7.648  0.2556  0.3007 -0.2918
  122OSM   H13G12974   6.264   3.074   7.724 -0.9060  1.1099  0.0851
  122OSM   C14F12975   6.417   3.077   7.879 -0.2681 -0.5529  0.3470
  122OSM   H14F12976   6.336   3.108   7.949  0.4266  0.7196  0.6239
  122OSM   H14G12977   6.513   3.131   7.889  0.8111 -2.3075 -0.1999
  122OSM   C15F12978   6.432   2.920   7.893  0.1155 -0.0839 -0.4775
  122OSM   H15F12979   6.513   2.888   7.823 -0.8837 -5.3291  0.3609
  122OSM   H15G12980   6.338   2.867   7.867 -0.7510  1.8255 -1.4424
  122OSM   C16F12981   6.495   2.881   8.023  0.2440  0.2401  0.4284
  122OSM   H16F12982   6.588   2.941   8.031  0.3065  0.0405  1.2503
  122OSM   H16G12983   6.507   2.772   8.039 -1.9923  0.2033  2.4197
  122OSM   C17F12984   6.410   2.919   8.150  0.7873  0.9255  0.5591
  122OSM   H17F12985   6.304   2.887   8.140  0.9414  0.7452 -0.5838
  122OSM   H17G12986   6.399   3.027   8.174  1.7744  1.5001 -1.3531
  122OSM   C18F12987   6.473   2.861   8.276 -0.0871  0.1270  0.2811
  122OSM   H18F12988   6.405   2.874   8.362 -1.3445  2.6656 -1.0064
  122OSM   H18G12989   6.569   2.911   8.301 -0.2827  0.1763  0.9360
  122OSM   H18H12990   6.511   2.757   8.267  0.1847  0.2471  0.0026
  123OSM      N12991   4.467   6.747   6.451  0.6537 -0.0305 -0.7625
  123OSM    C1512992   4.394   6.857   6.376  0.0173  0.0030 -0.1019
  123OSM   H15A12993   4.286   6.858   6.382 -0.2086 -0.1504 -2.8670
  123OSM   H15B12994   4.418   6.839   6.272  0.5075 -2.5111  0.4029
  123OSM   H15C12995   4.431   6.954   6.407  3.9889 -2.2587  3.1552
  123OSM    C1412996   4.476   6.631   6.353 -0.2510 -0.4152  0.0598
  123OSM   H14A12997   4.381   6.620   6.304 -1.4698 -1.0343  2.4041
  123OSM   H14B12998   4.500   6.541   6.409  1.6312 -0.2067 -0.3236
  123OSM   H14C12999   4.554   6.652   6.281 -0.3520 -1.2980 -0.3233
  123OSM    C1313000   4.607   6.790   6.490  0.2665  0.1935 -0.2653
  123OSM   H13A13001   4.671   6.800   6.403 -1.0593  1.1278 -1.1824
  123OSM   H13B13002   4.653   6.718   6.555 -1.5864 -0.3375  0.5209
  123OSM   H13C13003   4.606   6.888   6.537 -1.3960  0.7009 -1.2863
  123OSM    C1213004   4.387   6.723   6.582 -0.0495  0.8391 -0.1184
  123OSM   H12A13005   4.286   6.696   6.553 -0.7771  4.0179 -0.8762
  123OSM   H12B13006   4.369   6.814   6.636 -1.0742  0.0715  0.8824
  123OSM    C1113007   4.438   6.623   6.688  0.8988  0.8487  0.1503
  123OSM   H11A13008   4.370   6.617   6.776  1.1140 -2.2634  0.2434
  123OSM   H11B13009   4.536   6.664   6.721  0.8676 -0.1081  1.5302
  123OSM      P13010   4.347   6.393   6.585  0.5062  0.5103 -0.0921
  123OSM    O1313011   4.211   6.451   6.594 -0.3753 -0.1922  0.3620
  123OSM    O1413012   4.392   6.323   6.465 -0.1241  0.4817  0.4754
  123OSM    O1113013   4.341   6.279   6.689  0.3145  0.0844 -0.8495
  123OSM    O1213014   4.462   6.496   6.630 -0.1862 -0.6118  0.6872
  123OSM    C1S13015   4.442   6.247   6.788  0.2310 -0.5501  0.2779
  123OSM    H1S13016   4.536   6.305   6.777  0.2607 -0.6770 -0.1708
  123OSM    H1T13017   4.468   6.139   6.787  2.4824 -0.0535  1.0978
  123OSM     NF13018   4.516   6.264   7.027  0.2394 -0.0899  0.2800
  123OSM    HNF13019   4.540   6.173   7.060 -1.8570 -0.6209  0.4693
  123OSM    C2S13020   4.404   6.275   6.942  0.1105  0.1081 -0.7701
  123OSM    H2S13021   4.369   6.380   6.937  2.9105  1.1603  0.1665
  123OSM    C3S13022   4.287   6.182   6.980  0.5520  0.2224  0.4792
  123OSM    H3S13023   4.332   6.081   6.978  0.0903  0.0208  0.1782
  123OSM     O313024   4.173   6.194   6.890 -0.3111  0.6534 -0.2212
  123OSM    HO313025   4.206   6.236   6.810 -1.3309 -0.0055 -1.0165
  123OSM    C4S13026   4.254   6.198   7.125 -0.1176 -0.3523 -0.1214
  123OSM    H4S13027   4.337   6.177   7.193  0.2414  0.9454 -0.1437
  123OSM    C5S13028   4.140   6.255   7.184  0.0605 -0.7030 -0.3685
  123OSM    H5S13029   4.053   6.282   7.122  1.3770 -0.5845 -2.2261
  123OSM    C6S13030   4.117   6.271   7.337  0.0624 -0.3830 -0.2548
  123OSM    H6S13031   4.013   6.240   7.360  0.1311  0.0281  0.6745
  123OSM    H6T13032   4.118   6.377   7.371 -3.3587 -0.2981 -0.0087
  123OSM    C7S13033   4.214   6.174   7.412 -0.4442 -0.1618  0.1530
  123OSM    H7S13034   4.309   6.230   7.414 -1.1780  1.1827 -0.9899
  123OSM    H7T13035   4.238   6.078   7.362 -1.0043  0.7720 -1.9943
  123OSM    C8S13036   4.174   6.151   7.559 -0.9367 -0.1088 -0.2677
  123OSM    H8S13037   4.248   6.075   7.591 -0.8617 -0.0783 -0.3677
  123OSM    H8T13038   4.071   6.109   7.563 -1.8167  1.9687  1.1295
  123OSM    C9S13039   4.169   6.280   7.642 -0.7128 -0.7911 -0.4053
  123OSM    H9S13040   4.094   6.345   7.594 -1.2451 -2.0868 -1.3899
  123OSM    H9T13041   4.266   6.331   7.630 -2.1878  2.1601 -0.5586
  123OSM   C10S13042   4.154   6.241   7.788  0.0468 -0.4691  0.1582
  123OSM   H10S13043   4.071   6.173   7.817 -1.0031  0.4632 -0.6003
  123OSM   H10T13044   4.140   6.330   7.853 -3.3874  0.5898 -1.7744
  123OSM   C11S13045   4.281   6.172   7.838 -0.8723  0.2229 -0.0002
  123OSM   H11S13046   4.374   6.221   7.802  0.3842 -0.9745  1.5119
  123OSM   H11T13047   4.288   6.069   7.797  1.6435 -0.0730  1.0398
  123OSM   C12S13048   4.296   6.161   7.992 -0.5097 -0.2099 -0.4397
  123OSM   H12S13049   4.204   6.113   8.031  2.1597 -3.6798  2.3914
  123OSM   H12T13050   4.299   6.265   8.032  1.9467 -0.3957  0.0169
  123OSM   C13S13051   4.428   6.095   8.047 -0.4789 -0.3250  0.5027
  123OSM   H13S13052   4.518   6.115   7.985 -1.4063 -0.8426 -1.0786
  123OSM   H13T13053   4.417   5.986   8.027 -0.1131 -0.6695  2.0624
  123OSM   C14S13054   4.442   6.116   8.202  0.0314  0.2613 -0.9833
  123OSM   H14S13055   4.366   6.049   8.249  1.6567 -0.2966  0.9658
  123OSM   H14T13056   4.421   6.224   8.214  1.6902  0.8073 -2.5105
  123OSM   C15S13057   4.579   6.092   8.268 -0.5278 -0.2955  0.0697
  123OSM   H15S13058   4.659   6.159   8.232 -0.0074  0.9814  3.2217
  123OSM   H15T13059   4.598   5.983   8.266  1.1350 -0.1245  2.2819
  123OSM   C16S13060   4.562   6.118   8.418  0.7903  0.1864 -0.3935
  123OSM   H16S13061   4.646   6.085   8.483  0.0316 -0.4635  0.2737
  123OSM   H16T13062   4.474   6.061   8.453  2.3535 -1.4524  1.1314
  123OSM   C17S13063   4.545   6.267   8.459 -0.3696  0.5298 -0.2486
  123OSM   H17S13064   4.450   6.309   8.420  0.7693  1.6307 -1.9635
  123OSM   H17T13065   4.620   6.334   8.412  0.5147  2.0010  2.9927
  123OSM   C18S13066   4.556   6.293   8.606 -0.2609  0.4354 -0.0054
  123OSM   H18S13067   4.640   6.245   8.659 -0.6020 -0.4300 -0.2223
  123OSM   H18T13068   4.465   6.249   8.651  0.1440 -1.3911 -0.8787
  123OSM   H18U13069   4.574   6.396   8.642  1.4244  0.9840 -2.1594
  123OSM    C1F13070   4.615   6.357   7.038  0.4067 -0.0050  0.6025
  123OSM     OF13071   4.610   6.464   6.974 -0.0277 -0.0084 -0.1540
  123OSM    C2F13072   4.735   6.322   7.124 -0.3672  0.0250  0.8252
  123OSM    H2F13073   4.789   6.228   7.099 -1.6105 -0.5332  0.1510
  123OSM    H2G13074   4.692   6.302   7.225  1.6708 -0.2628  1.7018
  123OSM    C3F13075   4.818   6.441   7.151  0.0528 -0.4282  0.4748
  123OSM    H3F13076   4.759   6.535   7.156  0.9478  0.1637  0.1608
  123OSM    H3G13077   4.885   6.462   7.064  0.9567  1.2256  1.5099
  123OSM    C4F13078   4.908   6.431   7.281 -0.1047 -0.4165 -0.3293
  123OSM    H4F13079   4.976   6.517   7.266 -0.1733 -0.6984 -2.6644
  123OSM    H4G13080   4.970   6.340   7.295  1.7459  0.9684  0.7428
  123OSM    C5F13081   4.840   6.456   7.418 -0.5188 -0.2059 -0.3291
  123OSM    H5F13082   4.760   6.379   7.433 -0.6545  0.0791  0.4498
  123OSM    H5G13083   4.792   6.556   7.413  1.4941  0.7457 -2.3661
  123OSM    C6F13084   4.939   6.452   7.536 -0.8172 -0.4432  0.3568
  123OSM    H6F13085   5.022   6.518   7.504 -0.9129 -1.1757 -1.5170
  123OSM    H6G13086   4.968   6.345   7.551 -4.3055 -1.5671  0.0159
  123OSM    C7F13087   4.869   6.520   7.654 -0.0027  0.3183 -0.6318
  123OSM    H7F13088   4.763   6.486   7.655 -0.1106  0.5532  1.3949
  123OSM    H7G13089   4.861   6.624   7.618  2.0300  1.0755  0.9009
  123OSM    C8F13090   4.950   6.506   7.784 -0.4852  0.6477 -0.2226
  123OSM    H8F13091   4.942   6.600   7.843 -2.5548  0.4556 -0.0943
  123OSM    H8G13092   5.059   6.493   7.769 -0.3275  0.8947  0.6672
  123OSM    C9F13093   4.901   6.385   7.854 -0.2940 -0.7389  0.3920
  123OSM    H9F13094   4.916   6.288   7.804 -0.3958 -0.2404 -0.6227
  123OSM   C10F13095   4.859   6.382   7.982 -0.1902  0.3455  0.7115
  123OSM   H10F13096   4.823   6.289   8.027 -3.8588  0.5693 -1.3217
  123OSM   C11F13097   4.860   6.496   8.081 -0.2302 -0.7094  0.5002
  123OSM   H11F13098   4.756   6.533   8.097 -0.5632 -0.9236 -1.0096
  123OSM   H11G13099   4.914   6.582   8.036 -1.1238 -0.5445 -0.3109
  123OSM   C12F13100   4.916   6.459   8.210  0.1795  0.2172 -0.6080
  123OSM   H12F13101   4.856   6.377   8.255  0.1468  0.5476 -0.0442
  123OSM   H12G13102   4.904   6.548   8.275  1.5945 -1.1149  1.5783
  123OSM   C13F13103   5.059   6.400   8.219 -0.5264 -0.0283  0.4355
  123OSM   H13F13104   5.126   6.473   8.169  2.1220 -1.7144  1.2428
  123OSM   H13G13105   5.082   6.307   8.161 -1.0819 -0.8819  1.5440
  123OSM   C14F13106   5.097   6.380   8.367 -0.2671  0.0027 -0.1859
  123OSM   H14F13107   5.068   6.474   8.418  0.8004  0.0826  0.3132
  123OSM   H14G13108   5.208   6.371   8.371 -0.0893  2.1684  1.7665
  123OSM   C15F13109   5.023   6.266   8.435 -0.6577 -0.2553 -0.8351
  123OSM   H15F13110   5.049   6.170   8.385  0.8077 -0.4403  0.2264
  123OSM   H15G13111   4.913   6.282   8.433 -0.7278 -0.5872  0.2047
  123OSM   C16F13112   5.080   6.258   8.581  0.0947 -0.1773 -0.0093
  123OSM   H16F13113   5.188   6.283   8.576 -0.3654  1.8552 -0.7982
  123OSM   H16G13114   5.063   6.162   8.634 -1.6344  1.0853  1.8841
  123OSM   C17F13115   5.012   6.357   8.682 -0.3743  0.0611 -0.6193
  123OSM   H17F13116   4.906   6.324   8.690  0.2206 -2.1299 -0.9756
  123OSM   H17G13117   5.015   6.460   8.641  1.3385  0.0817 -0.4826
  123OSM   C18F13118   5.081   6.370   8.819  0.1643  1.1898  0.0614
  123OSM   H18F13119   5.165   6.443   8.824  0.1886  1.2655 -1.1087
  123OSM   H18G13120   5.109   6.273   8.866  1.1074  1.6675  0.5175
  123OSM   H18H13121   5.012   6.410   8.897 -0.4253  2.1811 -0.9363
  124OSM      N13122   3.928   3.194   6.283  0.1474  0.5759 -0.5229
  124OSM    C1513123   4.026   3.204   6.171 -0.2079  0.1253  0.2222
  124OSM   H15A13124   4.023   3.302   6.124 -1.3518  0.8753  1.7729
  124OSM   H15B13125   4.029   3.115   6.110  0.3678  0.2813  0.0129
  124OSM   H15C13126   4.128   3.195   6.207  0.6533  0.2882 -1.9745
  124OSM    C1413127   3.961   3.300   6.385  0.3184 -0.8585 -0.2916
  124OSM   H14A13128   3.976   3.401   6.351  0.1056  0.2966  2.7653
  124OSM   H14B13129   4.055   3.273   6.432  0.7703 -3.0958 -2.2707
  124OSM   H14C13130   3.884   3.311   6.460 -1.2026 -1.6642 -1.6819
  124OSM    C1313131   3.779   3.211   6.243 -0.5098  0.5225  0.1049
  124OSM   H13A13132   3.757   3.303   6.191 -1.9290 -1.6791 -3.5855
  124OSM   H13B13133   3.707   3.203   6.324  0.5485  0.7451  1.0903
  124OSM   H13C13134   3.750   3.139   6.167 -2.6152  1.2087  0.1993
  124OSM    C1213135   3.951   3.060   6.354  0.0748 -0.3316 -0.6936
  124OSM   H12A13136   3.881   3.046   6.435  1.0154  0.1027  0.2080
  124OSM   H12B13137   4.047   3.064   6.403  0.5606 -1.6828 -1.4769
  124OSM    C1113138   3.949   2.932   6.255 -0.1597  0.4039 -0.4207
  124OSM   H11A13139   3.850   2.927   6.204 -0.6158 -0.4770  0.5179
  124OSM   H11B13140   3.943   2.849   6.329  0.9536 -1.5025 -2.3566
  124OSM      P13141   4.103   2.792   6.092 -0.1100  0.2162 -0.0981
  124OSM    O1313142   3.987   2.727   6.035 -0.1625  0.3907  0.0383
  124OSM    O1413143   4.219   2.822   6.006  0.0000  0.3717  0.0723
  124OSM    O1113144   4.147   2.727   6.226 -0.3323  0.0576  0.1151
  124OSM    O1213145   4.055   2.926   6.162  0.1164  0.5010  0.4159
  124OSM    C1S13146   4.251   2.772   6.306  0.4379  0.1369  0.0442
  124OSM    H1S13147   4.272   2.879   6.289  1.8056 -0.2071 -0.5714
  124OSM    H1T13148   4.342   2.716   6.275  0.8874 -0.6558  2.5976
  124OSM     NF13149   4.333   2.774   6.545 -0.0083  0.1415  0.7802
  124OSM    HNF13150   4.385   2.693   6.570  1.4122  0.2461 -1.5324
  124OSM    C2S13151   4.228   2.732   6.458 -0.5528  0.5550  0.0685
  124OSM    H2S13152   4.136   2.788   6.487 -1.8524 -0.6428 -1.5892
  124OSM    C3S13153   4.199   2.575   6.469  0.0559  0.4842  0.0530
  124OSM    H3S13154   4.293   2.522   6.442 -0.6233 -1.0502  0.5509
  124OSM     O313155   4.090   2.529   6.386  0.5750  0.7190  0.0072
  124OSM    HO313156   4.082   2.598   6.320 -2.0582 -0.6846 -1.2975
  124OSM    C4S13157   4.176   2.544   6.612  0.8910  0.5410  0.5633
  124OSM    H4S13158   4.265   2.544   6.676  1.2723 -0.2392  0.0534
  124OSM    C5S13159   4.052   2.510   6.666 -0.6242  0.0038 -0.5197
  124OSM    H5S13160   3.970   2.506   6.592 -1.0915 -1.1693  0.0237
  124OSM    C6S13161   4.026   2.464   6.806  0.1748 -0.1802 -1.1557
  124OSM    H6S13162   3.934   2.404   6.816 -0.5371  1.1251  0.6293
  124OSM    H6T13163   4.008   2.546   6.879 -0.1327  0.6776 -2.1528
  124OSM    C7S13164   4.143   2.389   6.869 -0.0913  0.4177  0.1588
  124OSM    H7S13165   4.244   2.435   6.866  0.6148 -0.9842  1.2749
  124OSM    H7T13166   4.152   2.297   6.807 -0.3876  1.3372 -1.3063
  124OSM    C8S13167   4.106   2.341   7.009  0.0431  0.2977  0.1425
  124OSM    H8S13168   3.996   2.330   7.025  0.4055 -0.3335  2.6249
  124OSM    H8T13169   4.148   2.419   7.076  0.0325 -0.6879  1.3330
  124OSM    C9S13170   4.172   2.216   7.052  0.1208 -0.1401  0.1620
  124OSM    H9S13171   4.278   2.222   7.086 -0.0796  1.5894  0.6084
  124OSM    H9T13172   4.168   2.130   6.983  1.3328 -1.1004  1.2444
  124OSM   C10S13173   4.110   2.161   7.178  0.5608  0.4105 -0.3148
  124OSM   H10S13174   4.153   2.058   7.178 -1.1474 -0.3525  0.0719
  124OSM   H10T13175   4.000   2.148   7.171  0.2243  2.6604  0.2182
  124OSM   C11S13176   4.138   2.245   7.301  0.1145  0.3736 -0.5960
  124OSM   H11S13177   4.095   2.345   7.277  2.0674  1.1487 -1.0920
  124OSM   H11T13178   4.247   2.267   7.312 -0.5539  3.4167  1.2353
  124OSM   C12S13179   4.077   2.193   7.432  0.0669  0.2489  0.0980
  124OSM   H12S13180   4.126   2.096   7.455  0.5369 -0.3941 -3.0586
  124OSM   H12T13181   3.966   2.184   7.426  0.0757  0.9539 -2.2263
  124OSM   C13S13182   4.099   2.283   7.555  0.0107 -0.6313 -0.4402
  124OSM   H13S13183   4.027   2.366   7.538 -2.6731 -2.1659  2.3630
  124OSM   H13T13184   4.202   2.325   7.549 -0.0618 -0.5356 -1.0834
  124OSM   C14S13185   4.065   2.213   7.688 -0.4434 -0.4410  0.2590
  124OSM   H14S13186   3.963   2.170   7.681 -1.5919  2.1051  0.2681
  124OSM   H14T13187   4.073   2.292   7.766  0.4196 -0.2039 -0.0606
  124OSM   C15S13188   4.163   2.108   7.735  0.0179 -0.3275  0.3308
  124OSM   H15S13189   4.265   2.151   7.748  0.2129 -0.4521 -0.6872
  124OSM   H15T13190   4.167   2.025   7.661  0.6468 -1.8215  1.9712
  124OSM   C16S13191   4.122   2.032   7.873 -0.2735 -0.4997  0.6966
  124OSM   H16S13192   4.199   1.954   7.890  2.9051  2.7267  2.5025
  124OSM   H16T13193   4.017   1.998   7.856 -1.9776  3.5909  1.8065
  124OSM   C17S13194   4.137   2.125   7.999  0.6505  0.2893 -0.2740
  124OSM   H17S13195   4.051   2.192   8.018  1.1514  0.7241  0.5164
  124OSM   H17T13196   4.222   2.194   7.979  1.1162  0.7998  2.9061
  124OSM   C18S13197   4.153   2.044   8.133 -0.0573 -0.1172 -0.1704
  124OSM   H18S13198   4.166   2.112   8.221 -0.0298 -1.0544  0.5637
  124OSM   H18T13199   4.247   1.988   8.116 -0.0743 -0.5562  1.0811
  124OSM   H18U13200   4.071   1.979   8.171  0.6409 -0.4493  0.8237
  124OSM    C1F13201   4.364   2.905   6.564 -0.7596  0.6588 -0.1453
  124OSM     OF13202   4.312   3.002   6.512  0.2221  0.2086  0.4017
  124OSM    C2F13203   4.483   2.928   6.653 -0.4737  0.0065  0.2730
  124OSM    H2F13204   4.526   3.028   6.629 -2.1872  0.6279 -0.3464
  124OSM    H2G13205   4.551   2.841   6.640 -1.3741 -0.4518 -1.6184
  124OSM    C3F13206   4.450   2.954   6.798  0.0778 -0.6966 -0.2953
  124OSM    H3F13207   4.383   2.874   6.836 -1.7165  1.3782  1.1244
  124OSM    H3G13208   4.381   3.040   6.793  2.1383  1.0780  0.2639
  124OSM    C4F13209   4.569   2.986   6.886 -1.2713  0.0593  0.3780
  124OSM    H4F13210   4.532   3.029   6.982 -0.4347  0.0327  0.7183
  124OSM    H4G13211   4.639   3.063   6.849 -1.1606 -0.6792 -1.0213
  124OSM    C5F13212   4.640   2.857   6.935 -0.1429 -0.6715  0.0050
  124OSM    H5F13213   4.696   2.825   6.844 -0.8964  0.2321 -0.7897
  124OSM    H5G13214   4.572   2.772   6.957  0.4059 -1.5073 -1.4198
  124OSM    C6F13215   4.739   2.867   7.054  0.0404 -0.8908 -0.8898
  124OSM    H6F13216   4.793   2.963   7.041  1.4816 -1.6002 -0.4003
  124OSM    H6G13217   4.806   2.778   7.047 -1.5549 -2.4510  1.8369
  124OSM    C7F13218   4.663   2.854   7.188  0.2618  0.1166  0.3449
  124OSM    H7F13219   4.594   2.770   7.166 -0.0041  0.4520 -0.1175
  124OSM    H7G13220   4.594   2.940   7.205  0.0303 -0.0091  0.0513
  124OSM    C8F13221   4.740   2.838   7.314 -0.2810 -0.0097 -0.0391
  124OSM    H8F13222   4.810   2.923   7.325  0.5056 -0.7165  0.5914
  124OSM    H8G13223   4.802   2.748   7.294 -0.2940  0.1138 -0.6480
  124OSM    C9F13224   4.666   2.825   7.439  0.4854 -0.1600 -0.5390
  124OSM    H9F13225   4.572   2.768   7.439  0.8300 -0.7714  0.5789
  124OSM   C10F13226   4.706   2.881   7.555  0.3022 -0.0531 -0.3252
  124OSM   H10F13227   4.638   2.873   7.641 -0.1300  3.1380 -0.2637
  124OSM   C11F13228   4.831   2.958   7.589  0.1231 -0.2361  0.5880
  124OSM   H11F13229   4.798   3.058   7.627 -1.4081  0.1198 -1.4642
  124OSM   H11G13230   4.889   2.982   7.497 -0.7923 -1.7157 -0.4196
  124OSM   C12F13231   4.925   2.885   7.688  0.0447 -0.3089 -1.1880
  124OSM   H12F13232   4.869   2.893   7.783 -0.4210  1.3871 -1.5692
  124OSM   H12G13233   5.010   2.955   7.702 -0.8858  0.5151  0.7232
  124OSM   C13F13234   4.972   2.746   7.654  0.0376 -0.8061  0.1347
  124OSM   H13F13235   5.059   2.757   7.585  0.5556  0.2506  0.9302
  124OSM   H13G13236   4.897   2.681   7.603 -1.9809  2.0516 -0.7491
  124OSM   C14F13237   5.043   2.672   7.775  0.6274 -0.7474  0.0496
  124OSM   H14F13238   4.962   2.617   7.828  1.4645 -2.1551 -0.0873
  124OSM   H14G13239   5.097   2.742   7.841  2.4556 -0.3333 -1.7747
  124OSM   C15F13240   5.145   2.573   7.710  0.6622  0.8697  0.1567
  124OSM   H15F13241   5.230   2.636   7.674  0.4890  0.5083 -0.9304
  124OSM   H15G13242   5.094   2.525   7.623 -0.2601  2.6028 -0.3156
  124OSM   C16F13243   5.207   2.473   7.808  0.2160 -0.5177  0.2560
  124OSM   H16F13244   5.135   2.433   7.883  0.7228 -1.3193  0.3213
  124OSM   H16G13245   5.276   2.524   7.878 -0.5989  0.3326  0.4617
  124OSM   C17F13246   5.288   2.368   7.736 -0.2138  0.6460  0.3221
  124OSM   H17F13247   5.355   2.422   7.666 -0.2330  0.2596  0.0005
  124OSM   H17G13248   5.217   2.298   7.686  2.0338 -0.4977 -1.4969
  124OSM   C18F13249   5.376   2.295   7.836  0.1088 -0.2495  0.0584
  124OSM   H18F13250   5.439   2.367   7.892 -0.6337  0.4897 -0.0368
  124OSM   H18G13251   5.441   2.226   7.778 -1.1148 -0.8998 -0.5840
  124OSM   H18H13252   5.329   2.244   7.923  3.8185 -0.1774  2.3256
  125OSM      N13253   0.661   0.053   6.108 -0.0671 -0.0981 -0.6235
  125OSM    C1513254   0.768   0.075   6.008 -0.0635  0.0052 -0.0723
  125OSM   H15A13255   0.844   0.120   6.069  0.6372 -1.5259  0.2232
  125OSM   H15B13256   0.731   0.137   5.927  0.2634  0.0101 -0.2188
  125OSM   H15C13257   0.797  -0.015   5.957 -0.5254 -1.0461  1.4642
  125OSM    C1413258   0.545  -0.007   6.033  0.4538  0.6962 -0.2035
  125OSM   H14A13259   0.577  -0.104   5.996  0.3618  1.1618 -1.5668
  125OSM   H14B13260   0.506   0.046   5.947  0.2799 -1.0066 -1.2327
  125OSM   H14C13261   0.462  -0.031   6.098  1.0476 -1.4235 -0.1306
  125OSM    C1313262   0.702  -0.047   6.212  0.3005 -0.5396  0.6050
  125OSM   H13A13263   0.621  -0.060   6.282 -1.3783 -0.4860 -1.2250
  125OSM   H13B13264   0.785  -0.007   6.268  0.7863  0.1302 -0.5591
  125OSM   H13C13265   0.735  -0.139   6.164  2.0685  0.2152  0.3234
  125OSM    C1213266   0.620   0.183   6.175  0.7612  0.2980  1.1105
  125OSM   H12A13267   0.538   0.161   6.242  2.3318  1.6971  3.6911
  125OSM   H12B13268   0.579   0.245   6.097  2.1639 -1.6923 -1.3545
  125OSM    C1113269   0.708   0.273   6.261  0.5481  0.5302 -0.5519
  125OSM   H11A13270   0.733   0.237   6.363  2.0009  1.5163 -0.5294
  125OSM   H11B13271   0.645   0.361   6.290  0.8005  0.8029 -0.8253
  125OSM      P13272   0.819   0.406   6.070  0.1877 -0.2805  0.0770
  125OSM    O1313273   0.919   0.365   5.971 -0.0977 -0.2360  0.4295
  125OSM    O1413274   0.681   0.435   6.023  0.2339  0.1416  0.2404
  125OSM    O1113275   0.875   0.537   6.137  0.0994  0.2404 -0.0057
  125OSM    O1213276   0.825   0.307   6.188  0.3150 -0.3002  0.0113
  125OSM    C1S13277   0.815   0.596   6.254  0.2413 -0.3428  0.2768
  125OSM    H1S13278   0.705   0.577   6.252  0.3385 -0.8543 -1.2605
  125OSM    H1T13279   0.827   0.706   6.261 -1.0085 -0.2399  1.2835
  125OSM     NF13280   0.807   0.620   6.498  0.1918 -0.7610  0.2839
  125OSM    HNF13281   0.852   0.706   6.519 -1.4247  0.2701 -0.2447
  125OSM    C2S13282   0.879   0.546   6.391 -0.3804  0.1242  0.2211
  125OSM    H2S13283   0.871   0.436   6.404  1.1915 -0.4207 -2.6710
  125OSM    C3S13284   1.036   0.565   6.393  0.8933 -0.3840  0.7381
  125OSM    H3S13285   1.033   0.676   6.384 -1.3644 -0.4218  0.2749
  125OSM     O313286   1.100   0.500   6.283  0.1865 -0.4475  0.2919
  125OSM    HO313287   1.023   0.453   6.251 -0.7109 -0.5009  2.4302
  125OSM    C4S13288   1.086   0.520   6.532 -0.5263 -0.0121  0.6922
  125OSM    H4S13289   1.088   0.600   6.608  0.0738 -0.1044  0.7779
  125OSM    C5S13290   1.120   0.396   6.573  0.4166 -0.0070  0.2903
  125OSM    H5S13291   1.126   0.317   6.497  1.8418  0.5440 -0.1911
  125OSM    C6S13292   1.174   0.368   6.712 -0.1784 -0.4358 -0.3859
  125OSM    H6S13293   1.285   0.366   6.707 -0.1001 -2.1568  1.0239
  125OSM    H6T13294   1.156   0.263   6.746  3.6568 -0.8102  0.9304
  125OSM    C7S13295   1.140   0.463   6.829 -0.1293  0.4627 -0.2250
  125OSM    H7S13296   1.038   0.506   6.829 -0.6423 -0.7111 -0.1102
  125OSM    H7T13297   1.214   0.545   6.819  1.8900 -1.1892  0.4634
  125OSM    C8S13298   1.177   0.394   6.962  0.7773  0.5065 -1.0831
  125OSM    H8S13299   1.285   0.375   6.948  0.8579  1.4257 -1.8469
  125OSM    H8T13300   1.118   0.300   6.970 -0.1241  1.1712  0.4604
  125OSM    C9S13301   1.141   0.489   7.086 -0.1646  0.3984 -0.4513
  125OSM    H9S13302   1.030   0.500   7.091 -0.3092 -1.2862  1.1498
  125OSM    H9T13303   1.197   0.583   7.065 -0.8871  1.0090  0.2988
  125OSM   C10S13304   1.195   0.439   7.227  0.7235 -0.1739  0.4767
  125OSM   H10S13305   1.306   0.447   7.221  0.6756 -0.7719 -2.2245
  125OSM   H10T13306   1.170   0.334   7.255  0.3146  0.4284  2.5414
  125OSM   C11S13307   1.141   0.532   7.336 -0.3268 -0.0048 -0.3703
  125OSM   H11S13308   1.031   0.540   7.330 -0.3393 -0.5647 -0.8670
  125OSM   H11T13309   1.189   0.633   7.328  0.5125 -0.0167  2.8716
  125OSM   C12S13310   1.187   0.478   7.473 -0.4638  0.0494 -0.6447
  125OSM   H12S13311   1.296   0.498   7.485 -0.6431  0.8104 -0.2158
  125OSM   H12T13312   1.174   0.368   7.466  2.0819 -0.4929  1.3147
  125OSM   C13S13313   1.110   0.541   7.588  0.1488  0.1537  0.5639
  125OSM   H13S13314   1.013   0.488   7.582  1.2476 -1.8097 -2.3364
  125OSM   H13T13315   1.104   0.649   7.567  0.9026  0.6517  2.6544
  125OSM   C14S13316   1.184   0.520   7.717  0.0268  0.7778 -0.0890
  125OSM   H14S13317   1.290   0.541   7.692  0.2141  0.6356  0.5731
  125OSM   H14T13318   1.174   0.411   7.738  0.1638  0.2690 -2.3574
  125OSM   C15S13319   1.122   0.595   7.833 -0.1780  0.6105  0.6652
  125OSM   H15S13320   1.032   0.532   7.851  1.9701 -2.4232  1.5724
  125OSM   H15T13321   1.096   0.698   7.800 -2.0251  0.6146  1.9654
  125OSM   C16S13322   1.235   0.596   7.939  0.5858 -0.0954  0.1069
  125OSM   H16S13323   1.300   0.681   7.910 -0.7450  0.6041 -0.9098
  125OSM   H16T13324   1.292   0.500   7.939  0.0170 -0.4557 -1.4535
  125OSM   C17S13325   1.168   0.614   8.079  0.0170  0.4194 -0.2007
  125OSM   H17S13326   1.112   0.521   8.105 -0.0273 -0.0708 -1.9034
  125OSM   H17T13327   1.098   0.700   8.075 -1.4458 -0.5782  1.8968
  125OSM   C18S13328   1.265   0.653   8.192 -0.5855  0.0237  0.0585
  125OSM   H18S13329   1.293   0.758   8.173 -1.4803  0.2355 -0.1029
  125OSM   H18T13330   1.346   0.580   8.170 -0.8661 -0.0833 -0.6416
  125OSM   H18U13331   1.222   0.633   8.292  0.8209 -0.6317  0.5609
  125OSM    C1F13332   0.676   0.615   6.526  0.6629  0.6869  0.3175
  125OSM     OF13333   0.597   0.535   6.472  0.1663  0.0157  0.2530
  125OSM    C2F13334   0.624   0.705   6.635 -0.3508 -0.7594 -0.1562
  125OSM    H2F13335   0.666   0.806   6.614  0.3015 -0.9039  0.4145
  125OSM    H2G13336   0.660   0.672   6.734  0.8624  3.2259  0.9297
  125OSM    C3F13337   0.471   0.722   6.637 -0.2479  0.6833 -0.3184
  125OSM    H3F13338   0.435   0.623   6.673  0.6756  0.3838 -0.1886
  125OSM    H3G13339   0.422   0.733   6.538 -1.3357  0.3727  0.1701
  125OSM    C4F13340   0.419   0.833   6.724  0.4887 -0.2801 -0.0202
  125OSM    H4F13341   0.317   0.859   6.689  0.3502 -0.7425  0.0375
  125OSM    H4G13342   0.483   0.924   6.726 -0.5356  0.4481  0.2284
  125OSM    C5F13343   0.401   0.789   6.869  0.1270 -0.1705  0.4221
  125OSM    H5F13344   0.452   0.691   6.877  0.5794 -0.2701 -2.4581
  125OSM    H5G13345   0.291   0.776   6.879 -0.2684  2.7141  0.7390
  125OSM    C6F13346   0.462   0.884   6.967 -0.2285  0.5824 -0.1550
  125OSM    H6F13347   0.439   0.990   6.947 -1.7631 -0.1658 -2.8615
  125OSM    H6G13348   0.573   0.884   6.965 -0.1708 -1.2053  0.6505
  125OSM    C7F13349   0.416   0.862   7.110  0.4880 -0.0714  0.7015
  125OSM    H7F13350   0.456   0.940   7.178 -0.5785  1.1881 -0.0726
  125OSM    H7G13351   0.457   0.764   7.144  0.6768  0.0182  0.7302
  125OSM    C8F13352   0.268   0.846   7.129 -0.1196  0.0657 -0.9143
  125OSM    H8F13353   0.257   0.836   7.240  0.6215 -3.7090 -1.0153
  125OSM    H8G13354   0.231   0.745   7.100 -1.2568  0.8363 -2.2046
  125OSM    C9F13355   0.185   0.957   7.069  0.0680  0.1895  0.2064
  125OSM    H9F13356   0.229   1.002   6.978  0.9883  1.1595  1.1089
  125OSM   C10F13357   0.073   1.015   7.129  0.1992  0.0656  0.3022
  125OSM   H10F13358   0.031   1.099   7.072  2.2011  0.8102 -0.1801
  125OSM   C11F13359   0.011   0.958   7.251  0.1095  0.6060 -0.3920
  125OSM   H11F13360   0.042   0.854   7.273 -1.2462  0.2024 -0.3078
  125OSM   H11G13361  -0.097   0.963   7.273  0.6580  3.2143  2.4329
  125OSM   C12F13362   0.072   1.056   7.360  0.3925 -0.2273  0.2899
  125OSM   H12F13363   0.183   1.058   7.362  0.3974  0.6331  2.7618
  125OSM   H12G13364   0.046   1.013   7.459  0.9087 -0.8968  0.1428
  125OSM   C13F13365   0.024   1.206   7.361  0.6802  0.1099 -0.1697
  125OSM   H13F13366  -0.086   1.213   7.345  0.2968 -1.2928  1.5378
  125OSM   H13G13367   0.082   1.253   7.278 -0.9617 -1.9473 -2.6656
  125OSM   C14F13368   0.059   1.278   7.498  0.3528 -0.3577  0.4876
  125OSM   H14F13369   0.167   1.263   7.519  0.1753  0.6903  2.3435
  125OSM   H14G13370   0.013   1.214   7.576  1.0010 -0.4367  0.8082
  125OSM   C15F13371   0.014   1.426   7.497  0.1231  0.6834 -0.5224
  125OSM   H15F13372  -0.095   1.421   7.479 -0.2907 -0.8277  1.9402
  125OSM   H15G13373   0.067   1.485   7.419  1.6761 -0.3003 -0.2704
  125OSM   C16F13374   0.024   1.488   7.642 -0.0373 -0.0340  0.3305
  125OSM   H16F13375   0.129   1.491   7.676  0.4626  0.3089 -1.1756
  125OSM   H16G13376  -0.033   1.422   7.711  1.8680 -0.9407  1.0889
  125OSM   C17F13377  -0.025   1.634   7.652 -0.2125 -0.5474 -0.4973
  125OSM   H17F13378  -0.024   1.667   7.758 -0.8376  0.4673 -0.7961
  125OSM   H17G13379  -0.126   1.630   7.605 -0.6937  1.2567  0.2952
  125OSM   C18F13380   0.068   1.738   7.584 -0.5046  0.1677  0.1023
  125OSM   H18F13381   0.081   1.728   7.474  0.9354 -1.0734  0.3409
  125OSM   H18G13382   0.172   1.736   7.623 -0.2883 -0.7349 -0.4732
  125OSM   H18H13383   0.028   1.837   7.614 -0.7761  0.1481 -0.1951
  126OSM      N13384   4.339   4.901   6.632 -0.1632  0.6742 -0.2547
  126OSM    C1513385   4.255   4.811   6.549 -0.1228  0.2165  0.0919
  126OSM   H15A13386   4.253   4.715   6.598  0.0139 -0.0144 -0.3446
  126OSM   H15B13387   4.299   4.795   6.452  0.8843  1.0610  0.3897
  126OSM   H15C13388   4.152   4.841   6.559 -0.5185 -0.9036 -0.5146
  126OSM    C1413389   4.278   4.912   6.760 -0.1901  0.0309 -0.5599
  126OSM   H14A13390   4.185   4.968   6.766  0.7157  1.5468  0.1541
  126OSM   H14B13391   4.336   4.978   6.824 -0.0922 -1.7731  1.3161
  126OSM   H14C13392   4.273   4.812   6.800  1.6931  0.7389  1.6753
  126OSM    C1313393   4.477   4.838   6.646  0.2004 -0.0938 -0.0324
  126OSM   H13A13394   4.521   4.829   6.548 -0.2666  1.0598 -0.3503
  126OSM   H13B13395   4.470   4.739   6.690 -1.0332  0.2994  0.6910
  126OSM   H13C13396   4.546   4.896   6.706 -0.3843  0.2092  0.3577
  126OSM    C1213397   4.350   5.039   6.576  0.4861 -0.3555 -0.2978
  126OSM   H12A13398   4.250   5.075   6.558  1.5257  2.4356 -0.9746
  126OSM   H12B13399   4.410   5.034   6.486  0.3587 -2.4828 -0.3241
  126OSM    C1113400   4.408   5.146   6.671 -0.6336  0.3513  0.3681
  126OSM   H11A13401   4.352   5.165   6.765  1.0986  0.0075  1.5284
  126OSM   H11B13402   4.399   5.239   6.610 -0.2512  0.8945  1.1177
  126OSM      P13403   4.671   5.174   6.610  0.2163  0.1131 -0.0365
  126OSM    O1313404   4.796   5.118   6.658 -0.1788 -0.0513 -0.5492
  126OSM    O1413405   4.643   5.155   6.466  0.7072  0.7549  0.0766
  126OSM    O1113406   4.659   5.323   6.635  0.6206  0.1374 -1.0777
  126OSM    O1213407   4.545   5.115   6.692  0.4456  0.1219 -0.2694
  126OSM    C1S13408   4.631   5.388   6.760 -0.9925  0.0791 -0.3409
  126OSM    H1S13409   4.551   5.330   6.812 -0.5813 -0.3626 -0.1948
  126OSM    H1T13410   4.594   5.492   6.750  0.0103  0.4322 -0.5216
  126OSM     NF13411   4.712   5.438   6.997 -0.6200  0.2313 -0.2699
  126OSM    HNF13412   4.722   5.533   7.027  2.9855  0.0945 -0.5575
  126OSM    C2S13413   4.756   5.407   6.854 -0.1456  0.1411 -0.0799
  126OSM    H2S13414   4.789   5.302   6.864 -2.0726 -0.4526  0.5128
  126OSM    C3S13415   4.861   5.498   6.784  0.1534 -0.4307  0.3459
  126OSM    H3S13416   4.815   5.597   6.766 -2.4310 -1.6728 -0.3073
  126OSM     O313417   4.902   5.440   6.658 -0.0624 -0.0968  0.3552
  126OSM    HO313418   4.841   5.366   6.656  1.6840 -1.6414 -2.6786
  126OSM    C4S13419   4.976   5.515   6.873 -0.4246 -0.3643  0.2490
  126OSM    H4S13420   4.981   5.613   6.922  0.5759  1.4181 -3.1568
  126OSM    C5S13421   5.074   5.427   6.902  0.1520  0.5014  0.2502
  126OSM    H5S13422   5.069   5.326   6.859  0.6112  1.0137 -1.0627
  126OSM    C6S13423   5.176   5.445   7.009 -0.2984  0.1344  0.0036
  126OSM    H6S13424   5.248   5.524   6.979 -0.4603  1.1065  1.9991
  126OSM    H6T13425   5.239   5.357   7.034 -0.8583  0.2681  2.0751
  126OSM    C7S13426   5.120   5.486   7.149  0.5895  0.2895 -0.1525
  126OSM    H7S13427   5.022   5.437   7.166  0.9918  0.3835  2.9849
  126OSM    H7T13428   5.122   5.597   7.157 -0.5207  0.2907  0.3156
  126OSM    C8S13429   5.216   5.435   7.257 -0.0676  0.6058 -0.3356
  126OSM    H8S13430   5.322   5.464   7.240 -0.0857  0.7933 -0.1464
  126OSM    H8T13431   5.214   5.326   7.241 -1.3134  0.2233  1.8972
  126OSM    C9S13432   5.178   5.462   7.406  0.1504  0.3161 -0.0877
  126OSM    H9S13433   5.086   5.405   7.428  0.9346 -0.9431  0.0290
  126OSM    H9T13434   5.150   5.570   7.411 -1.4991 -0.1059  0.1642
  126OSM   C10S13435   5.278   5.419   7.508 -0.1478 -0.1706  1.2942
  126OSM   H10S13436   5.381   5.456   7.486 -0.0581  0.4300  2.6330
  126OSM   H10T13437   5.278   5.308   7.501  1.3456 -0.1349  0.0283
  126OSM   C11S13438   5.263   5.461   7.654  0.3088  0.0128 -0.0797
  126OSM   H11S13439   5.158   5.444   7.685  1.4199 -2.1807  2.9665
  126OSM   H11T13440   5.292   5.568   7.653  0.5805 -0.0482 -1.7899
  126OSM   C12S13441   5.349   5.382   7.751 -0.3423 -1.1071 -0.0686
  126OSM   H12S13442   5.456   5.385   7.723 -0.4074  2.7113 -0.3207
  126OSM   H12T13443   5.314   5.276   7.756  2.2105 -1.9702  0.8501
  126OSM   C13S13444   5.336   5.441   7.896  0.7113 -0.4147 -0.3465
  126OSM   H13S13445   5.227   5.460   7.899  0.6834  0.0240 -2.7554
  126OSM   H13T13446   5.381   5.543   7.896  0.2185 -0.0801  2.9993
  126OSM   C14S13447   5.384   5.351   8.016  0.5048 -0.5308  0.2547
  126OSM   H14S13448   5.477   5.312   7.970  1.0621  1.5408 -0.5168
  126OSM   H14T13449   5.305   5.275   8.030 -1.2064  1.1224  0.0618
  126OSM   C15S13450   5.399   5.417   8.144 -0.5543  0.6121  0.0930
  126OSM   H15S13451   5.316   5.485   8.172 -0.3500  0.5137  0.9645
  126OSM   H15T13452   5.486   5.487   8.140 -2.3110  2.9716  0.4747
  126OSM   C16S13453   5.426   5.314   8.256 -0.3133 -0.0632 -0.0907
  126OSM   H16S13454   5.464   5.363   8.348 -1.0942 -1.3087  0.9237
  126OSM   H16T13455   5.504   5.249   8.212  2.2982  2.1128  0.9950
  126OSM   C17S13456   5.297   5.251   8.308  0.0950 -0.0384 -0.8166
  126OSM   H17S13457   5.313   5.164   8.374 -1.4307  0.2485 -0.0177
  126OSM   H17T13458   5.250   5.202   8.220 -0.1345  0.8691 -1.2124
  126OSM   C18S13459   5.188   5.350   8.359 -0.4328  0.1018 -0.6264
  126OSM   H18S13460   5.177   5.443   8.300  1.1942 -0.3153 -1.6629
  126OSM   H18T13461   5.209   5.369   8.467  0.2170 -1.5695 -0.4295
  126OSM   H18U13462   5.090   5.299   8.349 -0.1744 -0.5283 -0.0456
  126OSM    C1F13463   4.642   5.351   7.066  0.4070  0.0659 -0.3041
  126OSM     OF13464   4.644   5.234   7.040  0.1002  0.0948 -0.3705
  126OSM    C2F13465   4.575   5.410   7.184 -0.0718  0.0569 -0.2214
  126OSM    H2F13466   4.466   5.415   7.166  0.2076 -1.5565 -2.8221
  126OSM    H2G13467   4.611   5.516   7.184 -0.5233  0.2150  0.4804
  126OSM    C3F13468   4.619   5.331   7.312 -0.7271 -0.4051 -1.0156
  126OSM    H3F13469   4.726   5.359   7.321 -1.0894  0.5754  0.5108
  126OSM    H3G13470   4.615   5.222   7.289 -0.4186 -0.2962 -1.5816
  126OSM    C4F13471   4.547   5.372   7.441  1.0713  0.2581 -0.6934
  126OSM    H4F13472   4.439   5.352   7.426  1.4808 -3.6643  0.4770
  126OSM    H4G13473   4.572   5.479   7.459  0.2475  0.0812  1.9652
  126OSM    C5F13474   4.592   5.296   7.567  0.0245  0.1084  0.1391
  126OSM    H5F13475   4.702   5.305   7.581  0.1253  2.2962 -1.5015
  126OSM    H5G13476   4.566   5.190   7.551  3.0721 -0.6785 -0.0981
  126OSM    C6F13477   4.525   5.347   7.696  0.5151  0.5998  0.0268
  126OSM    H6F13478   4.429   5.394   7.665  1.7070  2.4571 -1.0625
  126OSM    H6G13479   4.592   5.427   7.735  0.5641  1.4243 -1.6243
  126OSM    C7F13480   4.522   5.242   7.800  0.0252 -0.0063  0.1280
  126OSM    H7F13481   4.625   5.201   7.796  0.8764  2.0510 -2.7503
  126OSM    H7G13482   4.440   5.170   7.778  0.9648 -1.9373  2.5541
  126OSM    C8F13483   4.508   5.323   7.937 -0.3604  0.2020 -0.0096
  126OSM    H8F13484   4.423   5.394   7.933 -1.9344 -1.5049  1.1062
  126OSM    H8G13485   4.598   5.385   7.957 -0.9777  1.3408 -0.6979
  126OSM    C9F13486   4.477   5.205   8.025  0.2006  0.0846  0.6790
  126OSM    H9F13487   4.391   5.147   7.987  2.0539 -1.2380 -1.8396
  126OSM   C10F13488   4.557   5.158   8.119  0.4061 -0.6822  0.0204
  126OSM   H10F13489   4.536   5.062   8.170  0.2153 -0.2595  0.7602
  126OSM   C11F13490   4.679   5.228   8.173 -0.3607 -0.5610 -0.0488
  126OSM   H11F13491   4.673   5.228   8.284  0.5724 -1.6050  0.0212
  126OSM   H11G13492   4.669   5.337   8.156  0.9167 -0.6011 -1.2146
  126OSM   C12F13493   4.799   5.143   8.136  0.2649  0.2416 -0.2610
  126OSM   H12F13494   4.885   5.212   8.144 -0.2112  1.0092 -1.5162
  126OSM   H12G13495   4.797   5.109   8.030  0.9967  0.4176 -0.3335
  126OSM   C13F13496   4.823   5.025   8.230  0.0126 -0.7984  0.5402
  126OSM   H13F13497   4.879   4.946   8.176  0.1678 -1.1589  1.2261
  126OSM   H13G13498   4.726   4.976   8.250  0.4774 -1.3111  1.6163
  126OSM   C14F13499   4.875   5.054   8.367 -0.4269 -0.0724 -0.3549
  126OSM   H14F13500   4.789   5.088   8.428  1.0991 -1.7252  2.9784
  126OSM   H14G13501   4.938   5.145   8.363  0.0408 -0.4159 -4.3824
  126OSM   C15F13502   4.945   4.941   8.438 -0.1310 -0.3502 -0.6005
  126OSM   H15F13503   5.023   4.894   8.373  1.0177  0.8549 -0.1363
  126OSM   H15G13504   4.864   4.867   8.457  0.5789 -1.5721 -2.0640
  126OSM   C16F13505   5.000   4.987   8.576 -0.3576 -0.0076  1.1497
  126OSM   H16F13506   4.923   5.037   8.637 -1.0160 -0.9803  1.1383
  126OSM   H16G13507   5.074   5.069   8.561 -1.3577  1.4456  3.6225
  126OSM   C17F13508   5.064   4.870   8.654 -0.6871  0.1459 -0.6867
  126OSM   H17F13509   5.123   4.816   8.576  0.5334 -0.9218  0.9075
  126OSM   H17G13510   4.983   4.814   8.705 -0.2165  0.6978  0.7134
  126OSM   C18F13511   5.160   4.923   8.761  0.5384  0.1557  0.3557
  126OSM   H18F13512   5.098   4.969   8.841  0.5201 -0.7893  0.8938
  126OSM   H18G13513   5.226   5.008   8.732 -0.2235  0.4383 -0.6141
  126OSM   H18H13514   5.215   4.839   8.808 -0.4212  0.2130  1.6226
  127OSM      N13515   3.909   0.186   6.136  0.2292 -0.4078  0.0085
  127OSM    C1513516   3.996   0.066   6.104  0.7632  0.3402 -0.4040
  127OSM   H15A13517   4.091   0.085   6.057  0.4496 -0.3962 -1.3832
  127OSM   H15B13518   3.932  -0.010   6.059  1.1901 -1.9102  2.4793
  127OSM   H15C13519   4.017   0.026   6.202 -1.6823 -1.2289 -0.4187
  127OSM    C1413520   3.999   0.291   6.202  0.2669 -0.4411 -0.4953
  127OSM   H14A13521   4.071   0.338   6.136  0.9788  0.1647  0.6871
  127OSM   H14B13522   4.052   0.249   6.286  1.4723  2.9933  0.6464
  127OSM   H14C13523   3.943   0.377   6.237  0.8225  0.5280 -1.8758
  127OSM    C1313524   3.857   0.234   6.006  0.0756 -0.1083  0.3295
  127OSM   H13A13525   3.935   0.254   5.933  1.2240 -1.8162  1.0229
  127OSM   H13B13526   3.798   0.322   6.027 -0.6379 -0.5645  0.2732
  127OSM   H13C13527   3.792   0.159   5.963 -1.6121  1.2738  0.3569
  127OSM    C1213528   3.791   0.155   6.234  0.7961  0.1502  0.3943
  127OSM   H12A13529   3.713   0.105   6.179  0.2440  1.9379 -0.5117
  127OSM   H12B13530   3.752   0.250   6.267 -0.2072  1.8127 -4.6664
  127OSM    C1113531   3.817   0.059   6.358 -0.5381 -0.4443  0.1845
  127OSM   H11A13532   3.725   0.072   6.418  0.6066  0.3397  1.8589
  127OSM   H11B13533   3.901   0.091   6.424 -1.3152  0.8147  0.6033
  127OSM      P13534   3.747  -0.178   6.255  0.3954 -0.0346  0.2435
  127OSM    O1313535   3.670  -0.116   6.143  0.2389  0.3827 -0.6856
  127OSM    O1413536   3.816  -0.302   6.218 -0.0917  0.2761  0.2337
  127OSM    O1113537   3.666  -0.216   6.387  0.1662 -0.9905 -0.1542
  127OSM    O1213538   3.847  -0.071   6.308 -0.5749 -0.3071 -0.4118
  127OSM    C1S13539   3.727  -0.227   6.518  0.0427 -0.1118 -0.0171
  127OSM    H1S13540   3.835  -0.206   6.505  0.0095  0.0671  0.0022
  127OSM    H1T13541   3.698  -0.327   6.556 -2.5782 -0.1164 -1.7764
  127OSM     NF13542   3.718  -0.154   6.745  0.2250 -0.0283 -0.2701
  127OSM    HNF13543   3.668  -0.224   6.796  0.0064 -1.1781 -2.0064
  127OSM    C2S13544   3.668  -0.119   6.618  0.1288  1.0506 -0.7670
  127OSM    H2S13545   3.711  -0.019   6.595  0.9277  0.7360 -0.7038
  127OSM    C3S13546   3.511  -0.127   6.603  0.5615  0.1570 -0.0370
  127OSM    H3S13547   3.481  -0.233   6.613  1.7351  0.0028  2.3982
  127OSM     O313548   3.471  -0.074   6.474 -0.2653 -0.1876  0.8229
  127OSM    HO313549   3.535  -0.120   6.420  0.4700  1.6752  0.0107
  127OSM    C4S13550   3.445  -0.045   6.715 -0.3055 -0.5025  0.9564
  127OSM    H4S13551   3.403  -0.104   6.798 -0.1166  1.2603  2.3715
  127OSM    C5S13552   3.435   0.093   6.719  0.1132  0.7279  0.1013
  127OSM    H5S13553   3.498   0.149   6.648  2.2586 -0.7970  0.7119
  127OSM    C6S13554   3.381   0.168   6.836  0.3298  0.3618  0.3006
  127OSM    H6S13555   3.277   0.193   6.807  0.4946  0.9859  0.2295
  127OSM    H6T13556   3.441   0.260   6.853  2.6140 -1.2779  1.6245
  127OSM    C7S13557   3.372   0.095   6.977  0.0533  0.1226 -1.1073
  127OSM    H7S13558   3.323  -0.004   6.963  1.6501 -1.0811  1.2875
  127OSM    H7T13559   3.311   0.161   7.042  0.6989 -0.0433 -0.3269
  127OSM    C8S13560   3.504   0.072   7.043 -0.4112  0.2234 -0.7112
  127OSM    H8S13561   3.560   0.161   7.078  0.9583 -1.3455  1.3438
  127OSM    H8T13562   3.567   0.013   6.972 -0.0606 -2.8132  1.8585
  127OSM    C9S13563   3.479  -0.015   7.168 -0.3924  0.6313 -0.5126
  127OSM    H9S13564   3.573  -0.049   7.217 -1.4499 -0.1391  1.0866
  127OSM    H9T13565   3.426  -0.101   7.121  0.3220  0.7701 -1.6079
  127OSM   C10S13566   3.383   0.037   7.278  0.4068  0.4356 -0.9232
  127OSM   H10S13567   3.278   0.039   7.241 -1.3410 -0.8189  3.3592
  127OSM   H10T13568   3.404   0.145   7.289  0.8842  0.2152  0.5874
  127OSM   C11S13569   3.394  -0.031   7.418 -0.2088 -0.0509 -0.4156
  127OSM   H11S13570   3.503  -0.034   7.441 -0.3406  2.9354  1.0410
  127OSM   H11T13571   3.358  -0.136   7.416 -0.6314  0.0266  1.1959
  127OSM   C12S13572   3.316   0.050   7.524  0.2037 -0.1046  0.0912
  127OSM   H12S13573   3.214   0.064   7.482  0.7870  2.6082 -0.6028
  127OSM   H12T13574   3.355   0.152   7.539  0.9389 -0.4390  0.5242
  127OSM   C13S13575   3.322  -0.015   7.661  0.2820 -0.0389 -0.1953
  127OSM   H13S13576   3.279   0.060   7.731 -0.1575  1.4193 -1.9603
  127OSM   H13T13577   3.429  -0.014   7.690  0.1352 -1.5306  0.4900
  127OSM   C14S13578   3.264  -0.156   7.680 -0.1636 -0.2311  0.0396
  127OSM   H14S13579   3.328  -0.230   7.628  0.8060  0.9819 -0.5404
  127OSM   H14T13580   3.166  -0.143   7.629 -1.3138 -2.9617  1.3701
  127OSM   C15S13581   3.261  -0.193   7.828  0.1931 -0.0146 -0.3535
  127OSM   H15S13582   3.184  -0.124   7.869  1.8099  0.6925  1.7000
  127OSM   H15T13583   3.360  -0.184   7.877 -0.5424  1.5069  0.9576
  127OSM   C16S13584   3.200  -0.331   7.848 -0.5594  0.3842 -0.5629
  127OSM   H16S13585   3.278  -0.394   7.896 -0.1095  2.3958  1.5269
  127OSM   H16T13586   3.181  -0.374   7.747 -2.1392  1.7709 -0.8924
  127OSM   C17S13587   3.072  -0.331   7.925 -0.0667 -0.1627 -0.3418
  127OSM   H17S13588   3.036  -0.436   7.923 -1.3857  0.2518  0.0244
  127OSM   H17T13589   2.993  -0.278   7.867 -0.4916 -2.6264 -2.1504
  127OSM   C18S13590   3.076  -0.269   8.069  0.2607  0.6651  0.7706
  127OSM   H18S13591   3.085  -0.160   8.048 -0.4492  0.3533 -1.4600
  127OSM   H18T13592   3.155  -0.307   8.138 -0.4548 -2.2807  0.1210
  127OSM   H18U13593   2.984  -0.297   8.124 -0.0788 -2.4629 -1.1409
  127OSM    C1F13594   3.845  -0.147   6.779 -0.7336  0.1614 -0.9187
  127OSM     OF13595   3.928  -0.102   6.698 -0.4320 -0.0316  0.1700
  127OSM    C2F13596   3.889  -0.201   6.912 -0.2993 -0.1119  0.4644
  127OSM    H2F13597   3.902  -0.311   6.913 -0.2928 -0.1098  0.7476
  127OSM    H2G13598   3.801  -0.177   6.975 -1.2179 -3.9234  0.8916
  127OSM    C3F13599   4.019  -0.138   6.962  0.5651 -0.3351  0.0466
  127OSM    H3F13600   4.020  -0.027   6.959  0.0399 -0.2790  1.5378
  127OSM    H3G13601   4.105  -0.177   6.904  1.4055 -0.0357  1.0675
  127OSM    C4F13602   4.044  -0.170   7.112 -0.9736 -0.4997  0.5887
  127OSM    H4F13603   4.048  -0.280   7.127  0.6540 -0.4004  1.0971
  127OSM    H4G13604   3.960  -0.130   7.173  0.4062 -0.3325  2.4789
  127OSM    C5F13605   4.176  -0.102   7.155  0.0341  0.2992 -0.1835
  127OSM    H5F13606   4.187   0.004   7.124  0.7372 -0.0184 -1.0417
  127OSM    H5G13607   4.254  -0.156   7.098  0.2427  0.5119 -0.1005
  127OSM    C6F13608   4.191  -0.118   7.308  0.0229  0.4605  0.6346
  127OSM    H6F13609   4.184  -0.226   7.333  1.4449  0.0232 -0.7103
  127OSM    H6G13610   4.112  -0.062   7.362 -1.4400  1.0140 -1.9158
  127OSM    C7F13611   4.323  -0.059   7.357 -0.1465  0.0491  0.7111
  127OSM    H7F13612   4.322   0.052   7.342  2.6411  0.2033  0.9950
  127OSM    H7G13613   4.414  -0.108   7.315  1.2073 -1.5089  4.9521
  127OSM    C8F13614   4.336  -0.084   7.512 -0.0091  0.2455 -0.1390
  127OSM    H8F13615   4.240  -0.061   7.561 -0.4391 -1.5359 -0.0559
  127OSM    H8G13616   4.411  -0.013   7.552  0.0979  0.3662 -0.5503
  127OSM    C9F13617   4.377  -0.225   7.536 -0.6058  0.0234  0.1299
  127OSM    H9F13618   4.359  -0.292   7.451  1.5895 -0.7228  0.1638
  127OSM   C10F13619   4.439  -0.274   7.648  0.2346  0.8347  0.2713
  127OSM   H10F13620   4.442  -0.384   7.659 -0.5473  0.8780  1.1180
  127OSM   C11F13621   4.484  -0.195   7.770  0.5852  0.2372  0.2652
  127OSM   H11F13622   4.508  -0.091   7.738 -3.5924  1.6381  1.0889
  127OSM   H11G13623   4.570  -0.247   7.818  0.6455 -2.0801 -2.1292
  127OSM   C12F13624   4.374  -0.173   7.872 -0.2518 -0.1272 -0.3127
  127OSM   H12F13625   4.280  -0.169   7.813 -0.7744 -1.5675  0.3789
  127OSM   H12G13626   4.399  -0.069   7.903 -1.1682  0.9657 -2.9443
  127OSM   C13F13627   4.371  -0.282   7.972  0.1832 -0.4693 -0.1959
  127OSM   H13F13628   4.474  -0.318   7.993  0.9093  0.6143 -1.6702
  127OSM   H13G13629   4.309  -0.361   7.926 -0.1141  0.5823 -1.6868
  127OSM   C14F13630   4.306  -0.238   8.113  0.6391 -0.1870 -0.1168
  127OSM   H14F13631   4.280  -0.332   8.168  1.2155  0.6187  1.6033
  127OSM   H14G13632   4.203  -0.203   8.090  1.0105  0.2865 -1.1030
  127OSM   C15F13633   4.388  -0.152   8.202  0.1407 -0.4410  0.1403
  127OSM   H15F13634   4.392  -0.049   8.162 -2.2185 -1.4994 -3.1575
  127OSM   H15G13635   4.493  -0.190   8.209  0.0137 -0.5387  3.1823
  127OSM   C16F13636   4.342  -0.143   8.348  0.0742 -0.4606 -0.7043
  127OSM   H16F13637   4.310  -0.243   8.385 -0.2958  0.3440  1.2456
  127OSM   H16G13638   4.255  -0.074   8.359  0.0819 -0.8128  2.1119
  127OSM   C17F13639   4.448  -0.081   8.446  0.6637  0.5181 -0.3648
  127OSM   H17F13640   4.469   0.017   8.400  2.0219  0.9025  1.0132
  127OSM   H17G13641   4.539  -0.144   8.442  0.1908 -0.1833 -0.2897
  127OSM   C18F13642   4.381  -0.075   8.588  0.5925  0.3738  0.4432
  127OSM   H18F13643   4.344  -0.170   8.631  0.0557  1.0388  1.4922
  127OSM   H18G13644   4.308   0.009   8.594  0.6658  0.4513  0.2559
  127OSM   H18H13645   4.462  -0.053   8.662  2.8925  1.8866 -2.3149
  128OSM      N13646   1.751   3.758   5.987  0.8217 -0.8494 -0.9341
  128OSM    C1513647   1.615   3.807   5.965  0.1497  0.2310 -0.2852
  128OSM   H15A13648   1.602   3.813   5.858  0.7178  0.7762 -0.3227
  128OSM   H15B13649   1.593   3.901   6.014 -0.5848 -0.9891  1.9127
  128OSM   H15C13650   1.536   3.740   5.998  1.1366 -0.1380  1.5054
  128OSM    C1413651   1.768   3.621   5.926  0.5252  0.5221 -0.2733
  128OSM   H14A13652   1.699   3.549   5.968  2.6182 -0.7251  1.2206
  128OSM   H14B13653   1.867   3.589   5.954  0.0900  0.4050  1.2202
  128OSM   H14C13654   1.750   3.617   5.820 -0.9717  0.0734 -0.0254
  128OSM    C1313655   1.849   3.846   5.929  0.9160  0.0245  0.1346
  128OSM   H13A13656   1.846   3.825   5.824 -0.8632  3.6124 -0.6916
  128OSM   H13B13657   1.952   3.830   5.958  1.4710  2.2376 -0.4912
  128OSM   H13C13658   1.817   3.947   5.945  1.1365 -0.1986  2.3506
  128OSM    C1213659   1.790   3.746   6.136  0.1289 -0.2743 -1.0484
  128OSM   H12A13660   1.723   3.679   6.187 -0.8080  0.6121 -1.0774
  128OSM   H12B13661   1.770   3.840   6.186  0.2575  0.0296 -1.5629
  128OSM    C1113662   1.938   3.699   6.159  0.5317 -0.1474  0.2427
  128OSM   H11A13663   1.953   3.728   6.265 -2.3055  0.4178  0.5569
  128OSM   H11B13664   2.020   3.754   6.108 -0.6965  1.4626 -0.0779
  128OSM      P13665   1.917   3.443   6.227  0.0229  0.1663  0.2946
  128OSM    O1313666   1.775   3.452   6.270 -0.3596 -0.1549 -0.3112
  128OSM    O1413667   1.965   3.313   6.172  0.4737 -0.6787  0.2264
  128OSM    O1113668   2.002   3.485   6.352  0.0683 -0.0531  0.2830
  128OSM    O1213669   1.949   3.557   6.132  0.3187 -0.1999 -0.1349
  128OSM    C1S13670   2.006   3.404   6.467 -0.0368 -0.1061 -0.0620
  128OSM    H1S13671   2.103   3.349   6.468 -1.0852 -2.0313  1.1115
  128OSM    H1T13672   1.924   3.329   6.467 -0.7071  0.5838 -1.4379
  128OSM     NF13673   1.992   3.403   6.724 -0.7834  1.0536 -0.6444
  128OSM    HNF13674   1.916   3.371   6.780  2.4184 -2.8603  2.0713
  128OSM    C2S13675   1.990   3.484   6.605 -0.0317  0.3297 -0.2722
  128OSM    H2S13676   2.076   3.555   6.607  0.7519 -0.3221 -3.8522
  128OSM    C3S13677   1.865   3.570   6.597 -0.0244 -0.8020  0.2410
  128OSM    H3S13678   1.775   3.517   6.560 -0.3105 -0.3528  0.2898
  128OSM     O313679   1.879   3.668   6.493 -0.3179  0.3087  0.1051
  128OSM    HO313680   1.934   3.623   6.428  0.7929 -1.8075  2.3469
  128OSM    C4S13681   1.834   3.648   6.726  0.8924 -0.1163  0.0026
  128OSM    H4S13682   1.895   3.736   6.752 -0.5547  0.3882  1.8980
  128OSM    C5S13683   1.735   3.616   6.814 -1.2850  0.3151 -0.2619
  128OSM    H5S13684   1.682   3.520   6.801 -3.6760  0.9838  3.0845
  128OSM    C6S13685   1.697   3.688   6.948  1.0709  0.3760  0.6728
  128OSM    H6S13686   1.586   3.698   6.956  1.2069  1.0449  2.1046
  128OSM    H6T13687   1.730   3.792   6.966 -0.1311  1.0522 -0.8425
  128OSM    C7S13688   1.749   3.599   7.067 -0.3038  0.7372  0.2361
  128OSM    H7S13689   1.860   3.602   7.070 -0.1192 -1.4769 -1.3990
  128OSM    H7T13690   1.723   3.494   7.040  2.5434  0.1322 -0.4837
  128OSM    C8S13691   1.684   3.638   7.206 -0.7137  0.1205 -0.4682
  128OSM    H8S13692   1.710   3.559   7.280 -0.3190  1.6515  1.1161
  128OSM    H8T13693   1.573   3.636   7.196 -0.5368  0.0574 -2.7871
  128OSM    C9S13694   1.710   3.780   7.255 -0.6445  0.1978  0.1496
  128OSM    H9S13695   1.654   3.833   7.176 -2.2582  0.0407  1.1444
  128OSM    H9T13696   1.821   3.789   7.256 -0.4091 -2.1242 -0.3611
  128OSM   C10S13697   1.649   3.830   7.385 -0.5358  0.1257  0.5210
  128OSM   H10S13698   1.542   3.804   7.396 -0.3867 -0.4685  0.6286
  128OSM   H10T13699   1.659   3.940   7.383 -0.2958  0.1124 -1.9320
  128OSM   C11S13700   1.727   3.765   7.509  0.3223  0.1217 -0.1619
  128OSM   H11S13701   1.835   3.777   7.487  0.5040 -1.1282 -0.0256
  128OSM   H11T13702   1.699   3.658   7.522  0.2576  0.2253  0.5933
  128OSM   C12S13703   1.688   3.833   7.644  0.3052 -0.2651 -0.3130
  128OSM   H12S13704   1.578   3.842   7.632  0.4821 -0.9025 -2.9734
  128OSM   H12T13705   1.719   3.940   7.639  0.0269 -0.1912 -0.4206
  128OSM   C13S13706   1.720   3.760   7.769 -0.8517 -0.5377  0.1288
  128OSM   H13S13707   1.825   3.724   7.762 -0.5619 -0.1402  1.8827
  128OSM   H13T13708   1.662   3.666   7.760 -0.4124 -0.8641  0.6199
  128OSM   C14S13709   1.672   3.825   7.896 -0.3440  0.5269  0.2008
  128OSM   H14S13710   1.561   3.838   7.899 -0.3672  0.8893 -1.2051
  128OSM   H14T13711   1.717   3.926   7.909  1.5298  0.0720 -2.2084
  128OSM   C15S13712   1.723   3.747   8.018 -0.2036 -0.2162 -0.2205
  128OSM   H15S13713   1.693   3.804   8.108  3.1892  1.5658 -0.0277
  128OSM   H15T13714   1.834   3.751   8.008 -0.0726 -1.8524  0.2092
  128OSM   C16S13715   1.680   3.598   8.031  0.5915  0.2059  0.7149
  128OSM   H16S13716   1.723   3.535   7.950 -0.8693  3.6824 -3.1516
  128OSM   H16T13717   1.571   3.608   8.015  0.6025  1.1032  1.1191
  128OSM   C17S13718   1.693   3.543   8.173 -0.4415  0.3338  0.2469
  128OSM   H17S13719   1.645   3.616   8.242 -0.6412 -1.3653  2.0213
  128OSM   H17T13720   1.798   3.537   8.209 -0.1241  1.6075 -0.3911
  128OSM   C18S13721   1.638   3.404   8.201  0.6978  0.5645  0.3764
  128OSM   H18S13722   1.642   3.387   8.311  1.3744 -0.9546  0.1493
  128OSM   H18T13723   1.695   3.319   8.156  0.5197  0.5758  0.1236
  128OSM   H18U13724   1.534   3.389   8.164  0.8732 -1.5733  0.6166
  128OSM    C1F13725   2.101   3.332   6.755  0.4099  0.5048 -0.2218
  128OSM     OF13726   2.205   3.345   6.693  0.3231 -0.0399 -0.0252
  128OSM    C2F13727   2.083   3.242   6.875  0.1434 -0.5759  0.5178
  128OSM    H2F13728   2.178   3.188   6.892  0.4709 -0.8186 -1.7871
  128OSM    H2G13729   2.016   3.161   6.840  0.4692  0.1567 -1.9828
  128OSM    C3F13730   2.033   3.323   6.998  0.0517 -0.7382  0.2343
  128OSM    H3F13731   1.928   3.354   6.981 -0.1875 -1.8858 -0.5378
  128OSM    H3G13732   2.095   3.409   7.030 -1.4066  0.7582 -0.8491
  128OSM    C4F13733   2.021   3.240   7.124  0.1525  0.7478  0.1605
  128OSM    H4F13734   2.123   3.201   7.144  0.8593  1.5150 -1.7272
  128OSM    H4G13735   1.959   3.150   7.101  0.6104  0.2323  0.8946
  128OSM    C5F13736   1.970   3.324   7.233  0.1473 -0.8123  0.1912
  128OSM    H5F13737   1.912   3.256   7.298  0.8096 -2.1497 -0.5805
  128OSM    H5G13738   1.895   3.399   7.200  0.0644 -0.6319  0.7689
  128OSM    C6F13739   2.088   3.393   7.309 -0.3462  0.5048 -0.3737
  128OSM    H6F13740   2.133   3.478   7.253 -3.6605  1.3876 -1.9632
  128OSM    H6G13741   2.165   3.314   7.320 -1.3098 -0.5550 -0.9972
  128OSM    C7F13742   2.036   3.438   7.443  0.6057  0.1425  0.3513
  128OSM    H7F13743   1.980   3.348   7.476 -1.1827 -0.0233 -2.7393
  128OSM    H7G13744   1.967   3.524   7.429  0.7477  0.0801 -0.8402
  128OSM    C8F13745   2.141   3.475   7.546 -0.8841 -0.9760  0.4281
  128OSM    H8F13746   2.087   3.531   7.625  0.6389 -0.6812  1.3030
  128OSM    H8G13747   2.211   3.540   7.490  1.3728 -2.6258  1.1648
  128OSM    C9F13748   2.210   3.359   7.613  0.1640  0.0875 -0.0687
  128OSM    H9F13749   2.197   3.259   7.568  0.1636 -0.1926  0.5369
  128OSM   C10F13750   2.262   3.368   7.732 -0.8145 -0.5045  0.0765
  128OSM   H10F13751   2.301   3.272   7.771 -1.1863 -0.9504 -0.6213
  128OSM   C11F13752   2.277   3.492   7.823  0.1103 -0.1735 -0.5909
  128OSM   H11F13753   2.257   3.582   7.760  2.3860  0.0899 -1.0087
  128OSM   H11G13754   2.371   3.509   7.878 -0.0483  0.4275 -0.4971
  128OSM   C12F13755   2.165   3.499   7.936  0.2339 -0.0823 -0.0978
  128OSM   H12F13756   2.066   3.518   7.890 -0.4423 -0.0671  1.3135
  128OSM   H12G13757   2.194   3.576   8.011  2.7406  0.2608 -1.3260
  128OSM   C13F13758   2.174   3.360   8.012  0.1303 -0.6425 -0.9781
  128OSM   H13F13759   2.272   3.350   8.063 -1.2957 -1.1902  1.8234
  128OSM   H13G13760   2.146   3.282   7.937 -0.5769  0.3619 -1.7886
  128OSM   C14F13761   2.078   3.370   8.132 -0.2619 -1.1680 -0.3914
  128OSM   H14F13762   1.976   3.341   8.100 -0.6561 -1.3693  0.9808
  128OSM   H14G13763   2.084   3.477   8.162 -0.2173 -1.6931  1.6120
  128OSM   C15F13764   2.138   3.291   8.248 -0.8649 -0.2012 -0.2326
  128OSM   H15F13765   2.222   3.350   8.289  0.0671 -1.8746  0.3471
  128OSM   H15G13766   2.183   3.200   8.203  0.2199  0.2753 -0.1225
  128OSM   C16F13767   2.025   3.262   8.356  0.7663 -0.0507 -0.4456
  128OSM   H16F13768   1.966   3.173   8.324  3.1685 -2.3371  1.0126
  128OSM   H16G13769   1.963   3.353   8.365 -1.0215 -1.0261 -2.0317
  128OSM   C17F13770   2.090   3.231   8.500 -0.1480  0.5002  0.2681
  128OSM   H17F13771   2.154   3.316   8.530  1.0078 -0.1871 -0.2102
  128OSM   H17G13772   2.159   3.145   8.497 -1.8199 -0.8940 -0.5098
  128OSM   C18F13773   1.990   3.214   8.614  0.1410 -0.0328  0.2592
  128OSM   H18F13774   1.898   3.274   8.597 -0.0014 -1.0052 -3.3425
  128OSM   H18G13775   2.037   3.247   8.708  1.3491 -1.3620  0.1497
  128OSM   H18H13776   1.952   3.111   8.628 -1.0867  0.4895  0.9368
  129OSM      N13777   6.623   6.185   5.890 -0.1559 -0.8776 -0.3676
  129OSM    C1513778   6.617   6.284   5.781 -0.1022 -0.5170 -0.7542
  129OSM   H15A13779   6.524   6.281   5.726 -0.7955  3.2112 -0.1041
  129OSM   H15B13780   6.687   6.259   5.702 -0.6652 -0.8074 -1.1732
  129OSM   H15C13781   6.629   6.386   5.814 -0.6417 -0.3530 -1.0477
  129OSM    C1413782   6.619   6.041   5.836 -0.3864 -0.5202 -0.0722
  129OSM   H14A13783   6.602   5.975   5.919  2.4351  0.4372  1.4026
  129OSM   H14B13784   6.719   6.021   5.801 -0.5338 -0.4828 -0.5268
  129OSM   H14C13785   6.544   6.024   5.759 -0.9047  1.0686  0.0294
  129OSM    C1313786   6.754   6.203   5.957  0.1730  0.6892  0.4291
  129OSM   H13A13787   6.745   6.138   6.043  1.6694 -0.7819 -0.4642
  129OSM   H13B13788   6.789   6.300   5.989  1.7027  0.5524 -0.7322
  129OSM   H13C13789   6.837   6.170   5.896  0.3293 -1.1627  1.5427
  129OSM    C1213790   6.505   6.221   5.981 -0.4223 -0.0576 -0.0678
  129OSM   H12A13791   6.419   6.225   5.915  0.6011  1.5155 -1.3836
  129OSM   H12B13792   6.506   6.324   6.012 -2.0220 -0.0299 -0.0263
  129OSM    C1113793   6.486   6.121   6.095  0.5923  0.5281 -0.2058
  129OSM   H11A13794   6.462   6.025   6.045 -3.1107  0.6529  1.0576
  129OSM   H11B13795   6.395   6.144   6.154  0.6292 -1.0430  0.5000
  129OSM      P13796   6.614   5.987   6.280 -0.3032  0.3882  0.1258
  129OSM    O1313797   6.483   5.926   6.295  0.1943  0.3661  0.7816
  129OSM    O1413798   6.716   5.895   6.221 -0.3106  0.1463  0.2493
  129OSM    O1113799   6.662   6.038   6.423 -0.5171 -0.0044  0.1501
  129OSM    O1213800   6.601   6.109   6.183  0.3063  0.5834  0.9926
  129OSM    C1S13801   6.723   6.167   6.437 -0.2909  0.4066  0.3009
  129OSM    H1S13802   6.679   6.247   6.373  0.4014 -0.2709 -1.0701
  129OSM    H1T13803   6.824   6.150   6.392 -0.6486 -0.8020 -0.0678
  129OSM     NF13804   6.796   6.344   6.585  0.2976 -0.0385 -0.0273
  129OSM    HNF13805   6.894   6.358   6.591  0.2480  0.1051  0.4503
  129OSM    C2S13806   6.747   6.205   6.583  0.2936 -0.4050 -0.4275
  129OSM    H2S13807   6.652   6.195   6.639  0.8485  1.2914  0.8976
  129OSM    C3S13808   6.845   6.108   6.649 -0.3058 -0.6771  0.0370
  129OSM    H3S13809   6.947   6.122   6.606 -1.0034  0.2168 -1.3770
  129OSM     O313810   6.810   5.973   6.634  0.1169 -0.6393 -0.7047
  129OSM    HO313811   6.737   5.976   6.572 -0.4391 -1.7407 -0.1306
  129OSM    C4S13812   6.843   6.137   6.795 -0.4706 -0.1873  0.4084
  129OSM    H4S13813   6.740   6.115   6.825 -0.7160  0.2901 -0.0811
  129OSM    C5S13814   6.932   6.195   6.881 -0.2355  0.5252 -0.8193
  129OSM    H5S13815   7.025   6.235   6.837  0.3304 -3.1188 -3.3993
  129OSM    C6S13816   6.915   6.236   7.026  1.0907  0.4827 -0.6474
  129OSM    H6S13817   6.923   6.347   7.033 -0.4789  0.5792  0.0932
  129OSM    H6T13818   6.994   6.201   7.097  0.4175  1.5645  0.6988
  129OSM    C7S13819   6.773   6.223   7.088  0.1074  0.2637 -0.2956
  129OSM    H7S13820   6.741   6.117   7.079  1.2332 -0.0475 -0.7425
  129OSM    H7T13821   6.700   6.281   7.027  0.1955  2.1335  1.2595
  129OSM    C8S13822   6.761   6.295   7.227 -0.1129  0.1745  0.4393
  129OSM    H8S13823   6.657   6.295   7.265 -0.2093 -0.5076  0.1946
  129OSM    H8T13824   6.785   6.403   7.217 -0.0394  0.3214  2.0479
  129OSM    C9S13825   6.860   6.235   7.323 -0.1908  0.6407 -0.1516
  129OSM    H9S13826   6.967   6.264   7.322  0.2693 -0.9894 -0.4527
  129OSM    H9T13827   6.864   6.127   7.296  3.2517  0.3549  0.9773
  129OSM   C10S13828   6.807   6.242   7.469 -0.4713 -0.3633 -0.0215
  129OSM   H10S13829   6.723   6.169   7.478 -0.2075 -0.5603  0.9857
  129OSM   H10T13830   6.767   6.344   7.489 -2.2648 -0.8364 -0.9078
  129OSM   C11S13831   6.906   6.209   7.575  0.3593 -0.5446 -0.3314
  129OSM   H11S13832   6.963   6.118   7.547 -0.8649 -2.6582  3.4572
  129OSM   H11T13833   6.843   6.175   7.659  0.3946  2.9061  1.2419
  129OSM   C12S13834   6.988   6.332   7.618 -0.4406  1.0205 -0.5449
  129OSM   H12S13835   6.927   6.410   7.668 -1.2747 -2.0848  3.9360
  129OSM   H12T13836   7.049   6.374   7.535  0.9930 -2.0929 -1.2128
  129OSM   C13S13837   7.093   6.283   7.726  0.3040 -0.2780  0.0537
  129OSM   H13S13838   7.177   6.353   7.745  1.1523 -0.7794 -1.6008
  129OSM   H13T13839   7.160   6.203   7.686  1.5292 -0.3251  2.0166
  129OSM   C14S13840   7.033   6.241   7.860 -0.1709 -0.6104 -0.4890
  129OSM   H14S13841   6.954   6.163   7.859 -1.8207  0.8850  2.3545
  129OSM   H14T13842   6.972   6.328   7.892  2.6428  0.8086  1.4694
  129OSM   C15S13843   7.131   6.202   7.977  0.0573  0.3731 -0.1765
  129OSM   H15S13844   7.175   6.297   8.014 -2.3549  1.1906  0.7376
  129OSM   H15T13845   7.213   6.134   7.946  0.1671  0.8357 -0.9156
  129OSM   C16S13846   7.064   6.142   8.105 -0.3586 -0.1534 -0.2911
  129OSM   H16S13847   7.143   6.122   8.180 -1.3769  0.3584  0.9490
  129OSM   H16T13848   7.022   6.043   8.076 -0.7033 -0.0852 -0.0189
  129OSM   C17S13849   6.967   6.239   8.176  0.4037  0.2786 -0.3998
  129OSM   H17S13850   6.885   6.250   8.102  0.6654 -3.9926 -1.6293
  129OSM   H17T13851   7.011   6.337   8.203 -0.2917  1.2344 -2.5098
  129OSM   C18S13852   6.904   6.180   8.297  0.6954 -0.1003 -0.1370
  129OSM   H18S13853   6.992   6.178   8.364  0.9698  0.9830 -0.4454
  129OSM   H18T13854   6.874   6.073   8.288  0.4146 -0.0857  0.5544
  129OSM   H18U13855   6.827   6.251   8.334  1.1995 -0.3844  1.5398
  129OSM    C1F13856   6.719   6.445   6.553  0.2189 -0.9395 -0.9064
  129OSM     OF13857   6.610   6.438   6.500 -0.6268 -0.1674  0.0739
  129OSM    C2F13858   6.774   6.591   6.579  0.4650 -0.4838  0.5970
  129OSM    H2F13859   6.794   6.639   6.482 -0.8328 -2.4653 -0.7271
  129OSM    H2G13860   6.869   6.586   6.636  1.4805  0.9376 -0.8971
  129OSM    C3F13861   6.683   6.671   6.667 -0.0355  0.6228  0.2253
  129OSM    H3F13862   6.579   6.684   6.630 -0.1453  1.0862  0.6873
  129OSM    H3G13863   6.722   6.775   6.669  1.1443  0.1937  2.1675
  129OSM    C4F13864   6.671   6.619   6.812  0.2450  0.0262 -0.2512
  129OSM    H4F13865   6.773   6.602   6.851 -1.1122 -0.4573  3.5135
  129OSM    H4G13866   6.620   6.520   6.823  0.3193  0.1926  2.0927
  129OSM    C5F13867   6.602   6.714   6.907 -0.8427  0.2332 -0.0253
  129OSM    H5F13868   6.499   6.718   6.866 -0.4853 -1.3921 -1.1907
  129OSM    H5G13869   6.650   6.813   6.889 -2.3464  1.0530  0.3393
  129OSM    C6F13870   6.611   6.663   7.056  0.3172 -0.0620  0.2818
  129OSM    H6F13871   6.687   6.709   7.123 -0.1317 -1.3339  1.7190
  129OSM    H6G13872   6.641   6.556   7.057 -1.8989 -0.7288 -0.0502
  129OSM    C7F13873   6.480   6.660   7.133 -0.3392  0.5064  0.4445
  129OSM    H7F13874   6.417   6.596   7.067 -1.6128  1.1454  1.0080
  129OSM    H7G13875   6.435   6.761   7.137 -1.1495  0.3835 -2.7953
  129OSM    C8F13876   6.496   6.599   7.269  0.4066 -0.2937 -0.0210
  129OSM    H8F13877   6.571   6.517   7.260 -0.5904 -1.2562  0.2279
  129OSM    H8G13878   6.403   6.546   7.298 -0.6574  2.5465  2.1728
  129OSM    C9F13879   6.539   6.683   7.383 -0.2683 -0.1600  0.1029
  129OSM    H9F13880   6.610   6.763   7.355  1.4516 -1.4873  0.5073
  129OSM   C10F13881   6.493   6.680   7.509 -0.4758 -0.6862  0.0945
  129OSM   H10F13882   6.550   6.740   7.582  1.1575 -1.9159 -0.1053
  129OSM   C11F13883   6.381   6.598   7.569  0.0430  0.2977  0.1025
  129OSM   H11F13884   6.361   6.511   7.503  0.0068 -0.8873  1.6263
  129OSM   H11G13885   6.289   6.659   7.571  0.6050  1.1603 -0.0055
  129OSM   C12F13886   6.406   6.544   7.711  0.2874 -0.1912  0.2439
  129OSM   H12F13887   6.508   6.500   7.712 -0.2352 -1.4835 -0.2440
  129OSM   H12G13888   6.338   6.460   7.737 -2.3092  1.0568 -1.9867
  129OSM   C13F13889   6.382   6.652   7.820 -0.2741  0.7278 -0.0255
  129OSM   H13F13890   6.289   6.708   7.799 -1.5249 -1.7050 -1.4495
  129OSM   H13G13891   6.467   6.721   7.805 -1.4360  2.2976  0.3418
  129OSM   C14F13892   6.385   6.592   7.964  0.2038 -0.1605 -0.6774
  129OSM   H14F13893   6.301   6.520   7.979  1.2341 -1.3320 -0.3082
  129OSM   H14G13894   6.363   6.675   8.035 -1.5010  1.0269 -2.4884
  129OSM   C15F13895   6.506   6.524   8.013  0.8329  0.4080 -0.1817
  129OSM   H15F13896   6.537   6.439   7.948  0.9490  0.8436 -0.6971
  129OSM   H15G13897   6.482   6.481   8.113 -2.5245  1.6672 -0.3330
  129OSM   C16F13898   6.630   6.614   8.016 -0.1221 -0.1020 -0.5696
  129OSM   H16F13899   6.606   6.712   8.062 -1.2621 -0.0829 -1.1758
  129OSM   H16G13900   6.648   6.637   7.908 -1.5768 -0.8607 -1.0005
  129OSM   C17F13901   6.744   6.558   8.099 -1.2428  0.4798  0.1183
  129OSM   H17F13902   6.759   6.461   8.048  0.4441  1.3839 -1.2135
  129OSM   H17G13903   6.697   6.551   8.199 -1.4736  0.6702  0.0267
  129OSM   C18F13904   6.874   6.641   8.088  0.0575 -0.0009  0.1674
  129OSM   H18F13905   6.852   6.748   8.105 -1.2224 -0.3735  1.0134
  129OSM   H18G13906   6.910   6.615   7.986  0.4010 -0.6269  0.4391
  129OSM   H18H13907   6.946   6.594   8.159 -2.5056 -0.7785  2.4169
  130OSM      N13908   6.710   2.564   5.829  0.9384  0.2243 -0.4417
  130OSM    C1513909   6.839   2.592   5.749  0.5903  0.4965  0.5385
  130OSM   H15A13910   6.923   2.531   5.778  1.0953  1.2965  0.7962
  130OSM   H15B13911   6.870   2.694   5.767 -0.6764  1.2560 -1.3604
  130OSM   H15C13912   6.819   2.572   5.645  0.7142 -1.4959  0.8446
  130OSM    C1413913   6.735   2.574   5.974 -0.4498 -0.2718  0.4909
  130OSM   H14A13914   6.815   2.513   6.013 -0.7676  1.1390  3.6882
  130OSM   H14B13915   6.649   2.561   6.038 -0.4492  1.0629  0.8040
  130OSM   H14C13916   6.767   2.676   5.993  0.9067 -0.5118 -0.3740
  130OSM    C1313917   6.616   2.682   5.793  0.2828 -0.0240 -0.7366
  130OSM   H13A13918   6.651   2.775   5.836 -0.8479  1.0633 -2.0920
  130OSM   H13B13919   6.518   2.664   5.834  1.3274 -0.0423  1.9535
  130OSM   H13C13920   6.609   2.699   5.687 -0.8067  2.2761 -0.3518
  130OSM    C1213921   6.650   2.430   5.788  0.2580  0.7449  0.1439
  130OSM   H12A13922   6.722   2.352   5.808  1.4250  2.0598  1.3319
  130OSM   H12B13923   6.627   2.427   5.683 -1.4733  0.8747  0.4842
  130OSM    C1113924   6.521   2.396   5.862  0.9091 -0.1282 -0.7294
  130OSM   H11A13925   6.435   2.421   5.797  0.3704  0.8052  0.3134
  130OSM   H11B13926   6.504   2.454   5.956  2.3015 -1.3340  0.3274
  130OSM      P13927   6.611   2.184   5.985 -0.1486  0.1995 -0.2187
  130OSM    O1313928   6.537   2.066   6.038  0.0306 -0.4505 -0.1810
  130OSM    O1413929   6.740   2.158   5.922  0.2625  0.0381 -0.2621
  130OSM    O1113930   6.638   2.280   6.110 -0.5939 -0.2744  0.0276
  130OSM    O1213931   6.522   2.258   5.878 -0.4106 -0.1201 -0.5726
  130OSM    C1S13932   6.543   2.295   6.215 -0.2581  0.5782  0.1804
  130OSM    H1S13933   6.459   2.223   6.212  0.1713  0.0027  1.2665
  130OSM    H1T13934   6.503   2.398   6.223  0.5649  0.8249  1.5334
  130OSM     NF13935   6.517   2.262   6.463 -0.4508  0.4813 -0.0526
  130OSM    HNF13936   6.533   2.342   6.520  1.2285  0.7295 -0.8253
  130OSM    C2S13937   6.614   2.252   6.352 -0.4349 -0.3462  0.5287
  130OSM    H2S13938   6.643   2.145   6.340 -2.1684 -0.7126 -0.8615
  130OSM    C3S13939   6.744   2.341   6.378  0.0174  0.1042 -0.3658
  130OSM    H3S13940   6.722   2.450   6.374 -2.5401 -0.3726 -0.8061
  130OSM     O313941   6.836   2.323   6.274 -0.2308 -0.5802 -0.6152
  130OSM    HO313942   6.779   2.303   6.199  0.4860 -1.6117 -0.9154
  130OSM    C4S13943   6.814   2.318   6.514 -0.1044 -0.5300  0.1770
  130OSM    H4S13944   6.786   2.388   6.594  1.0944 -0.6123  0.6851
  130OSM    C5S13945   6.926   2.244   6.538 -0.2813 -0.3433 -0.1884
  130OSM    H5S13946   6.989   2.202   6.458 -1.6907 -2.2690 -0.3673
  130OSM    C6S13947   6.990   2.236   6.674 -0.2082  0.3652  0.2192
  130OSM    H6S13948   7.048   2.141   6.672  0.9795  1.0751 -0.9480
  130OSM    H6T13949   6.903   2.227   6.742 -2.4151 -0.1776 -2.5213
  130OSM    C7S13950   7.084   2.347   6.716 -0.4292  1.3509 -0.5847
  130OSM    H7S13951   7.040   2.449   6.704 -0.4332  1.6934  1.8962
  130OSM    H7T13952   7.178   2.347   6.656 -0.9126 -1.8309 -1.4791
  130OSM    C8S13953   7.122   2.350   6.860  0.3959  0.1260 -0.1832
  130OSM    H8S13954   7.191   2.435   6.878  0.2354  0.0845  0.6922
  130OSM    H8T13955   7.169   2.255   6.894  1.2161  0.6268  0.1095
  130OSM    C9S13956   7.008   2.367   6.964  0.3783 -0.2046 -0.0070
  130OSM    H9S13957   6.944   2.277   6.961  0.3773 -0.1834 -2.1436
  130OSM    H9T13958   6.956   2.461   6.934  3.2418  0.8984 -2.0303
  130OSM   C10S13959   7.070   2.394   7.098  0.0866  0.1087  0.2925
  130OSM   H10S13960   7.103   2.500   7.091 -1.2049  0.4743 -0.6145
  130OSM   H10T13961   7.155   2.326   7.122 -1.4575 -2.5363 -1.2465
  130OSM   C11S13962   6.977   2.384   7.216  0.3580 -0.4241  0.0661
  130OSM   H11S13963   6.936   2.281   7.224  1.3297 -0.7286  1.7071
  130OSM   H11T13964   6.893   2.451   7.189 -0.3136 -1.7070 -1.1547
  130OSM   C12S13965   7.046   2.413   7.343  0.1317 -0.3539 -0.4803
  130OSM   H12S13966   7.089   2.516   7.342  1.4027 -0.8746 -1.3916
  130OSM   H12T13967   7.124   2.336   7.357 -1.5339 -1.7331  2.0810
  130OSM   C13S13968   6.957   2.413   7.466 -0.4603  0.1497 -0.0179
  130OSM   H13S13969   6.901   2.317   7.468 -2.4138  1.2218  2.4035
  130OSM   H13T13970   6.870   2.482   7.456 -0.5370  0.8897  3.9359
  130OSM   C14S13971   7.033   2.430   7.601  0.6635  0.2429 -0.0160
  130OSM   H14S13972   7.064   2.534   7.626 -0.1308 -0.3261  4.1296
  130OSM   H14T13973   7.131   2.377   7.599  0.1953 -0.6152 -0.9493
  130OSM   C15S13974   6.948   2.389   7.724 -0.2525  0.1906 -0.4424
  130OSM   H15S13975   6.931   2.279   7.718 -0.1713  0.1964 -0.7752
  130OSM   H15T13976   6.844   2.424   7.713 -0.9008 -1.5210 -0.0886
  130OSM   C16S13977   6.999   2.424   7.868  0.1023 -0.1631  0.7681
  130OSM   H16S13978   7.028   2.531   7.870 -0.2373 -0.0420 -0.1552
  130OSM   H16T13979   7.091   2.364   7.885  0.0605 -0.9859 -1.5042
  130OSM   C17S13980   6.890   2.398   7.979 -0.5317 -0.2045 -0.2648
  130OSM   H17S13981   6.882   2.288   7.992 -1.1908  0.1356  3.0829
  130OSM   H17T13982   6.789   2.432   7.948  0.4591  1.1417 -2.3077
  130OSM   C18S13983   6.933   2.454   8.115 -0.7055  0.1951  0.0247
  130OSM   H18S13984   6.929   2.564   8.098 -0.3481  0.3134  0.6821
  130OSM   H18T13985   7.037   2.421   8.136 -1.1713 -1.3844  0.0028
  130OSM   H18U13986   6.858   2.425   8.191 -2.9070 -0.7612 -2.3278
  130OSM    C1F13987   6.419   2.179   6.490  0.7429  0.7400 -0.3608
  130OSM     OF13988   6.394   2.071   6.434 -0.1047 -0.3638  0.5610
  130OSM    C2F13989   6.341   2.218   6.616 -0.4783  0.1239 -0.1515
  130OSM    H2F13990   6.335   2.328   6.631 -2.1182  0.0731 -0.2062
  130OSM    H2G13991   6.395   2.170   6.700 -0.0931  1.3604  0.3255
  130OSM    C3F13992   6.204   2.159   6.620 -0.3793  0.0361 -0.0265
  130OSM    H3F13993   6.208   2.048   6.622 -1.0320 -0.0035 -0.5856
  130OSM    H3G13994   6.147   2.193   6.531 -0.4292  0.4419  0.1532
  130OSM    C4F13995   6.132   2.204   6.745  0.0913  0.4398  0.2139
  130OSM    H4F13996   6.027   2.169   6.750 -0.2605  1.0017 -1.9818
  130OSM    H4G13997   6.144   2.314   6.752  0.0812  0.3955  0.9410
  130OSM    C5F13998   6.216   2.154   6.870  0.2055 -0.0463 -0.2965
  130OSM    H5F13999   6.289   2.234   6.895  0.2891 -0.4733  0.9155
  130OSM    H5G14000   6.261   2.059   6.837 -0.0615 -0.8780  1.6107
  130OSM    C6F14001   6.139   2.127   6.997 -0.6049 -0.4019  0.7388
  130OSM    H6F14002   6.046   2.071   6.972 -0.3560  0.0448 -1.2994
  130OSM    H6G14003   6.092   2.219   7.039 -0.0967  0.7793 -1.1647
  130OSM    C7F14004   6.222   2.056   7.106  0.1452 -0.7706  0.5328
  130OSM    H7F14005   6.303   2.121   7.143 -1.3914  0.7014  1.4868
  130OSM    H7G14006   6.257   1.960   7.061  1.7801 -0.7288  1.6779
  130OSM    C8F14007   6.133   2.012   7.225  0.0221 -0.4070  0.0720
  130OSM    H8F14008   6.198   1.942   7.281  0.8047 -0.0095 -0.3186
  130OSM    H8G14009   6.049   1.947   7.192 -0.7484  1.2816 -1.5125
  130OSM    C9F14010   6.086   2.110   7.325  0.1839 -0.0703  0.5299
  130OSM    H9F14011   6.060   2.207   7.280  0.8712 -0.2342 -0.2416
  130OSM   C10F14012   6.065   2.093   7.459 -0.0761  0.0733 -0.4598
  130OSM   H10F14013   6.016   2.182   7.501 -1.2676  0.6636 -2.9070
  130OSM   C11F14014   6.073   1.961   7.536  0.2018 -0.3223  0.4840
  130OSM   H11F14015   6.139   1.976   7.624  1.9187  1.0853 -0.9721
  130OSM   H11G14016   6.131   1.887   7.479  3.2676  1.2424  1.3576
  130OSM   C12F14017   5.933   1.917   7.591 -0.0260 -0.1979  0.9092
  130OSM   H12F14018   5.883   2.011   7.623  1.5846  1.5544 -1.3275
  130OSM   H12G14019   5.961   1.840   7.665 -0.1342 -3.7044 -2.3634
  130OSM   C13F14020   5.849   1.830   7.492  0.0735 -0.3751  0.7630
  130OSM   H13F14021   5.914   1.740   7.482  0.4056 -0.0599  0.0291
  130OSM   H13G14022   5.852   1.870   7.389  0.9775 -1.6572  0.2529
  130OSM   C14F14023   5.708   1.790   7.534  0.1996 -0.5865 -0.3463
  130OSM   H14F14024   5.658   1.720   7.464  2.2787 -0.5534 -1.9955
  130OSM   H14G14025   5.646   1.882   7.539  0.8030 -0.1620 -0.4102
  130OSM   C15F14026   5.695   1.734   7.675  0.5429 -0.8866  0.0658
  130OSM   H15F14027   5.586   1.715   7.685  0.0883  0.8753 -0.9597
  130OSM   H15G14028   5.737   1.810   7.745  0.0509  0.3348 -0.9224
  130OSM   C16F14029   5.780   1.605   7.688 -1.0824 -0.5932  0.0716
  130OSM   H16F14030   5.885   1.636   7.704 -0.7980 -0.1398 -2.2596
  130OSM   H16G14031   5.785   1.549   7.592  1.3759 -0.4341  0.0506
  130OSM   C17F14032   5.744   1.511   7.803  0.1368 -0.0977  0.3862
  130OSM   H17F14033   5.637   1.483   7.796  0.6472 -2.1815  0.1977
  130OSM   H17G14034   5.744   1.560   7.903  2.1221  0.3672  0.1972
  130OSM   C18F14035   5.807   1.371   7.805 -0.0414  0.1336  0.6292
  130OSM   H18F14036   5.790   1.315   7.710  3.3654  0.5650 -0.3950
  130OSM   H18G14037   5.781   1.319   7.899  1.0586 -0.3365  0.6974
  130OSM   H18H14038   5.918   1.370   7.816 -0.1287  1.0937  1.7256
  131OSM      N14039   2.866   0.519   5.870 -0.2374  0.3455 -0.1426
  131OSM    C1514040   2.971   0.429   5.913 -0.3048  0.2524  0.8005
  131OSM   H15A14041   3.030   0.455   6.000  1.6986  0.6736 -0.6307
  131OSM   H15B14042   3.034   0.411   5.828 -2.4977 -0.5774 -0.7259
  131OSM   H15C14043   2.937   0.330   5.939 -0.4677  0.1492  0.2022
  131OSM    C1414044   2.920   0.658   5.849  0.6545  0.3986  0.4405
  131OSM   H14A14045   2.832   0.719   5.836 -0.2843 -0.9563  0.3009
  131OSM   H14B14046   2.976   0.661   5.757 -0.8326  1.8133 -0.4700
  131OSM   H14C14047   2.973   0.689   5.938  1.4910  0.4306 -0.0606
  131OSM    C1314048   2.803   0.480   5.745  0.1330  0.3741 -0.1583
  131OSM   H13A14049   2.883   0.484   5.673  0.0358  2.2450 -0.1941
  131OSM   H13B14050   2.718   0.542   5.719 -1.2896 -2.3185 -2.6796
  131OSM   H13C14051   2.764   0.379   5.737 -0.0717  0.3695  0.7668
  131OSM    C1214052   2.761   0.526   5.977 -0.1686 -0.1222 -0.2455
  131OSM   H12A14053   2.812   0.534   6.072  0.0896 -0.8161 -0.3195
  131OSM   H12B14054   2.701   0.436   5.978 -1.1639  0.5262  0.0869
  131OSM    C1114055   2.654   0.643   5.970  0.5680 -0.2930  0.0890
  131OSM   H11A14056   2.574   0.629   6.045 -0.0286  1.0626 -0.2680
  131OSM   H11B14057   2.606   0.644   5.869 -1.2716 -0.5914  0.9141
  131OSM      P14058   2.629   0.901   5.957  0.1053 -0.1396  0.4338
  131OSM    O1314059   2.733   1.009   5.959 -0.4427  0.1050  0.4648
  131OSM    O1414060   2.555   0.880   5.833  0.3137 -0.0117  0.4636
  131OSM    O1114061   2.521   0.920   6.072  0.3880  0.1939  0.0694
  131OSM    O1214062   2.706   0.770   6.005 -0.3374  0.5443 -0.4184
  131OSM    C1S14063   2.538   0.914   6.213  0.2155 -0.5234  0.1018
  131OSM    H1S14064   2.569   1.015   6.248  2.9150 -0.8775 -0.9997
  131OSM    H1T14065   2.614   0.840   6.247 -2.4613 -3.0576  0.9522
  131OSM     NF14066   2.439   0.885   6.435 -0.4054 -0.2431  0.3629
  131OSM    HNF14067   2.470   0.804   6.485  0.5606  1.5028  2.7673
  131OSM    C2S14068   2.406   0.878   6.294 -0.4491 -0.0139  0.2463
  131OSM    H2S14069   2.343   0.964   6.262 -2.6774 -1.5686  0.2074
  131OSM    C3S14070   2.348   0.738   6.253 -0.8196  0.8136  0.0679
  131OSM    H3S14071   2.418   0.655   6.274 -1.2024  1.0252  2.3701
  131OSM     O314072   2.310   0.733   6.115 -0.4266  0.6502 -0.1363
  131OSM    HO314073   2.351   0.815   6.085 -2.0770  0.5971 -2.8834
  131OSM    C4S14074   2.231   0.711   6.341 -0.2898 -0.3251  0.3177
  131OSM    H4S14075   2.267   0.652   6.427 -1.5038 -3.2691 -1.0420
  131OSM    C5S14076   2.101   0.749   6.335  0.1180 -0.9594  0.4551
  131OSM    H5S14077   2.056   0.804   6.251 -1.9560 -3.6502 -0.3531
  131OSM    C6S14078   2.005   0.711   6.442 -0.0105  0.4121 -0.5319
  131OSM    H6S14079   2.060   0.660   6.524  0.5000  0.4926 -0.8163
  131OSM    H6T14080   1.943   0.628   6.401 -1.8684  2.2950 -1.7203
  131OSM    C7S14081   1.933   0.840   6.485 -0.5915  0.3335  0.1404
  131OSM    H7S14082   1.869   0.825   6.575  1.6719  1.7397  2.1104
  131OSM    H7T14083   1.862   0.874   6.407 -3.2927 -3.0489  0.8375
  131OSM    C8S14084   2.022   0.954   6.536  0.4487  0.1456  0.1375
  131OSM    H8S14085   1.963   1.045   6.562 -0.4589 -0.3951 -0.0237
  131OSM    H8T14086   2.075   0.990   6.445 -0.6408  1.5863  0.0416
  131OSM    C9S14087   2.112   0.915   6.658 -0.4286  0.0072 -0.0477
  131OSM    H9S14088   2.190   0.994   6.666 -0.2633 -0.1297 -0.2938
  131OSM    H9T14089   2.159   0.815   6.649 -0.2307  0.1172 -0.2741
  131OSM   C10S14090   2.024   0.905   6.783 -0.5171 -0.2262  0.1442
  131OSM   H10S14091   1.936   0.837   6.780 -0.4750 -0.4691  2.6150
  131OSM   H10T14092   1.977   1.005   6.801 -0.6662 -0.0232 -1.2586
  131OSM   C11S14093   2.117   0.851   6.898  0.1448  0.3062 -0.0254
  131OSM   H11S14094   2.193   0.929   6.919 -0.2162  0.0885  2.3560
  131OSM   H11T14095   2.163   0.750   6.886 -0.1289  0.3322 -1.5679
  131OSM   C12S14096   2.033   0.854   7.024  0.2479 -0.3047 -0.0615
  131OSM   H12S14097   1.946   0.785   7.025 -0.8050  0.9548 -0.6359
  131OSM   H12T14098   1.988   0.955   7.035 -0.4199 -0.6129  0.0860
  131OSM   C13S14099   2.113   0.826   7.149  0.5061  0.7658  0.1011
  131OSM   H13S14100   2.198   0.897   7.158 -0.2408  1.9219 -1.4818
  131OSM   H13T14101   2.150   0.722   7.136 -1.6428 -0.0144 -0.1753
  131OSM   C14S14102   2.029   0.818   7.286 -0.1170  0.3431 -0.4280
  131OSM   H14S14103   1.933   0.763   7.278 -0.7287  1.3489 -0.1152
  131OSM   H14T14104   2.004   0.924   7.307 -2.1071  0.1223 -1.4376
  131OSM   C15S14105   2.120   0.756   7.398 -0.1812 -0.0550  0.3946
  131OSM   H15S14106   2.213   0.817   7.398 -1.8821  2.9173 -2.6763
  131OSM   H15T14107   2.135   0.649   7.373 -0.5915  0.5286 -2.7948
  131OSM   C16S14108   2.039   0.766   7.523 -0.6408 -0.1797 -1.1189
  131OSM   H16S14109   1.934   0.729   7.523 -1.3641  1.7836 -1.3547
  131OSM   H16T14110   2.035   0.874   7.549  0.5859 -0.4705  0.4627
  131OSM   C17S14111   2.093   0.684   7.645  0.0481 -0.8319  0.1905
  131OSM   H17S14112   2.183   0.731   7.691 -1.2887 -0.4124  2.5088
  131OSM   H17T14113   2.126   0.580   7.621  1.5286 -0.3903  0.2356
  131OSM   C18S14114   1.994   0.676   7.759  0.1960  0.4011  0.3007
  131OSM   H18S14115   2.043   0.668   7.859 -2.6206 -0.8229  1.7176
  131OSM   H18T14116   1.930   0.586   7.746  1.2150 -0.5394  1.5405
  131OSM   H18U14117   1.926   0.764   7.760  1.1510  1.1817 -0.8807
  131OSM    C1F14118   2.459   0.997   6.511 -0.1767 -0.9388  0.7333
  131OSM     OF14119   2.450   1.111   6.465 -0.3067 -1.1547 -0.3363
  131OSM    C2F14120   2.504   0.976   6.650 -0.4299  0.4724  0.1155
  131OSM    H2F14121   2.556   0.878   6.656 -0.6236  0.3575 -0.0823
  131OSM    H2G14122   2.411   0.955   6.707 -0.1836 -1.4790 -0.1268
  131OSM    C3F14123   2.585   1.086   6.711 -0.2015 -0.1071 -0.6544
  131OSM    H3F14124   2.527   1.181   6.707 -0.7533 -0.3738  0.6233
  131OSM    H3G14125   2.675   1.102   6.649  0.4837  1.2046  0.6240
  131OSM    C4F14126   2.642   1.054   6.855 -0.8487 -0.0056  0.0983
  131OSM    H4F14127   2.723   1.128   6.875  0.6715 -1.2071 -1.3357
  131OSM    H4G14128   2.701   0.961   6.842 -0.1862  0.6048 -1.5673
  131OSM    C5F14129   2.539   1.065   6.969 -0.4981 -0.5922 -0.8369
  131OSM    H5F14130   2.439   1.030   6.935 -1.9210  1.0852  1.2896
  131OSM    H5G14131   2.536   1.171   7.003  0.4839 -0.1832 -1.9436
  131OSM    C6F14132   2.568   0.982   7.093  0.6214 -0.1515 -0.5090
  131OSM    H6F14133   2.495   1.016   7.169  1.1346  0.6371 -0.3631
  131OSM    H6G14134   2.666   1.006   7.140  0.0711  1.3372 -0.0878
  131OSM    C7F14135   2.547   0.834   7.080 -0.3733  0.0201 -0.1371
  131OSM    H7F14136   2.604   0.800   6.990  1.1721  0.8539  0.4831
  131OSM    H7G14137   2.439   0.827   7.053  0.2209 -1.0279 -2.5932
  131OSM    C8F14138   2.594   0.740   7.195 -0.4137 -0.2271 -0.1305
  131OSM    H8F14139   2.705   0.727   7.200 -0.4542 -0.6056 -0.2066
  131OSM    H8G14140   2.555   0.642   7.161 -1.9532  0.2696  0.1635
  131OSM    C9F14141   2.521   0.778   7.324  0.6137  0.9235  0.0865
  131OSM    H9F14142   2.413   0.785   7.309  0.4994 -1.0797 -0.3649
  131OSM   C10F14143   2.574   0.780   7.448  0.3197  0.3276  0.0853
  131OSM   H10F14144   2.510   0.793   7.537 -0.6686 -2.5705 -0.0947
  131OSM   C11F14145   2.722   0.753   7.477  0.0618 -0.6836  0.5896
  131OSM   H11F14146   2.765   0.832   7.542 -1.0196  1.0663 -0.7062
  131OSM   H11G14147   2.783   0.784   7.389 -0.1251  0.9288  0.9931
  131OSM   C12F14148   2.745   0.612   7.529 -0.1091  0.7369  0.0168
  131OSM   H12F14149   2.854   0.601   7.548  0.6756  2.1688 -3.0698
  131OSM   H12G14150   2.728   0.540   7.447  1.3146  1.1585 -0.6989
  131OSM   C13F14151   2.673   0.579   7.655 -0.3961  0.0331 -0.2220
  131OSM   H13F14152   2.713   0.481   7.689  1.9497  0.7401 -0.7319
  131OSM   H13G14153   2.564   0.566   7.637 -0.1675 -0.7986 -1.0490
  131OSM   C14F14154   2.710   0.677   7.764 -0.5145 -0.0811 -0.4757
  131OSM   H14F14155   2.666   0.779   7.753  0.7291  0.6370  0.7805
  131OSM   H14G14156   2.820   0.695   7.758 -0.6429  1.3913  0.7270
  131OSM   C15F14157   2.696   0.630   7.906 -0.3827  0.1269 -0.3143
  131OSM   H15F14158   2.727   0.523   7.903 -1.6764 -0.2614 -3.3652
  131OSM   H15G14159   2.589   0.636   7.935 -1.7761  0.3708 -4.7499
  131OSM   C16F14160   2.788   0.703   8.012  0.0592 -0.1546 -0.1938
  131OSM   H16F14161   2.894   0.684   7.984  0.2385  0.4135  0.0707
  131OSM   H16G14162   2.757   0.647   8.102 -2.3557  0.6516 -0.4481
  131OSM   C17F14163   2.750   0.853   8.045 -0.2941 -0.2648 -0.3396
  131OSM   H17F14164   2.742   0.863   8.156  3.0614  2.4572 -0.1607
  131OSM   H17G14165   2.658   0.883   7.992 -0.1825  0.3977 -0.1641
  131OSM   C18F14166   2.870   0.936   8.001 -0.2863  0.0241  0.2787
  131OSM   H18F14167   2.965   0.915   8.055 -0.0697  0.8728  0.2512
  131OSM   H18G14168   2.853   1.045   8.015  2.3979  0.2819  2.3820
  131OSM   H18H14169   2.888   0.907   7.895 -2.1615 -1.3092  0.2768
  132OSM      N14170   3.679   4.846   6.097 -0.0694  0.0387  0.4692
  132OSM    C1514171   3.785   4.955   6.109 -0.5944  1.0512  0.0290
  132OSM   H15A14172   3.876   4.904   6.082 -1.6297 -0.2237 -1.2579
  132OSM   H15B14173   3.788   5.002   6.206 -0.5743  0.2636  0.4212
  132OSM   H15C14174   3.773   5.026   6.028 -0.9071  1.7882  0.7075
  132OSM    C1414175   3.687   4.776   5.963 -0.4453  1.0719 -0.1995
  132OSM   H14A14176   3.769   4.705   5.967 -1.4494 -0.0466  1.4297
  132OSM   H14B14177   3.711   4.844   5.882  2.1406  1.4070  0.7243
  132OSM   H14C14178   3.592   4.730   5.943 -0.8025  1.3266  0.8716
  132OSM    C1314179   3.694   4.741   6.205 -0.4508  0.0062 -0.9895
  132OSM   H13A14180   3.801   4.731   6.216  0.2145  4.1191 -1.9505
  132OSM   H13B14181   3.647   4.649   6.175 -0.7387 -0.3598  0.5176
  132OSM   H13C14182   3.649   4.778   6.296  0.6963  2.1597 -1.2164
  132OSM    C1214183   3.550   4.915   6.100  0.5382 -0.4336  0.8294
  132OSM   H12A14184   3.461   4.855   6.088  0.7736 -0.7252  0.5167
  132OSM   H12B14185   3.553   4.989   6.021  0.9079 -1.2091  0.0952
  132OSM    C1114186   3.521   4.992   6.229  0.0257  0.0468  0.2545
  132OSM   H11A14187   3.457   5.076   6.194 -0.7562 -0.7529 -0.2790
  132OSM   H11B14188   3.608   5.051   6.264 -0.9144  2.4497 -1.2145
  132OSM      P14189   3.303   4.889   6.330 -0.1583  0.1942  0.0923
  132OSM    O1314190   3.237   5.019   6.310  0.3012 -0.2448  0.2349
  132OSM    O1414191   3.264   4.785   6.228  0.2875 -0.4056 -0.3406
  132OSM    O1114192   3.274   4.831   6.474  0.2733 -0.4326  0.0606
  132OSM    O1214193   3.464   4.909   6.332 -0.3524  0.3901 -0.1209
  132OSM    C1S14194   3.357   4.870   6.586  0.1383 -0.3331  0.6164
  132OSM    H1S14195   3.347   4.980   6.602 -0.3745  0.0189 -1.7622
  132OSM    H1T14196   3.461   4.846   6.557 -0.4341 -0.3438 -1.6492
  132OSM     NF14197   3.367   4.881   6.828 -0.5809 -0.0711 -0.3154
  132OSM    HNF14198   3.434   4.829   6.882 -2.0237 -0.3696  1.2933
  132OSM    C2S14199   3.300   4.813   6.724  1.2547  0.4103 -0.0062
  132OSM    H2S14200   3.195   4.849   6.728  1.2677  0.3897  3.3997
  132OSM    C3S14201   3.301   4.658   6.716  0.3589  0.8192  0.0850
  132OSM    H3S14202   3.404   4.619   6.702 -0.2614 -0.5727 -0.7921
  132OSM     O314203   3.238   4.594   6.605  0.2774  0.0292  0.0990
  132OSM    HO314204   3.223   4.665   6.542  2.3742  1.2584  0.8479
  132OSM    C4S14205   3.238   4.595   6.840  0.3570 -0.2743 -0.6433
  132OSM    H4S14206   3.304   4.563   6.922 -0.3069 -2.2779 -0.8373
  132OSM    C5S14207   3.107   4.555   6.861 -0.5891 -0.4505 -0.4298
  132OSM    H5S14208   3.040   4.579   6.778 -1.6400  2.0342  1.0285
  132OSM    C6S14209   3.043   4.486   6.985 -0.3440 -0.0299 -0.3218
  132OSM    H6S14210   2.948   4.436   6.957  0.0503 -0.7622 -0.4003
  132OSM    H6T14211   2.994   4.570   7.038 -1.1551 -0.6279 -0.0906
  132OSM    C7S14212   3.132   4.398   7.075  0.0316 -0.2836  0.1063
  132OSM    H7S14213   3.215   4.462   7.111  0.3195 -1.0309  0.7892
  132OSM    H7T14214   3.185   4.313   7.027 -1.6779 -0.9445 -0.7128
  132OSM    C8S14215   3.057   4.334   7.193  0.2658 -0.5741  0.3888
  132OSM    H8S14216   2.978   4.272   7.145  0.1024 -0.8975  1.0516
  132OSM    H8T14217   3.000   4.408   7.254 -0.3597  1.7394 -2.7628
  132OSM    C9S14218   3.157   4.258   7.286  0.2833 -0.5152  0.0141
  132OSM    H9S14219   3.202   4.346   7.336 -1.7199  0.2556  0.5455
  132OSM    H9T14220   3.231   4.200   7.227  2.6126 -0.9614  3.1192
  132OSM   C10S14221   3.096   4.184   7.399 -0.2578  0.7062  0.2467
  132OSM   H10S14222   3.073   4.083   7.359 -0.4994  0.2290  1.5380
  132OSM   H10T14223   3.003   4.235   7.431 -0.0176  1.4197 -0.1834
  132OSM   C11S14224   3.188   4.179   7.520 -0.8606 -0.8919  0.4170
  132OSM   H11S14225   3.222   4.284   7.530  0.0872 -0.8618 -2.4341
  132OSM   H11T14226   3.281   4.119   7.506  0.1826  0.4892  1.1485
  132OSM   C12S14227   3.119   4.126   7.647 -0.2413 -0.0573 -0.1042
  132OSM   H12S14228   3.073   4.027   7.627 -0.1698 -0.4988  1.7364
  132OSM   H12T14229   3.034   4.188   7.683 -0.9713 -1.1323  0.0629
  132OSM   C13S14230   3.220   4.109   7.758  1.1928  0.1738  0.3410
  132OSM   H13S14231   3.234   4.211   7.800  1.7583  0.0711  0.4058
  132OSM   H13T14232   3.312   4.059   7.720 -0.3174 -0.6641 -2.5517
  132OSM   C14S14233   3.169   4.036   7.882 -0.3062 -0.2799 -0.0485
  132OSM   H14S14234   3.251   4.034   7.957 -1.5423 -0.4912  1.3394
  132OSM   H14T14235   3.155   3.928   7.857  2.0809 -0.7376  0.3402
  132OSM   C15S14236   3.052   4.095   7.944  0.3606 -0.5098 -0.4088
  132OSM   H15S14237   2.957   4.077   7.889  0.2654  1.1136 -0.8245
  132OSM   H15T14238   3.066   4.205   7.953  3.2792 -0.6850 -1.9385
  132OSM   C16S14239   3.029   4.048   8.090 -0.2541 -0.5944 -0.0301
  132OSM   H16S14240   2.954   4.116   8.136 -0.6517 -0.0900 -1.3672
  132OSM   H16T14241   3.128   4.059   8.140 -0.5183  1.6698  0.0611
  132OSM   C17S14242   2.994   3.896   8.096  0.3215 -0.0939 -0.1841
  132OSM   H17S14243   3.075   3.837   8.047  0.7681  0.0959  0.3137
  132OSM   H17T14244   2.901   3.869   8.041 -0.7613 -0.3399  1.6841
  132OSM   C18S14245   2.996   3.860   8.248 -0.0098  0.8326 -0.9341
  132OSM   H18S14246   3.057   3.925   8.315  1.4725 -1.2372 -0.1747
  132OSM   H18T14247   3.040   3.759   8.263  0.9140  1.2822 -0.5329
  132OSM   H18U14248   2.888   3.867   8.274  0.1488 -0.4379  0.1925
  132OSM    C1F14249   3.330   5.006   6.861 -0.4487 -0.3208  0.4974
  132OSM     OF14250   3.246   5.073   6.795 -1.1544 -1.0781  0.3896
  132OSM    C2F14251   3.393   5.049   6.997  0.1835  0.5663 -0.7269
  132OSM    H2F14252   3.503   5.055   6.983  0.3733  0.1290  0.4481
  132OSM    H2G14253   3.373   4.967   7.070  0.0023  1.6317  0.4513
  132OSM    C3F14254   3.337   5.182   7.028  0.0961  0.0484 -0.7061
  132OSM    H3F14255   3.226   5.175   7.029 -0.1497  2.2136 -2.6255
  132OSM    H3G14256   3.365   5.259   6.953 -0.7847  1.4193  0.3140
  132OSM    C4F14257   3.389   5.232   7.167  0.6072 -0.3053  0.0352
  132OSM    H4F14258   3.365   5.341   7.163  0.9332 -0.2202  0.3416
  132OSM    H4G14259   3.500   5.230   7.174  0.6429  0.7878 -0.0401
  132OSM    C5F14260   3.326   5.158   7.288 -0.2041  0.4555 -0.4115
  132OSM    H5F14261   3.369   5.057   7.305 -0.5440  0.4308  0.3220
  132OSM    H5G14262   3.220   5.131   7.267 -0.6650  1.5892  0.3684
  132OSM    C6F14263   3.327   5.230   7.426  0.0933  0.1623 -0.2104
  132OSM    H6F14264   3.255   5.315   7.429 -0.9691 -0.5946  4.7824
  132OSM    H6G14265   3.427   5.276   7.434 -0.0392  0.1809  1.8169
  132OSM    C7F14266   3.309   5.132   7.541  0.1638  0.5991 -0.8370
  132OSM    H7F14267   3.387   5.056   7.520  0.4442  1.1165 -1.7392
  132OSM    H7G14268   3.205   5.095   7.532 -0.3499  1.4500  1.1387
  132OSM    C8F14269   3.320   5.189   7.689  0.5490  0.9970  0.1143
  132OSM    H8F14270   3.261   5.283   7.692 -1.2596 -0.1255  0.8789
  132OSM    H8G14271   3.429   5.207   7.704  1.2761 -2.9265  0.5080
  132OSM    C9F14272   3.284   5.095   7.807  0.2226 -0.3343 -0.2941
  132OSM    H9F14273   3.368   5.039   7.850 -1.1603 -2.1264  0.1717
  132OSM   C10F14274   3.168   5.096   7.876 -0.5781 -0.0573  0.0884
  132OSM   H10F14275   3.151   5.017   7.951  0.1896 -0.9746 -0.6716
  132OSM   C11F14276   3.047   5.171   7.834  1.4828 -0.2681  0.1112
  132OSM   H11F14277   2.976   5.112   7.772 -0.9732  0.1701  2.3025
  132OSM   H11G14278   3.064   5.263   7.775  0.0993  0.8175  1.3006
  132OSM   C12F14279   2.980   5.233   7.966 -0.0798  0.8207 -0.0364
  132OSM   H12F14280   2.886   5.276   7.927 -1.7072 -1.2649  1.4026
  132OSM   H12G14281   3.040   5.321   8.000 -1.0830  1.2970  0.5293
  132OSM   C13F14282   2.958   5.144   8.092 -0.1890 -0.7860  0.0982
  132OSM   H13F14283   3.059   5.120   8.130  0.3124  1.7751  0.5493
  132OSM   H13G14284   2.910   5.048   8.062  2.6046 -1.2341 -3.4990
  132OSM   C14F14285   2.886   5.220   8.203  0.5224  0.1740 -0.5492
  132OSM   H14F14286   2.949   5.308   8.229 -0.4103  0.7277 -0.1123
  132OSM   H14G14287   2.880   5.160   8.296  0.8385  0.4858 -0.3252
  132OSM   C15F14288   2.741   5.254   8.182  0.7295  0.1223  0.2006
  132OSM   H15F14289   2.692   5.157   8.155  3.5070 -0.8842 -1.7423
  132OSM   H15G14290   2.731   5.312   8.088  0.6697  0.7510  0.5882
  132OSM   C16F14291   2.668   5.324   8.294  0.9678  0.0013 -0.5651
  132OSM   H16F14292   2.587   5.388   8.255  0.8751 -0.8996 -1.9412
  132OSM   H16G14293   2.735   5.389   8.354 -0.2379 -1.2194  2.3220
  132OSM   C17F14294   2.603   5.211   8.379  0.3326 -0.0702  0.0818
  132OSM   H17F14295   2.674   5.127   8.396  0.4997  0.5039  2.5929
  132OSM   H17G14296   2.517   5.162   8.328  0.1143 -1.5270  1.7587
  132OSM   C18F14297   2.539   5.258   8.508 -0.6998 -0.7184 -0.7254
  132OSM   H18F14298   2.614   5.320   8.564 -1.9850 -0.3843  0.7136
  132OSM   H18G14299   2.520   5.166   8.568  0.1800 -0.1903  0.4133
  132OSM   H18H14300   2.445   5.317   8.499 -0.9097 -0.0129  3.6789
  133SAPE     N14301   5.089   0.427  10.799  0.1709  0.7006 -0.0886
  133SAPE   HN114302   5.179   0.475  10.821 -0.1665  0.4104  2.1252
  133SAPE   HN214303   5.075   0.346  10.863  1.6841  0.4059 -0.0980
  133SAPE   HN314304   5.106   0.394  10.701 -1.7824 -0.1721 -0.1757
  133SAPE   C1214305   4.970   0.521  10.791  0.2297 -0.2497  0.5218
  133SAPE  H12A14306   4.972   0.602  10.866  1.7930  0.9682 -0.7461
  133SAPE  H12B14307   4.885   0.449  10.793  1.5325 -1.8264  1.4121
  133SAPE   C1114308   4.981   0.583  10.648 -0.3376 -0.0591 -0.2094
  133SAPE  H11A14309   4.887   0.640  10.630 -0.3792  0.5065  1.6097
  133SAPE  H11B14310   4.988   0.496  10.580 -0.7502 -0.6051  0.4392
  133SAPE     P14311   5.100   0.815  10.680 -0.0356 -0.0967 -0.3480
  133SAPE   O1314312   4.960   0.865  10.709 -0.3170  0.2926 -0.0667
  133SAPE   O1414313   5.204   0.839  10.782 -0.5599  0.5649  0.2878
  133SAPE   O1214314   5.105   0.659  10.632 -0.3715  0.4599  0.3302
  133SAPE   O1114315   5.148   0.896  10.558 -0.5985 -0.6678  0.2049
  133SAPE    C114316   5.270   0.873  10.488 -0.1065 -0.2772 -0.5286
  133SAPE    HA14317   5.349   0.945  10.522 -0.3286  0.6453 -1.9036
  133SAPE    HB14318   5.313   0.775  10.520 -0.0666  0.2487  1.1311
  133SAPE    C214319   5.260   0.873  10.335  0.3029  0.6247  0.2080
  133SAPE    HS14320   5.220   0.971  10.298  1.7771  1.2108  0.1082
  133SAPE   O2114321   5.177   0.757  10.303 -0.0961 -0.1862 -0.2472
  133SAPE   C2114322   5.050   0.785  10.280  0.2704  0.0661  0.1681
  133SAPE   O2214323   4.995   0.893  10.258  0.2091  0.0058  0.4583
  133SAPE   C2214324   4.963   0.655  10.298  0.3338 -0.1923  0.8027
  133SAPE   H2R14325   5.032   0.568  10.305  0.2902 -0.2077  1.0654
  133SAPE   H2S14326   4.911   0.654  10.397 -2.3374 -1.5813 -0.4886
  133SAPE    C314327   5.399   0.861  10.269 -0.6922  0.6935  0.2757
  133SAPE    HX14328   5.458   0.790  10.331 -0.0002  1.8826  1.0095
  133SAPE    HY14329   5.457   0.954  10.281 -1.0145  0.9984 -0.4833
  133SAPE   O3114330   5.397   0.815  10.135 -0.3317  0.0216  0.3472
  133SAPE   C3114331   5.419   0.688  10.102 -0.4448 -0.1357 -0.4297
  133SAPE   O3214332   5.442   0.596  10.180 -0.4929  0.2085 -0.2175
  133SAPE   C3214333   5.417   0.685   9.950  0.2230 -0.3630  0.1637
  133SAPE   H2X14334   5.488   0.761   9.909  1.1599 -1.6843 -0.7608
  133SAPE   H2Y14335   5.317   0.724   9.921  0.2010 -0.4093  0.1783
  133SAPE   C2314336   4.853   0.649  10.185  0.8046  1.0588 -0.0932
  133SAPE   H3R14337   4.907   0.680  10.093  0.0650  2.0068 -0.2279
  133SAPE   H3S14338   4.778   0.725  10.217 -0.1223  0.2529 -0.3074
  133SAPE   C2414339   4.784   0.513  10.162  0.3501  0.7564  0.6885
  133SAPE   H4R14340   4.860   0.432  10.164  1.2658  1.5928  2.4016
  133SAPE   H4S14341   4.737   0.513  10.061  2.0034 -1.8468 -0.1935
  133SAPE   C2514342   4.681   0.496  10.269  1.3218  0.0691 -0.2494
  133SAPE   H5R14343   4.714   0.530  10.368  0.9118 -0.1050 -0.0485
  133SAPE   C2614344   4.556   0.455  10.258 -0.0227 -0.7367 -0.2573
  133SAPE   H6R14345   4.505   0.423  10.351 -0.3868  0.7171  0.0732
  133SAPE   C2714346   4.485   0.413  10.136  0.1047 -0.4007 -0.0890
  133SAPE   H7R14347   4.413   0.331  10.158 -0.0633 -0.0029  0.8834
  133SAPE   H7S14348   4.557   0.374  10.060  0.6896 -0.9015  0.6981
  133SAPE   C2814349   4.412   0.537  10.076 -0.0718 -0.1621 -0.0310
  133SAPE   H8R14350   4.371   0.605  10.152  0.0477  1.8070 -1.6459
  133SAPE   C2914351   4.392   0.568   9.945 -0.8159  0.2213  0.3688
  133SAPE   H9R14352   4.328   0.656   9.929 -1.2338 -0.2000 -0.2998
  133SAPE  C21014353   4.440   0.489   9.820  0.3517 -0.8411  0.4665
  133SAPE  H10R14354   4.544   0.452   9.833  0.7716  0.7071  1.9450
  133SAPE  H10S14355   4.443   0.557   9.732  0.5644  0.9665  1.7934
  133SAPE  C21114356   4.351   0.371   9.804  0.3762  0.0033  0.6550
  133SAPE  H11R14357   4.351   0.303   9.890 -0.4883  1.5124  1.9100
  133SAPE  C21214358   4.273   0.343   9.700  0.1505 -0.1062  0.3828
  133SAPE  H12R14359   4.202   0.259   9.706 -2.0608  1.6112 -0.2027
  133SAPE  C21314360   4.260   0.436   9.576  0.0471 -0.5014 -0.3928
  133SAPE  H13R14361   4.361   0.434   9.530 -0.0243 -3.8188 -0.6832
  133SAPE  H13S14362   4.231   0.538   9.609 -1.0757 -1.0245  0.3024
  133SAPE  C21414363   4.170   0.392   9.467  0.1390 -0.0537  0.7023
  133SAPE  H14R14364   4.078   0.451   9.462 -0.8143 -1.5089  0.6025
  133SAPE  C21514365   4.194   0.293   9.374 -0.0438 -0.0390 -0.4056
  133SAPE  H15R14366   4.120   0.263   9.299 -1.2291  2.1651 -0.2008
  133SAPE  C21614367   4.312   0.198   9.370 -0.5311  0.8471 -0.4944
  133SAPE  H16R14368   4.280   0.097   9.401  2.5316  0.2689  1.2459
  133SAPE  H16S14369   4.394   0.220   9.441 -2.2916 -1.1846  2.3620
  133SAPE  C21714370   4.370   0.197   9.223 -0.3278 -0.3566  0.8763
  133SAPE  H17R14371   4.468   0.145   9.227 -0.2870 -0.2005  2.9034
  133SAPE  H17S14372   4.410   0.297   9.195 -1.7188  0.8500  2.8991
  133SAPE  C21814373   4.270   0.129   9.129 -0.4248  0.7816  0.1898
  133SAPE  H18R14374   4.183   0.196   9.114 -3.0441 -1.9159  2.1049
  133SAPE  H18S14375   4.220   0.044   9.181  1.1306  0.9101  2.0285
  133SAPE  C21914376   4.325   0.077   9.000  0.3108  0.0583  0.0262
  133SAPE  H19R14377   4.421   0.023   9.008  0.6791  0.5148 -1.0277
  133SAPE  H19S14378   4.343   0.167   8.938  0.7937 -0.4891 -0.6456
  133SAPE  C22014379   4.223  -0.016   8.932 -0.3021 -0.4880  0.1119
  133SAPE  H20R14380   4.270  -0.053   8.838  1.3876 -0.1883  0.7895
  133SAPE  H20S14381   4.127   0.037   8.917  0.1717  0.2924 -0.2474
  133SAPE  H20T14382   4.201  -0.104   8.995 -0.2796 -1.3804 -1.0877
  133SAPE   C3314383   5.444   0.541   9.893 -0.2223 -0.8753  0.3322
  133SAPE   H3X14384   5.398   0.458   9.950 -0.0121 -1.7483 -0.7465
  133SAPE   H3Y14385   5.551   0.515   9.908  0.1548  0.6636  0.4737
  133SAPE   C3414386   5.408   0.512   9.752  0.3057 -0.4602 -0.1836
  133SAPE   H4X14387   5.298   0.529   9.750  0.2673 -0.6656  0.1491
  133SAPE   H4Y14388   5.428   0.409   9.718 -0.4378 -0.7837  0.3406
  133SAPE   C3514389   5.485   0.607   9.657  0.9088 -0.5997 -0.1753
  133SAPE   H5X14390   5.586   0.627   9.700  0.8932 -2.2179  0.6849
  133SAPE   H5Y14391   5.433   0.705   9.664  1.9471 -0.1229  1.4572
  133SAPE   C3614392   5.515   0.560   9.516 -0.3000 -0.3273  0.0903
  133SAPE   H6X14393   5.577   0.470   9.495  0.2787  0.0257  0.2736
  133SAPE   H6Y14394   5.576   0.644   9.474  0.8984 -0.8655  0.7074
  133SAPE   C3714395   5.387   0.530   9.437 -0.7520  0.3226 -0.4216
  133SAPE   H7X14396   5.323   0.619   9.455 -0.5865  0.3048  0.2827
  133SAPE   H7Y14397   5.352   0.437   9.486 -1.0712 -0.0578 -1.3384
  133SAPE   C3814398   5.397   0.506   9.287  0.2849  0.4247  0.6445
  133SAPE   H8X14399   5.486   0.440   9.272 -0.4379 -0.0157 -2.6275
  133SAPE   H8Y14400   5.432   0.597   9.234 -0.2125  0.7826  0.9268
  133SAPE   C3914401   5.271   0.449   9.215  0.5477  0.1201 -0.6325
  133SAPE   H9X14402   5.176   0.503   9.237 -0.8946 -2.5286  0.0970
  133SAPE   H9Y14403   5.246   0.347   9.251 -0.4146 -0.2333 -2.2014
  133SAPE  C31014404   5.289   0.432   9.064 -0.4185 -0.1769  0.5975
  133SAPE  H10X14405   5.371   0.358   9.047  1.5024  2.0090 -0.0704
  133SAPE  H10Y14406   5.313   0.524   9.007  1.7340 -1.1712 -0.2498
  133SAPE  C31114407   5.157   0.368   8.999 -0.1624 -0.1895 -0.9513
  133SAPE  H11X14408   5.069   0.424   9.038 -0.1122 -0.7152 -0.0543
  133SAPE  H11Y14409   5.135   0.268   9.041 -2.6222  0.4235 -0.6172
  133SAPE  C31214410   5.165   0.350   8.850 -0.4975 -0.1775  0.0432
  133SAPE  H12X14411   5.245   0.275   8.832 -1.7720 -1.7483  0.5893
  133SAPE  H12Y14412   5.199   0.437   8.791 -0.5470  0.1148  0.4435
  133SAPE  C31314413   5.031   0.304   8.792 -0.6008  0.2348 -0.1492
  133SAPE  H13X14414   4.951   0.370   8.832  1.1507  1.5597  1.3098
  133SAPE  H13Y14415   5.021   0.198   8.825 -0.8088  0.4036  0.3389
  133SAPE  C31414416   5.020   0.286   8.640  0.0994 -0.0853 -0.2412
  133SAPE  H14X14417   5.118   0.242   8.610  0.0113  1.7884 -3.7586
  133SAPE  H14Y14418   5.007   0.387   8.597 -0.2712  0.1001  0.3043
  133SAPE  C31514419   4.897   0.201   8.602 -0.5155  0.1333  0.2913
  133SAPE  H15X14420   4.874   0.209   8.494 -1.0765 -3.5373  0.0203
  133SAPE  H15Y14421   4.806   0.246   8.648 -0.4999 -0.6336  1.0946
  133SAPE  C31614422   4.914   0.057   8.630  0.4367 -0.6002 -0.2675
  133SAPE  H16X14423   4.898   0.031   8.737 -2.2081 -2.1499 -0.9635
  133SAPE  H16Y14424   5.016   0.023   8.603  0.6761 -2.5127  2.5629
  133SAPE  C31714425   4.802  -0.033   8.572  0.0282  0.4620 -0.0222
  133SAPE  H17X14426   4.796  -0.007   8.464 -0.1873 -0.5648 -0.2679
  133SAPE  H17Y14427   4.701  -0.006   8.609 -0.5861 -0.3074 -1.0641
  133SAPE  C31814428   4.816  -0.184   8.593  0.1633 -0.3585  0.0826
  133SAPE  H18X14429   4.730  -0.234   8.543 -1.0887  1.5241  0.2599
  133SAPE  H18Y14430   4.837  -0.197   8.701 -2.8097  2.2462  1.1316
  133SAPE  H18Z14431   4.904  -0.229   8.543  0.7896  0.7789  0.1200
  134SAPE     N14432   1.381   2.902  10.958  0.0525  0.5107 -0.3188
  134SAPE   HN114433   1.407   2.914  11.059  0.9956  0.7456 -0.5770
  134SAPE   HN214434   1.475   2.886  10.916  1.3945  1.0403  2.2631
  134SAPE   HN314435   1.346   2.985  10.907  0.7327  0.7698 -0.3769
  134SAPE   C1214436   1.320   2.766  10.935  0.4981  0.1277 -0.1381
  134SAPE  H12A14437   1.211   2.781  10.948  0.5361  0.2812  0.0113
  134SAPE  H12B14438   1.359   2.695  11.011 -0.5078  1.6764  1.9556
  134SAPE   C1114439   1.339   2.724  10.789 -0.3566  0.5676  0.9099
  134SAPE  H11A14440   1.260   2.649  10.765  0.1080  0.2931  0.2054
  134SAPE  H11B14441   1.442   2.682  10.787 -0.0793  1.2653  0.5006
  134SAPE     P14442   1.231   2.848  10.578  0.5577 -0.0668  0.3704
  134SAPE   O1314443   1.098   2.861  10.648 -0.7569  0.0770  1.3528
  134SAPE   O1414444   1.265   2.960  10.488 -0.1106 -0.7048  0.1562
  134SAPE   O1214445   1.341   2.834  10.697  0.4637  0.2346 -0.8949
  134SAPE   O1114446   1.230   2.702  10.508 -0.6299  0.4132  0.0127
  134SAPE    C114447   1.357   2.647  10.470  0.1907  0.1047 -0.4272
  134SAPE    HA14448   1.432   2.646  10.552  1.8638 -2.4697 -1.8699
  134SAPE    HB14449   1.344   2.541  10.439  1.3925 -0.2411  0.1894
  134SAPE    C214450   1.443   2.717  10.356 -0.4634 -0.4325 -0.2820
  134SAPE    HS14451   1.519   2.785  10.400 -0.4481 -1.7149  1.7795
  134SAPE   O2114452   1.341   2.783  10.275 -0.2641  0.4452 -0.3830
  134SAPE   C2114453   1.391   2.881  10.201  0.4418 -0.0152  0.1689
  134SAPE   O2214454   1.498   2.932  10.212 -0.1011 -0.2640 -0.0567
  134SAPE   C2214455   1.289   2.910  10.090 -0.4065 -0.7721  0.0921
  134SAPE   H2R14456   1.189   2.940  10.127 -0.7757 -0.2743 -1.2479
  134SAPE   H2S14457   1.336   2.991  10.030  1.0891  0.3489  2.6568
  134SAPE    C314458   1.516   2.605  10.272  0.3958 -0.0695 -0.3593
  134SAPE    HX14459   1.434   2.531  10.268  0.2881  0.0515 -0.4178
  134SAPE    HY14460   1.595   2.559  10.334 -0.9898 -4.0247 -1.2502
  134SAPE   O3114461   1.560   2.651  10.142 -0.4582 -0.5912  0.1025
  134SAPE   C3114462   1.590   2.555  10.050 -0.5251  0.9300 -1.0044
  134SAPE   O3214463   1.595   2.437  10.078  0.1238 -0.2636  0.1309
  134SAPE   C3214464   1.644   2.620   9.923 -0.5283  0.3214  1.2136
  134SAPE   H2X14465   1.755   2.617   9.925 -0.4484  2.1348  1.6027
  134SAPE   H2Y14466   1.603   2.724   9.919 -0.5183  0.3309  1.3329
  134SAPE   C2314467   1.265   2.796   9.989  0.2364 -0.5099 -0.0730
  134SAPE   H3R14468   1.249   2.710  10.058  0.3985  1.2264  2.2817
  134SAPE   H3S14469   1.346   2.773   9.918  0.4934 -2.6336  0.8328
  134SAPE   C2414470   1.140   2.803   9.898  0.0346 -0.0332  0.2287
  134SAPE   H4R14471   1.157   2.886   9.825  0.3998  2.2642  2.7766
  134SAPE   H4S14472   1.050   2.840   9.951 -0.4615 -0.7335 -0.1077
  134SAPE   C2514473   1.114   2.659   9.847 -0.4906  0.4169  0.4827
  134SAPE   H5R14474   1.045   2.596   9.904  1.2456  0.2059  2.5009
  134SAPE   C2614475   1.158   2.620   9.727 -0.7984  0.0727 -0.0988
  134SAPE   H6R14476   1.137   2.516   9.698 -2.2217  0.2929  0.0798
  134SAPE   C2714477   1.236   2.699   9.630 -0.3754 -0.3375 -0.5199
  134SAPE   H7R14478   1.340   2.713   9.668 -0.2699 -2.6244  0.1627
  134SAPE   H7S14479   1.200   2.804   9.627 -0.0401 -0.2022  0.0887
  134SAPE   C2814480   1.232   2.642   9.491 -0.5137  0.0147  0.0440
  134SAPE   H8R14481   1.229   2.532   9.491  0.7462 -0.0703 -2.0307
  134SAPE   C2914482   1.226   2.702   9.370 -0.0046 -0.0175 -0.1424
  134SAPE   H9R14483   1.199   2.638   9.284 -3.1988  1.1871 -0.1522
  134SAPE  C21014484   1.217   2.851   9.332  0.1592  0.3838  0.7593
  134SAPE  H10R14485   1.287   2.864   9.247 -0.0525 -1.4440  0.2480
  134SAPE  H10S14486   1.265   2.907   9.415  1.5699 -0.2603  0.4093
  134SAPE  C21114487   1.084   2.912   9.309  0.7348  0.0731  0.2756
  134SAPE  H11R14488   1.048   2.984   9.384  1.6461  0.2287  0.5813
  134SAPE  C21214489   1.017   2.912   9.190  0.0888  0.1589 -0.0798
  134SAPE  H12R14490   0.935   2.985   9.178  0.6831  1.0218  1.0175
  134SAPE  C21314491   1.057   2.832   9.066 -0.3919  0.0441 -0.6824
  134SAPE  H13R14492   0.991   2.743   9.055 -0.4222 -0.1608  0.8382
  134SAPE  H13S14493   1.157   2.787   9.087 -1.6265 -1.9409  1.5127
  134SAPE  C21414494   1.069   2.910   8.933  0.2575 -0.5596 -0.5868
  134SAPE  H14R14495   1.161   2.971   8.928  0.6283 -0.8639  1.5679
  134SAPE  C21514496   0.975   2.919   8.837  0.0987  0.2566 -0.4186
  134SAPE  H15R14497   1.000   2.985   8.753  0.2030  1.2212  0.3526
  134SAPE  C21614498   0.845   2.850   8.838  0.3010 -0.5108  0.0090
  134SAPE  H16R14499   0.760   2.906   8.792 -1.4374 -1.9206  1.3306
  134SAPE  H16S14500   0.807   2.824   8.939  1.4483 -2.0552  0.0770
  134SAPE  C21714501   0.841   2.715   8.772  0.8129  0.2695 -0.1920
  134SAPE  H17R14502   0.738   2.677   8.793  1.0887 -0.4201 -0.0540
  134SAPE  H17S14503   0.901   2.632   8.814 -1.0267 -0.8080  0.4142
  134SAPE  C21814504   0.855   2.716   8.622 -0.4163 -0.1257 -0.5773
  134SAPE  H18R14505   0.961   2.731   8.592 -1.1732  0.7892 -3.0381
  134SAPE  H18S14506   0.792   2.798   8.581  1.9553  1.3377 -1.5372
  134SAPE  C21914507   0.801   2.581   8.556  0.4124 -0.1133  0.0333
  134SAPE  H19R14508   0.852   2.500   8.612  3.0314  1.8416  0.6324
  134SAPE  H19S14509   0.835   2.556   8.453  0.1227 -1.8388  0.3243
  134SAPE  C22014510   0.651   2.579   8.565  0.4571  0.6954  0.3942
  134SAPE  H20R14511   0.617   2.488   8.513  0.5613  1.3746 -0.8981
  134SAPE  H20S14512   0.606   2.651   8.494  2.9403  0.0441 -1.9907
  134SAPE  H20T14513   0.603   2.594   8.664  0.1357  1.0818  0.1807
  134SAPE   C3314514   1.593   2.531   9.806 -0.2369  0.0756 -0.0129
  134SAPE   H3X14515   1.482   2.534   9.807 -0.2777  0.2571  2.3888
  134SAPE   H3Y14516   1.622   2.427   9.830 -0.3107  0.6390  3.0381
  134SAPE   C3414517   1.657   2.583   9.673  0.1931 -0.7570  0.4700
  134SAPE   H4X14518   1.767   2.591   9.675  0.2561 -1.5120  0.3859
  134SAPE   H4Y14519   1.597   2.676   9.662 -0.5188 -1.1669  0.8272
  134SAPE   C3514520   1.618   2.490   9.546 -0.6731 -0.0253 -0.6528
  134SAPE   H5X14521   1.518   2.446   9.565 -1.2644  0.9777 -1.2832
  134SAPE   H5Y14522   1.677   2.397   9.538  0.7471  0.7049  0.8019
  134SAPE   C3614523   1.609   2.566   9.410 -0.1346  0.1031  0.4266
  134SAPE   H6X14524   1.713   2.599   9.389  0.7106 -2.2580  0.6063
  134SAPE   H6Y14525   1.566   2.667   9.426  1.3921  0.7263  0.8375
  134SAPE   C3714526   1.538   2.498   9.292 -0.4152  0.1891  0.5031
  134SAPE   H7X14527   1.433   2.482   9.324 -0.5501 -0.1756 -0.1060
  134SAPE   H7Y14528   1.585   2.401   9.265  0.3030  0.1350  1.8666
  134SAPE   C3814529   1.538   2.585   9.166 -0.4412  0.3727  0.2493
  134SAPE   H8X14530   1.643   2.602   9.135 -0.5000 -2.3899 -1.8638
  134SAPE   H8Y14531   1.493   2.686   9.180 -0.5918  0.8704 -3.0231
  134SAPE   C3914532   1.468   2.523   9.044 -0.0107 -0.6544 -0.2949
  134SAPE   H9X14533   1.362   2.503   9.068  0.4156 -1.2191  1.3307
  134SAPE   H9Y14534   1.512   2.422   9.029 -1.7320 -1.1094 -2.7826
  134SAPE  C31014535   1.501   2.613   8.917 -0.9085  0.2593  0.0825
  134SAPE  H10X14536   1.601   2.585   8.877 -0.8292  1.6810 -0.7449
  134SAPE  H10Y14537   1.512   2.716   8.957  1.1733  0.6813 -1.4366
  134SAPE  C31114538   1.393   2.591   8.818  0.8765  0.2016 -0.5892
  134SAPE  H11X14539   1.404   2.668   8.738 -0.4275  1.1013  0.0722
  134SAPE  H11Y14540   1.291   2.599   8.860 -0.7127 -0.2577 -4.0307
  134SAPE  C31214541   1.396   2.452   8.754  0.0914 -0.0772 -0.5140
  134SAPE  H12X14542   1.385   2.382   8.840  1.2759 -0.4080 -0.6078
  134SAPE  H12Y14543   1.499   2.446   8.714  0.5787  0.6516  0.5725
  134SAPE  C31314544   1.295   2.431   8.645 -0.3990  0.0840  0.2089
  134SAPE  H13X14545   1.315   2.497   8.559  1.4983 -0.8740 -0.1341
  134SAPE  H13Y14546   1.193   2.454   8.682 -0.9853  0.5326 -1.5953
  134SAPE  C31414547   1.295   2.287   8.592 -0.0105  0.4563 -0.2433
  134SAPE  H14X14548   1.293   2.212   8.674 -0.4496  0.7324  0.0080
  134SAPE  H14Y14549   1.392   2.265   8.544  1.6396  0.7285  2.7520
  134SAPE  C31514550   1.180   2.261   8.498  1.0362 -0.1094  0.4271
  134SAPE  H15X14551   1.203   2.296   8.395  0.8113 -1.1761  0.0022
  134SAPE  H15Y14552   1.088   2.299   8.546  0.8409  1.7327 -1.3022
  134SAPE  C31614553   1.146   2.110   8.483  0.7136 -0.1719 -0.1071
  134SAPE  H16X14554   1.139   2.061   8.582  1.3979 -0.0807 -0.0105
  134SAPE  H16Y14555   1.229   2.060   8.430  0.6778  0.9064 -1.2289
  134SAPE  C31714556   1.010   2.100   8.407  0.0498 -0.3969  0.1807
  134SAPE  H17X14557   1.026   2.163   8.317 -0.8513  1.3897  1.2140
  134SAPE  H17Y14558   0.924   2.142   8.464  0.3681  0.0073  0.3746
  134SAPE  C31814559   0.967   1.964   8.371  0.2601 -0.0590 -0.1592
  134SAPE  H18X14560   0.873   1.961   8.313  0.2726 -2.2901 -0.1640
  134SAPE  H18Y14561   0.949   1.905   8.464  0.8732 -0.0358 -0.0222
  134SAPE  H18Z14562   1.043   1.912   8.309  0.0829 -2.8006  1.7587
  135SAPE     N14563   0.602   0.899  10.530  0.2779  0.2836  0.3483
  135SAPE   HN114564   0.673   0.966  10.566  0.7099  0.0665 -0.0824
  135SAPE   HN214565   0.652   0.844  10.457  1.5681  2.1788 -0.2970
  135SAPE   HN314566   0.529   0.956  10.483 -0.9845  0.1818  2.0721
  135SAPE   C1214567   0.561   0.805  10.641 -0.0146  0.0754  0.2597
  135SAPE  H12A14568   0.530   0.861  10.731 -0.9917 -0.9838  0.6025
  135SAPE  H12B14569   0.653   0.749  10.667  0.2690  0.8294  0.9116
  135SAPE   C1114570   0.460   0.704  10.593  0.3765  0.2696  0.5472
  135SAPE  H11A14571   0.440   0.629  10.672  1.8588  2.1813  2.8897
  135SAPE  H11B14572   0.497   0.645  10.507 -2.6979 -0.3746 -0.4564
  135SAPE     P14573   0.203   0.684  10.539 -0.2363 -0.0818 -0.0149
  135SAPE   O1314574   0.218   0.547  10.588 -0.3503  0.0835  0.9010
  135SAPE   O1414575   0.089   0.771  10.582 -0.5695 -0.0029  0.3241
  135SAPE   O1214576   0.338   0.771  10.561  0.5405 -0.1356 -0.0235
  135SAPE   O1114577   0.204   0.669  10.383 -0.0220 -0.0955 -0.1045
  135SAPE    C114578   0.210   0.775  10.287  0.1299  0.2160  0.3569
  135SAPE    HA14579   0.136   0.753  10.208 -1.3586 -2.2235  2.3109
  135SAPE    HB14580   0.183   0.876  10.324 -3.1331 -1.2102  2.2883
  135SAPE    C214581   0.351   0.775  10.228 -0.0109  0.2587 -0.2621
  135SAPE    HS14582   0.436   0.750  10.295  0.0337  1.1898  0.0407
  135SAPE   O2114583   0.373   0.892  10.152  0.4553 -0.3417 -0.4898
  135SAPE   C2114584   0.426   0.996  10.219 -0.8501 -0.0452 -0.0556
  135SAPE   O2214585   0.459   0.987  10.336  0.2363 -0.2023 -0.4504
  135SAPE   C2214586   0.460   1.102  10.111 -0.2427 -0.5926  0.0651
  135SAPE   H2R14587   0.483   1.039  10.022 -1.8041 -0.7733 -0.2419
  135SAPE   H2S14588   0.371   1.160  10.079  0.3201  0.0405 -0.3947
  135SAPE    C314589   0.374   0.646  10.141 -0.1494 -0.6440  0.0488
  135SAPE    HX14590   0.310   0.635  10.051 -0.3280 -2.5444  0.3664
  135SAPE    HY14591   0.353   0.563  10.212  1.2059 -0.6679  0.4510
  135SAPE   O3114592   0.508   0.612  10.107 -0.5048 -0.6707  0.2260
  135SAPE   C3114593   0.526   0.531   9.999  1.1068  0.8243 -0.4908
  135SAPE   O3214594   0.436   0.472   9.944 -0.3698 -0.4706 -0.2656
  135SAPE   C3214595   0.667   0.558   9.954 -0.1055 -0.1371 -0.9943
  135SAPE   H2X14596   0.733   0.546  10.042 -1.9539 -2.0252  0.2381
  135SAPE   H2Y14597   0.666   0.665   9.927 -0.5239  0.5698  1.5467
  135SAPE   C2314598   0.578   1.191  10.157  0.6390 -0.1110 -0.8604
  135SAPE   H3R14599   0.653   1.132  10.214 -0.9572 -1.3318  0.0735
  135SAPE   H3S14600   0.535   1.258  10.234  1.0875 -1.2363  0.4169
  135SAPE   C2414601   0.651   1.268  10.048 -0.0991 -0.7618  0.0019
  135SAPE   H4R14602   0.578   1.339  10.005 -0.7649 -0.1281  2.0422
  135SAPE   H4S14603   0.683   1.200   9.966 -0.0578  0.9379 -1.4361
  135SAPE   C2514604   0.779   1.343  10.091  0.1854 -0.1058 -0.3760
  135SAPE   H5R14605   0.843   1.281  10.155  0.7885  0.2261 -0.6447
  135SAPE   C2614606   0.823   1.461  10.049 -1.2347  0.1552 -0.4020
  135SAPE   H6R14607   0.917   1.498  10.093 -0.4818 -0.2300 -1.6549
  135SAPE   C2714608   0.755   1.548   9.947  0.5525 -0.7592 -0.3204
  135SAPE   H7R14609   0.645   1.547   9.964  0.6403 -1.0694  0.2430
  135SAPE   H7S14610   0.777   1.510   9.844 -2.2954 -0.6843 -1.0529
  135SAPE   C2814611   0.799   1.690   9.957  0.5360  0.1250  0.0323
  135SAPE   H8R14612   0.861   1.719  10.043 -0.0380  1.0744  0.1372
  135SAPE   C2914613   0.793   1.790   9.868  0.4859  0.0333  0.1550
  135SAPE   H9R14614   0.830   1.892   9.887  1.7032 -0.3364 -0.1501
  135SAPE  C21014615   0.736   1.771   9.734  1.0979  0.2460  0.0346
  135SAPE  H10R14616   0.698   1.872   9.710  0.2068 -0.0412  0.1752
  135SAPE  H10S14617   0.650   1.699   9.732  0.2318  1.2623 -0.0145
  135SAPE  C21114618   0.830   1.717   9.635  0.0561 -0.1977  0.6282
  135SAPE  H11R14619   0.895   1.636   9.670 -0.2292 -0.3486  0.8033
  135SAPE  C21214620   0.845   1.765   9.504  0.7276 -0.6215 -0.5421
  135SAPE  H12R14621   0.911   1.704   9.441  3.0580 -0.4251  1.5490
  135SAPE  C21314622   0.766   1.876   9.448  0.6450 -0.2988 -0.3073
  135SAPE  H13R14623   0.761   1.956   9.524  2.2035 -0.3710 -0.1008
  135SAPE  H13S14624   0.661   1.840   9.439  0.5631  0.0820 -1.0312
  135SAPE  C21414625   0.830   1.941   9.326 -0.1948  0.1835  0.0445
  135SAPE  H14R14626   0.894   2.024   9.359  2.8244 -1.0906 -2.2142
  135SAPE  C21514627   0.804   1.922   9.195  0.4734  0.8684 -0.1697
  135SAPE  H15R14628   0.852   1.988   9.122  0.9452 -2.4277 -3.0816
  135SAPE  C21614629   0.704   1.818   9.154 -0.0892  0.0005  0.4844
  135SAPE  H16R14630   0.599   1.856   9.159 -0.6258 -1.3854  0.3733
  135SAPE  H16S14631   0.717   1.734   9.225  2.0955 -2.2132 -2.2505
  135SAPE  C21714632   0.743   1.770   9.008  0.5600  0.0659 -1.4370
  135SAPE  H17R14633   0.678   1.683   8.987  1.4219 -0.8829 -0.3569
  135SAPE  H17S14634   0.844   1.722   9.002 -0.5990 -2.9310  0.6551
  135SAPE  C21814635   0.715   1.877   8.905 -0.5738  0.1758 -0.1958
  135SAPE  H18R14636   0.793   1.956   8.914 -1.1261  1.3009 -3.8362
  135SAPE  H18S14637   0.617   1.924   8.928 -1.1886 -0.6634 -1.0255
  135SAPE  C21914638   0.711   1.821   8.762 -0.3578 -0.2649  0.6984
  135SAPE  H19R14639   0.612   1.778   8.740 -0.0564 -0.4173 -0.3957
  135SAPE  H19S14640   0.781   1.735   8.766  1.0651  0.8952  2.7136
  135SAPE  C22014641   0.744   1.916   8.644 -0.1194 -0.1884  0.3589
  135SAPE  H20R14642   0.677   2.004   8.653  1.1086  0.6630  1.3586
  135SAPE  H20S14643   0.736   1.863   8.547  0.8746 -3.1306  1.7555
  135SAPE  H20T14644   0.844   1.960   8.663 -1.0752  2.3667 -0.1133
  135SAPE   C3314645   0.699   0.465   9.833  0.2611 -0.1482  0.9258
  135SAPE   H3X14646   0.663   0.362   9.852  0.6076 -0.2011  1.3038
  135SAPE   H3Y14647   0.810   0.463   9.830  0.2890  0.4953  1.2476
  135SAPE   C3414648   0.649   0.525   9.703  0.1281 -0.5478  0.5032
  135SAPE   H4X14649   0.702   0.620   9.679 -1.1670 -0.4785 -2.4465
  135SAPE   H4Y14650   0.541   0.550   9.710  0.1870  0.0396 -0.6043
  135SAPE   C3514651   0.672   0.426   9.585 -0.0535  0.6216  0.3758
  135SAPE   H5X14652   0.586   0.356   9.589  0.4093 -0.0454 -0.7414
  135SAPE   H5Y14653   0.759   0.365   9.618 -1.1857  0.0076  2.3650
  135SAPE   C3614654   0.702   0.487   9.445  0.0104 -0.3093  0.1442
  135SAPE   H6X14655   0.781   0.564   9.455  0.3014 -0.8397  2.3226
  135SAPE   H6Y14656   0.606   0.541   9.427  0.3930  0.2312 -0.2868
  135SAPE   C3714657   0.719   0.392   9.328 -0.1736  0.1068  0.3764
  135SAPE   H7X14658   0.626   0.333   9.319  0.5437 -0.9404 -0.3613
  135SAPE   H7Y14659   0.794   0.311   9.344 -0.8664 -0.1334  2.7903
  135SAPE   C3814660   0.764   0.459   9.195  0.3720 -0.8872  0.2318
  135SAPE   H8X14661   0.785   0.379   9.121  2.8777  0.4360 -0.5707
  135SAPE   H8Y14662   0.856   0.509   9.231 -0.0105 -0.7513  1.0438
  135SAPE   C3914663   0.663   0.559   9.137  0.0321 -0.1477  0.0166
  135SAPE   H9X14664   0.655   0.655   9.194  0.2139  1.0184 -1.8543
  135SAPE   H9Y14665   0.556   0.530   9.149 -0.9401  2.7664 -0.6689
  135SAPE  C31014666   0.691   0.601   8.994  0.6026 -0.2944 -0.3481
  135SAPE  H10X14667   0.660   0.522   8.923 -2.7070 -1.0066  1.6834
  135SAPE  H10Y14668   0.799   0.624   8.984  0.0444  1.9615 -1.9512
  135SAPE  C31114669   0.617   0.727   8.942 -0.0020  0.2582  0.0294
  135SAPE  H11X14670   0.659   0.804   9.010 -0.2805  0.9234 -0.5322
  135SAPE  H11Y14671   0.509   0.708   8.954 -0.5369  1.5802 -2.1459
  135SAPE  C31214672   0.638   0.767   8.797  0.0842 -0.2088  1.5034
  135SAPE  H12X14673   0.575   0.703   8.730 -0.3453  0.6589  1.0574
  135SAPE  H12Y14674   0.743   0.754   8.762 -0.5053 -0.5666 -0.2586
  135SAPE  C31314675   0.581   0.904   8.764  0.2079 -0.6194 -0.5956
  135SAPE  H13X14676   0.671   0.965   8.789 -0.0897 -0.4953  0.1855
  135SAPE  H13Y14677   0.512   0.934   8.846 -1.0911  0.9299 -2.1681
  135SAPE  C31414678   0.528   0.915   8.621  0.0559  0.1973 -0.0906
  135SAPE  H14X14679   0.429   0.864   8.614 -1.0625  1.0824  5.3078
  135SAPE  H14Y14680   0.592   0.854   8.554  0.3137 -0.0311  0.3595
  135SAPE  C31514681   0.530   1.056   8.577 -0.1610 -0.4233 -0.1684
  135SAPE  H15X14682   0.634   1.091   8.561 -0.1958  1.0205  2.3079
  135SAPE  H15Y14683   0.475   1.113   8.654 -2.9708  1.3841 -3.2230
  135SAPE  C31614684   0.429   1.073   8.455 -0.0878  0.3159 -0.0615
  135SAPE  H16X14685   0.326   1.047   8.485 -0.5416  1.3838 -0.6126
  135SAPE  H16Y14686   0.459   1.005   8.373 -2.2374 -0.9104  0.1025
  135SAPE  C31714687   0.432   1.207   8.376  0.2847  0.5452  0.3479
  135SAPE  H17X14688   0.532   1.207   8.326  1.0325 -3.3823  1.5230
  135SAPE  H17Y14689   0.442   1.294   8.444  1.0165  1.3888 -0.7994
  135SAPE  C31814690   0.317   1.236   8.278 -0.3368  0.3288  0.4350
  135SAPE  H18X14691   0.220   1.253   8.329 -2.3514 -1.8396 -2.3065
  135SAPE  H18Y14692   0.305   1.147   8.212 -0.5257  0.5836  0.1187
  135SAPE  H18Z14693   0.340   1.321   8.210 -1.9900  0.6729  0.2439
  136SAPE     N14694   3.786   6.726  10.999  0.5808 -0.5275  0.4698
  136SAPE   HN114695   3.700   6.761  11.045  1.6578  1.7006  0.9231
  136SAPE   HN214696   3.820   6.654  11.066 -1.7891 -0.0918  2.2297
  136SAPE   HN314697   3.862   6.795  11.016  1.4068 -1.1668 -0.4424
  136SAPE   C1214698   3.776   6.682  10.852 -0.0306  0.6536  0.1754
  136SAPE  H12A14699   3.721   6.762  10.799  1.6694  0.4441 -2.0332
  136SAPE  H12B14700   3.719   6.587  10.851  0.0937  0.4544  2.8337
  136SAPE   C1114701   3.918   6.665  10.791 -0.2871 -0.2813 -0.5547
  136SAPE  H11A14702   3.964   6.763  10.766  2.5408 -0.9720  1.5048
  136SAPE  H11B14703   3.899   6.617  10.692  1.9239 -0.1355 -1.1000
  136SAPE     P14704   3.988   6.432  10.884 -0.2843  0.3600 -0.3366
  136SAPE   O1314705   4.125   6.368  10.920  0.6575 -0.5544  0.4384
  136SAPE   O1414706   3.873   6.412  10.976 -0.5232 -0.1675  0.0894
  136SAPE   O1214707   4.012   6.589  10.869 -0.1544 -0.3344 -0.3962
  136SAPE   O1114708   3.948   6.373  10.745 -0.7083 -0.0403  1.2354
  136SAPE    C114709   4.054   6.375  10.642  0.3120  0.7785  0.7099
  136SAPE    HA14710   4.123   6.461  10.657  0.0124  1.1296  0.1194
  136SAPE    HB14711   4.116   6.283  10.647  1.3026  1.4903  3.9692
  136SAPE    C214712   3.988   6.384  10.498  0.6979  0.2402  0.0902
  136SAPE    HS14713   3.890   6.435  10.509  1.1565  0.8060  1.8432
  136SAPE   O2114714   3.976   6.246  10.447  0.0990 -0.0672  0.5965
  136SAPE   C2114715   3.879   6.223  10.355 -0.1961 -0.0881  0.4269
  136SAPE   O2214716   3.797   6.306  10.316 -0.7885  0.5971 -0.1770
  136SAPE   C2214717   3.882   6.076  10.291  0.3090 -0.5372 -0.5692
  136SAPE   H2R14718   3.923   6.002  10.363 -0.5557 -2.7463 -2.2328
  136SAPE   H2S14719   3.781   6.043  10.260  0.0918 -2.5907  1.9926
  136SAPE    C314720   4.073   6.463  10.402 -0.2954 -1.0149 -0.3692
  136SAPE    HX14721   4.161   6.402  10.374  0.7601  1.0254 -1.7732
  136SAPE    HY14722   4.114   6.553  10.452 -1.8759 -1.2659  1.4646
  136SAPE   O3114723   4.014   6.486  10.275 -0.3770  0.7560 -0.2416
  136SAPE   C3114724   3.919   6.586  10.267 -0.7150  0.9603 -0.2890
  136SAPE   O3214725   3.879   6.651  10.361 -0.2095 -0.1274  0.2033
  136SAPE   C3214726   3.872   6.597  10.130 -0.6648  0.3774  0.0725
  136SAPE   H2X14727   3.887   6.501  10.077 -0.3939  0.8964 -0.8052
  136SAPE   H2Y14728   3.927   6.677  10.076 -0.0247  0.5067  0.8816
  136SAPE   C2314729   3.972   6.064  10.173  0.1322 -0.2801  0.1724
  136SAPE   H3R14730   3.990   5.958  10.145 -0.7066  0.1268 -2.1156
  136SAPE   H3S14731   4.073   6.099  10.205  0.2318 -3.0858  3.4709
  136SAPE   C2414732   3.943   6.166  10.059 -0.1418  0.7330 -0.0038
  136SAPE   H4R14733   3.927   6.270  10.095  2.9438  0.0791  3.9932
  136SAPE   H4S14734   3.843   6.127  10.031  0.4236 -0.9497  0.1658
  136SAPE   C2514735   4.051   6.162   9.952 -0.1544  0.0954 -0.1590
  136SAPE   H5R14736   4.158   6.152   9.975  0.1181  0.5437 -1.1832
  136SAPE   C2614737   4.041   6.147   9.819  0.4127 -0.3054  0.0536
  136SAPE   H6R14738   4.134   6.139   9.760 -0.6900 -1.3488 -1.6244
  136SAPE   C2714739   3.906   6.136   9.747 -0.3079 -0.4785  0.2499
  136SAPE   H7R14740   3.824   6.158   9.818  0.1963  0.0362  0.6931
  136SAPE   H7S14741   3.907   6.030   9.714 -0.0438 -0.9283  1.6312
  136SAPE   C2814742   3.891   6.229   9.634  0.3107  0.3535  0.3422
  136SAPE   H8R14743   3.908   6.334   9.664  2.2053 -0.5261  2.5849
  136SAPE   C2914744   3.860   6.200   9.504 -0.0839 -0.6490  0.2106
  136SAPE   H9R14745   3.826   6.284   9.443  0.1537 -0.5260  0.2434
  136SAPE  C21014746   3.837   6.065   9.446  0.3600 -0.0492  0.2214
  136SAPE  H10R14747   3.749   6.072   9.378  0.8437 -0.6705 -0.4847
  136SAPE  H10S14748   3.799   6.001   9.528 -0.9635  2.1954  1.4748
  136SAPE  C21114749   3.959   6.003   9.381  0.4229  0.0641  0.2708
  136SAPE  H11R14750   4.050   5.993   9.441  0.2579  1.6210  0.8281
  136SAPE  C21214751   3.962   5.933   9.263 -0.5763  0.4193  0.1057
  136SAPE  H12R14752   4.065   5.912   9.234  0.0570  2.2021  0.9182
  136SAPE  C21314753   3.849   5.905   9.169 -1.0632  0.1457 -0.0125
  136SAPE  H13R14754   3.842   5.990   9.098  1.6594 -0.6805 -1.3833
  136SAPE  H13S14755   3.754   5.896   9.226 -0.7013 -2.1862  0.3367
  136SAPE  C21414756   3.876   5.781   9.081  0.8988  0.1518 -0.6529
  136SAPE  H14R14757   3.848   5.690   9.137  0.3311  1.1243  0.7124
  136SAPE  C21514758   3.910   5.768   8.950 -0.4737 -0.4522  0.1496
  136SAPE  H15R14759   3.906   5.666   8.907 -0.6695 -1.4104  2.3091
  136SAPE  C21614760   3.941   5.872   8.847  0.0545 -0.3477 -0.0488
  136SAPE  H16R14761   4.042   5.867   8.802 -0.8209 -0.8319 -2.0488
  136SAPE  H16S14762   3.914   5.972   8.887 -0.0501 -1.4330  2.8419
  136SAPE  C21714763   3.831   5.871   8.744 -0.1563 -0.1497 -0.8199
  136SAPE  H17R14764   3.839   5.961   8.680 -0.8097 -0.0776 -0.8035
  136SAPE  H17S14765   3.731   5.888   8.788  0.6543  3.6808 -0.0959
  136SAPE  C21814766   3.825   5.748   8.658 -1.5156  0.1999 -0.6103
  136SAPE  H18R14767   3.720   5.753   8.622 -2.5001  2.1986  2.1728
  136SAPE  H18S14768   3.831   5.653   8.715  1.3507 -0.2386 -1.5112
  136SAPE  C21914769   3.942   5.726   8.550  0.1029 -0.2208  0.0184
  136SAPE  H19R14770   4.041   5.702   8.594  1.3981  3.6820 -0.4023
  136SAPE  H19S14771   3.943   5.816   8.485  1.0713 -1.0246 -1.0993
  136SAPE  C22014772   3.912   5.608   8.454 -0.2310  0.1737 -0.2944
  136SAPE  H20R14773   3.911   5.505   8.495 -1.0749 -0.5971 -2.1550
  136SAPE  H20S14774   3.984   5.604   8.370  1.4888  0.1906  1.1012
  136SAPE  H20T14775   3.820   5.624   8.394  1.2539  1.1614 -2.4269
  136SAPE   C3314776   3.722   6.636  10.128  0.2372 -0.1312 -0.5958
  136SAPE   H3X14777   3.705   6.745  10.145 -0.3376 -0.2370 -0.4852
  136SAPE   H3Y14778   3.660   6.586  10.205  2.5370 -1.5628  0.4198
  136SAPE   C3414779   3.653   6.568  10.007  0.2970  0.5526  0.5425
  136SAPE   H4X14780   3.545   6.553  10.026  0.8297 -1.9163  2.1522
  136SAPE   H4Y14781   3.686   6.463   9.993 -0.1285  0.0423  3.0000
  136SAPE   C3514782   3.684   6.631   9.870  0.6520 -0.1298 -0.3323
  136SAPE   H5X14783   3.792   6.628   9.841  0.6675 -2.7861 -0.2439
  136SAPE   H5Y14784   3.656   6.738   9.881 -0.1293 -0.3654  0.0690
  136SAPE   C3614785   3.599   6.585   9.752 -0.8620  0.6050 -0.0529
  136SAPE   H6X14786   3.497   6.625   9.768 -0.2994  1.3093  1.9803
  136SAPE   H6Y14787   3.610   6.474   9.742 -0.3658  0.6799 -0.3982
  136SAPE   C3714788   3.652   6.641   9.619  0.4684 -0.6609 -0.4865
  136SAPE   H7X14789   3.762   6.641   9.632  0.5349 -0.1719 -0.9864
  136SAPE   H7Y14790   3.625   6.748   9.608  0.5520 -0.5036  0.6896
  136SAPE   C3814791   3.611   6.562   9.494 -0.7334 -0.8681 -0.3083
  136SAPE   H8X14792   3.502   6.565   9.472 -0.5748 -1.1386 -1.1929
  136SAPE   H8Y14793   3.651   6.460   9.510  2.6735  0.4439  0.3945
  136SAPE   C3914794   3.680   6.623   9.361 -0.7614  0.2491  0.0367
  136SAPE   H9X14795   3.790   6.608   9.373 -0.9021 -1.2661 -0.3584
  136SAPE   H9Y14796   3.671   6.734   9.368 -1.9199  0.2700 -1.2254
  136SAPE  C31014797   3.627   6.562   9.235  0.1402 -0.3356 -0.0537
  136SAPE  H10X14798   3.629   6.633   9.150 -1.1662 -1.0966 -0.7612
  136SAPE  H10Y14799   3.521   6.535   9.254  0.0800  1.2768  2.3020
  136SAPE  C31114800   3.703   6.437   9.189 -0.4544 -0.4983  0.3730
  136SAPE  H11X14801   3.629   6.403   9.114 -0.6912 -0.6261  0.6626
  136SAPE  H11Y14802   3.715   6.362   9.271 -2.1139 -2.2290 -0.8965
  136SAPE  C31214803   3.826   6.460   9.104 -0.3457  0.2673  0.4428
  136SAPE  H12X14804   3.918   6.487   9.161 -0.0739 -0.5934  0.4310
  136SAPE  H12Y14805   3.814   6.555   9.048  2.5510  0.4690 -0.0033
  136SAPE  C31314806   3.859   6.346   9.023  0.4613  0.2592  0.4380
  136SAPE  H13X14807   3.764   6.301   8.988  1.4852  0.1879 -2.4307
  136SAPE  H13Y14808   3.910   6.269   9.085  1.6918 -2.2288 -3.3244
  136SAPE  C31414809   3.957   6.382   8.912 -0.8187  0.4576  0.4000
  136SAPE  H14X14810   4.007   6.294   8.867 -0.3652  1.4580 -1.0724
  136SAPE  H14Y14811   4.039   6.446   8.949  0.6609 -0.9646 -0.3167
  136SAPE  C31514812   3.896   6.456   8.795 -0.1471 -0.3829 -0.8713
  136SAPE  H15X14813   3.826   6.534   8.831 -0.8018 -0.2256 -2.3960
  136SAPE  H15Y14814   3.832   6.380   8.744  0.3018 -2.2729  1.2421
  136SAPE  C31614815   4.009   6.527   8.715 -0.1100 -0.4585 -0.1086
  136SAPE  H16X14816   4.056   6.444   8.657 -0.0551 -0.0098 -0.7082
  136SAPE  H16Y14817   4.071   6.587   8.785 -2.6115  1.3053  0.7558
  136SAPE  C31714818   3.971   6.641   8.613 -0.0765 -0.2047 -0.6845
  136SAPE  H17X14819   3.895   6.609   8.538  0.7401 -0.8333 -1.2544
  136SAPE  H17Y14820   4.062   6.661   8.553  1.4329 -1.6190  1.0062
  136SAPE  C31814821   3.941   6.766   8.689  0.4059  0.3038  0.1735
  136SAPE  H18X14822   4.009   6.793   8.773  0.7189  0.7331 -0.2113
  136SAPE  H18Y14823   3.846   6.751   8.745  0.7706 -1.5176  0.3626
  136SAPE  H18Z14824   3.924   6.854   8.624 -1.1011  0.4740  0.7548
  137SAPE     N14825   2.599   4.575  10.755  0.3410  0.3028  0.1767
  137SAPE   HN114826   2.545   4.664  10.760 -0.6651 -0.1130 -1.9515
  137SAPE   HN214827   2.576   4.520  10.840  0.3246  2.2685  1.4794
  137SAPE   HN314828   2.700   4.595  10.747  0.1917  0.5475 -1.5131
  137SAPE   C1214829   2.551   4.483  10.643 -1.1658  0.5026 -0.1677
  137SAPE  H12A14830   2.593   4.382  10.664  1.0257  0.9210 -2.1037
  137SAPE  H12B14831   2.586   4.535  10.551 -2.1756  3.3962  0.9811
  137SAPE   C1114832   2.397   4.481  10.645 -0.6657  0.3372 -0.3748
  137SAPE  H11A14833   2.363   4.408  10.568  1.4888 -1.2350  0.0417
  137SAPE  H11B14834   2.370   4.585  10.617  2.7224  2.5093  3.3412
  137SAPE     P14835   2.183   4.445  10.799 -0.1196  0.2938 -0.1159
  137SAPE   O1314836   2.131   4.308  10.800 -0.4897 -0.0692 -0.1765
  137SAPE   O1414837   2.146   4.536  10.910  0.3580  0.7229  0.1993
  137SAPE   O1214838   2.342   4.456  10.776  0.3662 -0.1380 -0.0029
  137SAPE   O1114839   2.139   4.520  10.675 -0.2849 -0.0178  0.0820
  137SAPE    C114840   2.012   4.498  10.611 -0.5134 -0.6404 -0.1942
  137SAPE    HA14841   1.950   4.429  10.672 -0.7829 -0.2837 -0.0597
  137SAPE    HB14842   1.959   4.596  10.601  0.5515  0.0838  0.9820
  137SAPE    C214843   2.022   4.421  10.475  0.3524  0.1701 -0.4610
  137SAPE    HS14844   2.081   4.335  10.512 -1.0147 -0.5300  0.1640
  137SAPE   O2114845   2.103   4.503  10.389  0.1532 -0.5210  0.5335
  137SAPE   C2114846   2.170   4.438  10.302 -0.2162 -0.8233 -0.6187
  137SAPE   O2214847   2.195   4.321  10.301  0.2920  0.5593  0.4321
  137SAPE   C2214848   2.243   4.543  10.214 -1.1782 -0.1226 -0.0382
  137SAPE   H2R14849   2.194   4.641  10.236 -2.6390 -0.2093 -2.5529
  137SAPE   H2S14850   2.349   4.553  10.246 -0.9432 -0.6677 -0.6268
  137SAPE    C314851   1.885   4.379  10.422 -0.1914 -0.0110 -0.0593
  137SAPE    HX14852   1.832   4.472  10.392 -0.8418  0.0055  1.1092
  137SAPE    HY14853   1.826   4.337  10.506  1.5564 -0.6241  0.9230
  137SAPE   O3114854   1.892   4.297  10.306 -0.3093 -0.5752 -0.3415
  137SAPE   C3114855   1.920   4.169  10.339 -0.7060 -0.7270 -0.0972
  137SAPE   O3214856   1.955   4.128  10.450  0.0519 -0.6375 -0.7704
  137SAPE   C3214857   1.902   4.066  10.221 -0.4904 -0.1679  0.1740
  137SAPE   H2X14858   1.792   4.051  10.212 -0.2887 -0.6266 -2.0344
  137SAPE   H2Y14859   1.958   3.977  10.254 -2.1066 -0.6671  1.7368
  137SAPE   C2314860   2.232   4.517  10.060  0.6893 -0.6419 -0.3233
  137SAPE   H3R14861   2.304   4.434  10.043  2.3111  0.1308  2.3144
  137SAPE   H3S14862   2.271   4.608  10.010  0.4179 -0.5220 -0.3178
  137SAPE   C2414863   2.088   4.498  10.006  0.1855  0.2216 -0.1932
  137SAPE   H4R14864   2.052   4.601   9.986 -0.3241 -0.0441 -0.6546
  137SAPE   H4S14865   2.025   4.443  10.079  0.5914  0.8427  0.6429
  137SAPE   C2514866   2.112   4.411   9.884  0.9488 -0.7222  0.0823
  137SAPE   H5R14867   2.167   4.317   9.904  1.9930 -0.2593 -0.5475
  137SAPE   C2614868   2.078   4.434   9.752  0.3737 -0.0547 -0.3884
  137SAPE   H6R14869   2.106   4.356   9.679 -1.4815 -1.8882  0.7673
  137SAPE   C2714870   2.019   4.557   9.694  0.2558 -0.1365 -0.0117
  137SAPE   H7R14871   1.996   4.634   9.771 -2.4881  0.4027 -1.2325
  137SAPE   H7S14872   1.921   4.534   9.647 -0.3721 -2.9428  2.4281
  137SAPE   C2814873   2.114   4.629   9.590  0.3283  1.0935 -0.7823
  137SAPE   H8R14874   2.151   4.728   9.621 -0.6647  1.5094 -0.8842
  137SAPE   C2914875   2.115   4.596   9.456  0.0289  0.3030 -0.0361
  137SAPE   H9R14876   2.187   4.654   9.395 -0.1853  0.7069  0.0920
  137SAPE  C21014877   2.044   4.485   9.387  0.1468  0.1882 -0.1769
  137SAPE  H10R14878   1.982   4.521   9.302 -0.7275 -0.9380 -0.0352
  137SAPE  H10S14879   1.976   4.430   9.455 -1.9522  0.6869 -1.7799
  137SAPE  C21114880   2.133   4.373   9.325 -0.2861  0.3018 -1.2781
  137SAPE  H11R14881   2.220   4.358   9.390 -1.1063 -0.4214 -0.3103
  137SAPE  C21214882   2.131   4.322   9.209  0.0260  0.5087  0.8973
  137SAPE  H12R14883   2.201   4.238   9.198 -0.1710  0.2962  1.2300
  137SAPE  C21314884   2.028   4.345   9.102 -0.2590 -0.6509 -0.0977
  137SAPE  H13R14885   1.945   4.406   9.143  0.8161  0.7416  0.1171
  137SAPE  H13S14886   1.975   4.250   9.081  1.4753 -1.9193  0.9938
  137SAPE  C21414887   2.091   4.394   8.974 -0.0086  0.0851 -0.0192
  137SAPE  H14R14888   2.120   4.500   8.982  0.0017  0.1118 -0.3986
  137SAPE  C21514889   2.123   4.324   8.868  0.0571 -0.6190  0.1248
  137SAPE  H15R14890   2.164   4.385   8.786 -3.0627  0.3958 -0.8037
  137SAPE  C21614891   2.101   4.181   8.840  0.2694  0.2480 -0.1260
  137SAPE  H16R14892   2.064   4.131   8.932  2.9329  1.3095  1.6165
  137SAPE  H16S14893   2.205   4.146   8.829  0.1598 -0.0247 -0.3122
  137SAPE  C21714894   2.005   4.141   8.721  0.6943 -0.0780 -0.0476
  137SAPE  H17R14895   1.903   4.180   8.741  0.6038 -1.2237  1.9464
  137SAPE  H17S14896   2.002   4.031   8.710  3.9261 -0.1299 -1.6691
  137SAPE  C21814897   2.062   4.196   8.594 -0.2248 -0.3449  0.4610
  137SAPE  H18R14898   2.081   4.305   8.599  2.7179 -0.7682 -0.0807
  137SAPE  H18S14899   1.987   4.184   8.512 -0.5401  1.6046  0.4231
  137SAPE  C21914900   2.195   4.124   8.551 -0.1214 -0.3877 -1.0059
  137SAPE  H19R14901   2.175   4.016   8.564 -0.7268  0.0095  2.1422
  137SAPE  H19S14902   2.276   4.141   8.625 -0.7640 -1.7625  0.0626
  137SAPE  C22014903   2.256   4.160   8.420 -0.2552 -0.2651  0.0850
  137SAPE  H20R14904   2.192   4.143   8.331  0.8249 -3.9662 -0.1620
  137SAPE  H20S14905   2.352   4.105   8.404 -0.2923 -0.1702 -0.4878
  137SAPE  H20T14906   2.285   4.267   8.428  0.3479 -0.3911 -0.3696
  137SAPE   C3314907   1.949   4.104  10.082  0.2176 -0.2837  0.1404
  137SAPE   H3X14908   2.059   4.091  10.082  0.3457  0.4752  2.2931
  137SAPE   H3Y14909   1.929   4.212  10.067  1.7029  0.0502  0.4553
  137SAPE   C3414910   1.891   4.014   9.972  0.3346  0.8164 -0.2960
  137SAPE   H4X14911   1.780   4.025   9.969 -0.0152 -1.9712 -3.2692
  137SAPE   H4Y14912   1.906   3.909  10.006  0.5689  0.3057 -1.8711
  137SAPE   C3514913   1.939   4.034   9.830  0.2727  0.0046 -0.6362
  137SAPE   H5X14914   2.030   3.977   9.802  0.0171 -0.0075 -1.4536
  137SAPE   H5Y14915   1.958   4.143   9.825  1.1907 -0.1638 -0.9210
  137SAPE   C3614916   1.848   3.998   9.709  0.5590  0.1489  0.6569
  137SAPE   H6X14917   1.746   4.036   9.730  0.6301  1.0750 -0.5408
  137SAPE   H6Y14918   1.846   3.889   9.689 -3.0829  0.5853 -2.6735
  137SAPE   C3714919   1.886   4.075   9.588 -0.0198 -0.7666  0.4010
  137SAPE   H7X14920   1.985   4.043   9.547  0.2538  2.9958 -2.4935
  137SAPE   H7Y14921   1.911   4.181   9.609 -2.6304 -0.5836  3.2453
  137SAPE   C3814922   1.782   4.065   9.472  0.4686 -0.5443  0.1548
  137SAPE   H8X14923   1.706   4.146   9.478  0.0219 -0.9470 -0.0341
  137SAPE   H8Y14924   1.736   3.966   9.490 -3.4813  0.8557 -1.1928
  137SAPE   C3914925   1.838   4.059   9.328  0.0128  0.2266  0.7131
  137SAPE   H9X14926   1.921   3.986   9.316 -1.0760 -0.9631  0.2075
  137SAPE   H9Y14927   1.861   4.162   9.293  0.7054 -0.4112 -0.7927
  137SAPE  C31014928   1.721   4.019   9.234 -0.1864  0.2663  0.2116
  137SAPE  H10X14929   1.634   4.068   9.282 -2.1747 -0.1890 -2.6937
  137SAPE  H10Y14930   1.703   3.911   9.254  1.3131  0.1665  1.2068
  137SAPE  C31114931   1.738   4.051   9.085  0.4228 -0.1399 -0.3686
  137SAPE  H11X14932   1.830   4.004   9.044 -2.1487 -2.7804 -3.7619
  137SAPE  H11Y14933   1.733   4.159   9.059 -1.3109 -0.1278 -0.0812
  137SAPE  C31214934   1.636   3.973   9.000 -0.1662  0.4597 -0.6391
  137SAPE  H12X14935   1.546   4.033   9.024  0.4667  1.2307 -0.0961
  137SAPE  H12Y14936   1.645   3.869   9.037  3.1969  1.1492  0.9781
  137SAPE  C31314937   1.666   3.993   8.857 -0.2970  0.1431  0.7654
  137SAPE  H13X14938   1.643   3.896   8.809  0.6557  0.4292 -0.3397
  137SAPE  H13Y14939   1.775   4.013   8.848 -0.8170  3.9745  1.3535
  137SAPE  C31414940   1.585   4.097   8.780 -0.2472  0.1402  0.4075
  137SAPE  H14X14941   1.632   4.195   8.802  0.6268 -0.4848  1.5027
  137SAPE  H14Y14942   1.482   4.087   8.820  0.4019 -2.0955  1.7636
  137SAPE  C31514943   1.589   4.079   8.626 -0.1676  0.1839 -0.3273
  137SAPE  H15X14944   1.550   3.979   8.599  0.1833  0.2926 -1.2709
  137SAPE  H15Y14945   1.697   4.079   8.602  0.5871  1.0525  2.5548
  137SAPE  C31614946   1.533   4.197   8.544 -0.1820  0.1286 -0.0698
  137SAPE  H16X14947   1.438   4.236   8.588 -0.5238  0.6425 -1.2048
  137SAPE  H16Y14948   1.517   4.151   8.444 -1.2878 -1.2685  0.7041
  137SAPE  C31714949   1.642   4.302   8.520  0.2142  0.3545 -0.8549
  137SAPE  H17X14950   1.620   4.356   8.426 -1.3678  1.1360 -0.0748
  137SAPE  H17Y14951   1.744   4.259   8.511  1.6512  2.6049  2.2606
  137SAPE  C31814952   1.648   4.420   8.623  0.4190  0.1550  0.9384
  137SAPE  H18X14953   1.666   4.381   8.725 -0.7869 -1.1204  0.7025
  137SAPE  H18Y14954   1.561   4.488   8.607 -0.1534 -0.7314  0.1674
  137SAPE  H18Z14955   1.737   4.482   8.599 -0.8178  1.6978  0.1042
  138SAPE     N14956   6.578   4.850  10.594  0.1348 -0.0943 -0.3051
  138SAPE   HN114957   6.486   4.842  10.642  0.9943  1.4242  1.6920
  138SAPE   HN214958   6.554   4.811  10.500 -1.0054  1.1831 -0.5736
  138SAPE   HN314959   6.652   4.793  10.640  1.0997  0.5051 -1.0756
  138SAPE   C1214960   6.619   4.994  10.586 -0.1972 -0.5243  0.3873
  138SAPE  H12A14961   6.714   5.009  10.531  0.2430  0.0510  1.2753
  138SAPE  H12B14962   6.635   5.029  10.691 -0.7709  0.0593  0.2852
  138SAPE   C1114963   6.513   5.081  10.526  0.5001 -0.1484 -0.3366
  138SAPE  H11A14964   6.462   5.029  10.442  2.1024 -0.7653 -0.9612
  138SAPE  H11B14965   6.555   5.170  10.475 -1.5084  0.5858 -0.8349
  138SAPE     P14966   6.300   5.036  10.675 -0.2356  0.0807 -0.3137
  138SAPE   O1314967   6.341   4.903  10.718 -0.1279 -0.2183 -0.0338
  138SAPE   O1414968   6.216   5.110  10.771 -0.0563 -0.1308 -0.3464
  138SAPE   O1214969   6.426   5.123  10.631 -0.0408 -0.1428  0.2070
  138SAPE   O1114970   6.232   5.024  10.527 -0.5368  1.2299  0.1439
  138SAPE    C114971   6.103   4.964  10.513  0.3967  0.2328  0.5552
  138SAPE    HA14972   6.046   4.973  10.609  2.6964 -0.9828  2.1413
  138SAPE    HB14973   6.046   4.999  10.425  0.3327  0.4716  0.6918
  138SAPE    C214974   6.117   4.813  10.492 -0.7284  0.0417 -0.3416
  138SAPE    HS14975   6.185   4.766  10.566  1.8855  1.0199 -1.9881
  138SAPE   O2114976   6.164   4.780  10.356  0.1695 -0.3420 -0.2136
  138SAPE   C2114977   6.293   4.779  10.335  0.3600  0.0046  0.2449
  138SAPE   O2214978   6.375   4.766  10.416 -0.1678  0.1980  0.2265
  138SAPE   C2214979   6.316   4.793  10.182 -0.1071  0.7652  0.3304
  138SAPE   H2R14980   6.421   4.757  10.173 -0.2544  0.3580  0.2020
  138SAPE   H2S14981   6.256   4.709  10.141 -2.1680 -0.0438  4.4443
  138SAPE    C314982   5.980   4.741  10.511 -1.1214 -0.0345 -0.3764
  138SAPE    HX14983   5.979   4.649  10.450 -0.2826  0.0261 -0.4851
  138SAPE    HY14984   5.899   4.803  10.467 -1.7065 -0.6726 -0.2184
  138SAPE   O3114985   5.937   4.731  10.648  0.1772 -0.0037 -0.2354
  138SAPE   C3114986   5.872   4.621  10.680 -0.6937  0.1107 -0.3952
  138SAPE   O3214987   5.871   4.521  10.607 -0.0323  0.6354 -0.5719
  138SAPE   C3214988   5.799   4.646  10.816 -1.3401 -0.0049 -0.0898
  138SAPE   H2X14989   5.732   4.734  10.806  0.2399  0.9449 -3.5899
  138SAPE   H2Y14990   5.881   4.672  10.886 -0.1606 -2.4479 -0.4463
  138SAPE   C2314991   6.286   4.927  10.120  0.0045  0.7893 -0.1531
  138SAPE   H3R14992   6.335   4.922  10.020  3.4102 -0.4913  1.4432
  138SAPE   H3S14993   6.336   5.006  10.179 -0.2135  0.9208 -0.1435
  138SAPE   C2414994   6.130   4.961  10.120  0.0958  0.6190  0.0193
  138SAPE   H4R14995   6.096   4.978  10.224  1.0030 -2.1142  0.8454
  138SAPE   H4S14996   6.075   4.869  10.092  1.1761 -0.1842  0.4845
  138SAPE   C2514997   6.096   5.079  10.043  0.1311 -0.6820 -0.4584
  138SAPE   H5R14998   6.137   5.171  10.085 -0.7827 -0.9614  1.1045
  138SAPE   C2614999   6.019   5.079   9.937  0.1559 -0.5334 -0.2140
  138SAPE   H6R15000   6.010   5.178   9.890  2.5521  0.6938  1.6390
  138SAPE   C2715001   5.956   4.951   9.881  0.4076  0.0165 -0.1027
  138SAPE   H7R15002   5.873   4.912   9.943 -0.7039 -1.0693 -2.1331
  138SAPE   H7S15003   6.032   4.870   9.892  1.2423  0.9941  1.6890
  138SAPE   C2815004   5.895   4.974   9.739  0.4290 -0.1932 -0.2614
  138SAPE   H8R15005   5.849   5.074   9.730  1.1398  0.1815  0.1748
  138SAPE   C2915006   5.902   4.878   9.644 -0.9981 -0.5092  0.0418
  138SAPE   H9R15007   5.865   4.911   9.546 -0.6725  3.6321  1.1194
  138SAPE  C21015008   5.968   4.738   9.653 -0.4388 -0.0794 -0.2928
  138SAPE  H10R15009   5.911   4.669   9.588  0.0250 -1.5255  0.8021
  138SAPE  H10S15010   5.958   4.683   9.749  1.0183  0.0878 -0.0128
  138SAPE  C21115011   6.109   4.752   9.597 -0.6033  0.5986 -0.4730
  138SAPE  H11R15012   6.104   4.797   9.497 -2.5076  1.7144  0.0758
  138SAPE  C21215013   6.229   4.736   9.665  0.7284 -0.6894 -0.1190
  138SAPE  H12R15014   6.330   4.747   9.625  1.4916 -0.4508  1.7735
  138SAPE  C21315015   6.229   4.682   9.807 -0.9086 -0.5946  0.0701
  138SAPE  H13R15016   6.136   4.643   9.853 -1.7475  1.5422  0.3255
  138SAPE  H13S15017   6.263   4.769   9.867  0.8902 -0.3052 -1.2768
  138SAPE  C21415018   6.342   4.585   9.824  0.2367 -0.2030  0.1512
  138SAPE  H14R15019   6.447   4.616   9.834  0.7110 -1.6668 -0.1136
  138SAPE  C21515020   6.322   4.452   9.818  0.0082 -0.5844  0.6394
  138SAPE  H15R15021   6.396   4.377   9.850 -2.3086 -2.6739  1.3854
  138SAPE  C21615022   6.195   4.390   9.784 -0.2691  0.0663  0.5269
  138SAPE  H16R15023   6.122   4.463   9.743 -2.4533 -1.2198  1.9435
  138SAPE  H16S15024   6.153   4.345   9.876  1.4745 -2.5330  0.1387
  138SAPE  C21715025   6.224   4.281   9.680  0.4847 -0.5832 -0.0425
  138SAPE  H17R15026   6.309   4.213   9.706  1.6326  0.3476 -1.2184
  138SAPE  H17S15027   6.233   4.329   9.580 -0.6443 -0.1064  0.0736
  138SAPE  C21815028   6.096   4.189   9.681 -0.1521  0.8096 -0.3208
  138SAPE  H18R15029   6.005   4.252   9.674 -1.1301 -0.5721 -0.4703
  138SAPE  H18S15030   6.090   4.139   9.780 -0.3258 -3.8230 -2.4153
  138SAPE  C21915031   6.106   4.078   9.583 -0.2321  1.0694  0.4368
  138SAPE  H19R15032   6.175   4.005   9.630 -0.5663  2.0220  2.5071
  138SAPE  H19S15033   6.144   4.110   9.484 -0.0267  1.0623  0.5131
  138SAPE  C22015034   5.970   4.008   9.554  0.0052  0.0477 -0.0583
  138SAPE  H20R15035   5.900   4.084   9.512 -2.2366 -1.7654  0.2180
  138SAPE  H20S15036   5.922   3.979   9.650 -1.0540 -3.2505 -1.4405
  138SAPE  H20T15037   5.977   3.926   9.479  0.4893 -1.5675  1.7001
  138SAPE   C3315038   5.732   4.526  10.891 -0.1125 -0.1455 -0.2223
  138SAPE   H3X15039   5.793   4.474  10.968 -0.7225  0.4508  0.6743
  138SAPE   H3Y15040   5.701   4.447  10.819  3.9875 -0.6698 -1.6613
  138SAPE   C3415041   5.613   4.589  10.965  0.4399 -0.2582 -0.1435
  138SAPE   H4X15042   5.552   4.659  10.905 -0.3437  0.3195  1.2606
  138SAPE   H4Y15043   5.645   4.635  11.061 -2.6484  1.1554  0.3305
  138SAPE   C3515044   5.508   4.484  11.014 -0.6247  0.7263  0.4825
  138SAPE   H5X15045   5.548   4.426  11.100 -2.6276  0.5413  1.3355
  138SAPE   H5Y15046   5.494   4.414  10.929  2.3131 -0.2320  0.6603
  138SAPE   C3615047   5.380   4.544  11.061 -0.0727  0.6509 -0.4367
  138SAPE   H6X15048   5.400   4.608  11.150  0.2951  1.7415 -1.2767
  138SAPE   H6Y15049   5.303   4.466  11.077 -0.7672  0.7019 -3.0480
  138SAPE   C3715050   5.304   4.632  10.962 -0.0861 -0.4068 -0.2857
  138SAPE   H7X15051   5.362   4.717  10.920  1.4592 -1.9236 -1.3602
  138SAPE   H7Y15052   5.225   4.691  11.013  1.0910 -0.3153  1.5310
  138SAPE   C3815053   5.253   4.552  10.848  0.0674  0.2929 -0.4144
  138SAPE   H8X15054   5.172   4.490  10.893  1.0027  0.3253  1.4067
  138SAPE   H8Y15055   5.339   4.501  10.799  0.7499  1.9471 -1.0263
  138SAPE   C3915056   5.175   4.643  10.751 -1.0442  0.3374 -0.7632
  138SAPE   H9X15057   5.095   4.702  10.802 -0.4731  0.5425 -0.0935
  138SAPE   H9Y15058   5.122   4.578  10.677 -0.6733  2.3567 -2.9066
  138SAPE  C31015059   5.268   4.732  10.675  1.0118 -0.1388 -0.6904
  138SAPE  H10X15060   5.342   4.785  10.739  1.1334 -2.4544  1.2503
  138SAPE  H10Y15061   5.199   4.802  10.624  0.9679 -0.6056 -1.2788
  138SAPE  C31115062   5.352   4.652  10.580 -0.3122 -0.0186  0.2850
  138SAPE  H11X15063   5.285   4.577  10.534 -1.0236  0.4024  0.6204
  138SAPE  H11Y15064   5.432   4.608  10.643 -0.6218  1.5505  1.8564
  138SAPE  C31215065   5.408   4.741  10.467  0.9963  0.5298 -0.1828
  138SAPE  H12X15066   5.461   4.824  10.519  1.0641 -0.4433  1.3684
  138SAPE  H12Y15067   5.325   4.786  10.409 -0.9349 -2.1048  0.3907
  138SAPE  C31315068   5.502   4.658  10.383  0.6914  0.1878 -0.3400
  138SAPE  H13X15069   5.460   4.564  10.340  0.6558  0.7807 -1.6520
  138SAPE  H13Y15070   5.588   4.638  10.451 -1.5631 -2.0242  2.1227
  138SAPE  C31415071   5.549   4.745  10.266 -0.0124 -0.0306 -0.0032
  138SAPE  H14X15072   5.620   4.826  10.294 -1.3284  1.4884 -0.8337
  138SAPE  H14Y15073   5.457   4.792  10.223 -1.5834 -2.0956  0.9128
  138SAPE  C31515074   5.627   4.673  10.156 -0.1352 -0.1253  0.0682
  138SAPE  H15X15075   5.664   4.757  10.093  3.7917 -0.9338  1.0366
  138SAPE  H15Y15076   5.544   4.609  10.118 -1.2112 -0.3259  2.5374
  138SAPE  C31615077   5.747   4.597  10.203 -0.1125  0.1982 -0.5107
  138SAPE  H16X15078   5.699   4.530  10.277  0.2709  0.7421  0.2405
  138SAPE  H16Y15079   5.838   4.652  10.237  0.6917 -0.2220 -1.9117
  138SAPE  C31715080   5.802   4.513  10.090  0.1289 -0.5655  0.2719
  138SAPE  H17X15081   5.715   4.447  10.069 -2.2095  1.4867  2.7435
  138SAPE  H17Y15082   5.885   4.455  10.134 -0.1760 -0.9289  0.3749
  138SAPE  C31815083   5.863   4.593   9.971  0.5670  0.2670 -0.4921
  138SAPE  H18X15084   5.931   4.670  10.012  0.0874 -0.1626  1.1866
  138SAPE  H18Y15085   5.787   4.646   9.910 -0.4399 -2.4204 -1.7374
  138SAPE  H18Z15086   5.921   4.528   9.901  1.8297  0.9183 -0.0820
  139SAPE     N15087   5.154   2.000  10.804  0.3348 -0.0732 -0.0198
  139SAPE   HN115088   5.139   1.924  10.735 -1.1206 -1.0194  1.2550
  139SAPE   HN215089   5.255   2.001  10.826  0.3894  1.5252 -0.2862
  139SAPE   HN315090   5.100   1.974  10.890  1.7703 -0.6125  0.7485
  139SAPE   C1215091   5.113   2.129  10.736  0.2498  1.0163 -0.1568
  139SAPE  H12A15092   5.147   2.204  10.811 -0.4957  0.3991  0.8379
  139SAPE  H12B15093   5.002   2.134  10.740  0.2323  2.9482 -1.6779
  139SAPE   C1115094   5.171   2.136  10.597  0.1375 -0.1014  0.4325
  139SAPE  H11A15095   5.279   2.109  10.589  0.9926  2.8845  0.6921
  139SAPE  H11B15096   5.171   2.242  10.564 -0.7004 -0.2853 -0.1868
  139SAPE     P15097   4.959   2.104  10.439 -0.2958 -0.1292 -0.1680
  139SAPE   O1315098   4.849   2.024  10.495  0.2107 -0.5272 -0.0996
  139SAPE   O1415099   4.954   2.254  10.440 -0.1559  0.0643 -0.0804
  139SAPE   O1215100   5.095   2.061  10.504 -0.4541 -0.3576 -0.0246
  139SAPE   O1115101   4.986   2.051  10.291  0.1398 -0.2803 -0.8868
  139SAPE    C115102   5.112   2.057  10.225 -0.8488  0.0931  0.8137
  139SAPE    HA15103   5.197   2.037  10.294  0.3595  0.9647 -0.3638
  139SAPE    HB15104   5.119   1.973  10.154 -0.3643 -1.9020  3.1027
  139SAPE    C215105   5.146   2.200  10.164 -0.4744  0.0604 -0.4223
  139SAPE    HS15106   5.132   2.284  10.236  0.5563  0.5866 -0.8228
  139SAPE   O2115107   5.049   2.221  10.060  0.3744  0.1083 -0.4070
  139SAPE   C2115108   5.044   2.340  10.013 -0.0792  0.4916 -0.3816
  139SAPE   O2215109   5.088   2.445  10.066  0.4726  0.3370  0.2770
  139SAPE   C2215110   4.955   2.335   9.882 -0.4612 -0.3478  0.0718
  139SAPE   H2R15111   4.975   2.237   9.833 -1.3158  1.0158 -3.2662
  139SAPE   H2S15112   4.852   2.343   9.925 -0.8004  1.0236 -0.9673
  139SAPE    C315113   5.290   2.220  10.104  0.4161  0.3395 -0.0747
  139SAPE    HX15114   5.369   2.244  10.179 -0.3460 -1.1449  1.2602
  139SAPE    HY15115   5.305   2.316  10.051 -0.6031  2.0422  2.5389
  139SAPE   O3115116   5.340   2.104  10.035  0.4309 -0.3658  0.7074
  139SAPE   C3115117   5.314   2.107   9.906  0.2446  0.6733  0.3990
  139SAPE   O3215118   5.282   2.210   9.846  0.2135 -0.1223  0.6514
  139SAPE   C3215119   5.326   1.971   9.847 -0.4227 -0.0158  0.2467
  139SAPE   H2X15120   5.302   1.902   9.930  2.9911  0.9391  2.2387
  139SAPE   H2Y15121   5.432   1.955   9.822  0.0025  4.2494 -1.6047
  139SAPE   C2315122   4.977   2.463   9.791  0.4488 -0.2051  0.6186
  139SAPE   H3R15123   4.999   2.545   9.863  1.0003 -0.4677  0.7572
  139SAPE   H3S15124   4.883   2.482   9.734  0.8867  2.6443  0.6934
  139SAPE   C2415125   5.102   2.450   9.698 -0.3348 -0.0864  0.4485
  139SAPE   H4R15126   5.092   2.348   9.654  0.0062  0.9443 -2.2509
  139SAPE   H4S15127   5.187   2.459   9.769 -0.2926 -0.3172  0.4292
  139SAPE   C2515128   5.089   2.563   9.600 -0.4886  0.4629  0.5833
  139SAPE   H5R15129   5.048   2.651   9.652  0.1750  0.7739  0.5902
  139SAPE   C2615130   5.134   2.563   9.468  0.6762  0.1256 -0.0716
  139SAPE   H6R15131   5.102   2.645   9.401  1.1525 -1.3263 -2.1732
  139SAPE   C2715132   5.182   2.448   9.388 -0.6992  0.6929 -0.0326
  139SAPE   H7R15133   5.268   2.397   9.436 -0.6620 -1.3063 -2.0268
  139SAPE   H7S15134   5.221   2.482   9.290  2.5062  1.4995  1.3919
  139SAPE   C2815135   5.073   2.350   9.368  0.4952  0.1978 -0.2449
  139SAPE   H8R15136   5.023   2.308   9.456  0.1235  1.1405  0.0016
  139SAPE   C2915137   5.038   2.292   9.246  0.1911  0.3197  0.0815
  139SAPE   H9R15138   4.956   2.220   9.251 -0.2635  0.7472 -0.9308
  139SAPE  C21015139   5.091   2.321   9.108 -0.7017 -0.5370  0.0345
  139SAPE  H10R15140   5.165   2.240   9.092  1.3909 -0.0566  5.2664
  139SAPE  H10S15141   5.137   2.421   9.098 -0.7719 -0.5365 -0.2982
  139SAPE  C21115142   4.990   2.322   8.996 -0.0817 -0.2776  0.5857
  139SAPE  H11R15143   4.890   2.353   9.032  1.0898  1.0197  3.0016
  139SAPE  C21215144   5.007   2.289   8.869  0.3227  1.0769  0.0079
  139SAPE  H12R15145   4.920   2.276   8.802 -0.2197 -0.8646  1.0063
  139SAPE  C21315146   5.135   2.241   8.807 -0.1653 -0.4068  0.0801
  139SAPE  H13R15147   5.148   2.132   8.789  0.7595 -0.3657  0.4486
  139SAPE  H13S15148   5.223   2.264   8.870 -0.3694 -1.6717  0.8619
  139SAPE  C21415149   5.148   2.321   8.681  0.4995  0.3872  0.5721
  139SAPE  H14R15150   5.178   2.425   8.697  0.4950  0.2823  1.2890
  139SAPE  C21515151   5.127   2.273   8.553 -0.0993 -0.0429  0.9304
  139SAPE  H15R15152   5.154   2.337   8.468  0.1922 -1.0177  0.2648
  139SAPE  C21615153   5.086   2.132   8.503 -0.3176  0.1247  0.4321
  139SAPE  H16R15154   5.106   2.056   8.582  2.7812  0.8021  0.4367
  139SAPE  H16S15155   5.147   2.102   8.415 -0.1514  0.3616  0.4651
  139SAPE  C21715156   4.935   2.140   8.464  0.0013 -0.1976  0.1099
  139SAPE  H17R15157   4.871   2.144   8.555  0.1207  0.7634  0.1590
  139SAPE  H17S15158   4.917   2.047   8.405 -0.9997 -0.1333  0.3022
  139SAPE  C21815159   4.887   2.259   8.381 -0.6367  0.4695 -0.4030
  139SAPE  H18R15160   4.919   2.256   8.275 -1.7892  1.8155 -0.8235
  139SAPE  H18S15161   4.919   2.357   8.422 -0.6803  0.7176 -0.9489
  139SAPE  C21915162   4.736   2.267   8.394 -0.4743  0.1501  1.3801
  139SAPE  H19R15163   4.715   2.354   8.328 -2.2799 -1.6095 -0.5387
  139SAPE  H19S15164   4.711   2.293   8.499 -3.1618  0.3402  0.7827
  139SAPE  C22015165   4.654   2.140   8.354 -0.9149  0.2457  0.2238
  139SAPE  H20R15166   4.680   2.089   8.259  3.2658  2.1702  0.1301
  139SAPE  H20S15167   4.548   2.172   8.339 -1.1030 -0.8275 -0.8375
  139SAPE  H20T15168   4.661   2.071   8.441  1.3191  0.9480  0.6745
  139SAPE   C3315169   5.239   1.937   9.717  0.5812 -0.2615 -0.4290
  139SAPE   H3X15170   5.262   2.011   9.637  0.0968  0.4783  0.1101
  139SAPE   H3Y15171   5.131   1.952   9.739  0.5595  0.4397 -0.9845
  139SAPE   C3415172   5.248   1.792   9.680 -0.4137 -0.3989 -0.9026
  139SAPE   H4X15173   5.146   1.748   9.689 -0.0643 -1.0634 -0.0695
  139SAPE   H4Y15174   5.292   1.724   9.756 -1.0030 -1.0632 -1.1352
  139SAPE   C3515175   5.307   1.769   9.538 -0.0238 -0.4277  0.6861
  139SAPE   H5X15176   5.402   1.823   9.519 -0.6516  0.8677  1.0915
  139SAPE   H5Y15177   5.240   1.808   9.458  1.3113 -0.0815 -0.3045
  139SAPE   C3615178   5.337   1.622   9.517  0.7800 -0.2460  0.6784
  139SAPE   H6X15179   5.247   1.568   9.481  0.8649  0.5164 -0.7600
  139SAPE   H6Y15180   5.350   1.578   9.618 -0.4384 -0.2811  0.8318
  139SAPE   C3715181   5.450   1.590   9.423 -0.5318  0.2021 -0.1143
  139SAPE   H7X15182   5.473   1.481   9.421 -0.6482  0.1856 -0.7153
  139SAPE   H7Y15183   5.542   1.629   9.472 -0.8722 -2.2358  2.7401
  139SAPE   C3815184   5.438   1.639   9.282 -0.0276  0.0726 -0.0740
  139SAPE   H8X15185   5.430   1.750   9.286 -1.6490 -0.0198 -0.2152
  139SAPE   H8Y15186   5.340   1.606   9.243 -0.6491 -0.5773  1.8845
  139SAPE   C3915187   5.553   1.585   9.192  0.3957 -0.2215  0.7212
  139SAPE   H9X15188   5.572   1.487   9.239  2.0666 -0.4987 -0.4461
  139SAPE   H9Y15189   5.643   1.649   9.191  0.8326 -0.8368  0.3382
  139SAPE  C31015190   5.502   1.553   9.054  0.3900  0.5745  0.3857
  139SAPE  H10X15191   5.431   1.629   9.015 -0.1923  0.0440  0.3944
  139SAPE  H10Y15192   5.446   1.458   9.066  0.1574  0.2800 -2.4334
  139SAPE  C31115193   5.612   1.525   8.944 -0.3422  0.3067  0.0152
  139SAPE  H11X15194   5.637   1.418   8.954 -0.4608  0.2226 -0.5634
  139SAPE  H11Y15195   5.697   1.597   8.952  0.8422 -1.1982  1.7130
  139SAPE  C31215196   5.564   1.525   8.800  0.4785 -0.1755 -0.2352
  139SAPE  H12X15197   5.641   1.501   8.724  0.1500 -0.4412 -0.4907
  139SAPE  H12Y15198   5.542   1.632   8.776  2.0780  0.5108  1.2086
  139SAPE  C31315199   5.437   1.429   8.772  0.2271  0.3627  0.4202
  139SAPE  H13X15200   5.344   1.460   8.824  0.4958 -1.3518  2.0662
  139SAPE  H13Y15201   5.452   1.336   8.832  0.0287  1.1584  1.7445
  139SAPE  C31415202   5.409   1.384   8.624  0.5048  0.4190  0.4950
  139SAPE  H14X15203   5.497   1.328   8.587 -0.5405 -0.8858 -0.1310
  139SAPE  H14Y15204   5.396   1.476   8.562  0.4503 -0.7650 -1.3321
  139SAPE  C31515205   5.279   1.302   8.621 -0.3062  0.0988  0.1726
  139SAPE  H15X15206   5.192   1.358   8.661 -0.5341 -0.0879 -0.0537
  139SAPE  H15Y15207   5.291   1.204   8.671 -0.4968 -1.7226 -3.0326
  139SAPE  C31615208   5.242   1.254   8.478 -0.9556 -0.3071  0.8084
  139SAPE  H16X15209   5.343   1.226   8.441 -1.3164 -0.4894 -0.0660
  139SAPE  H16Y15210   5.168   1.171   8.472 -0.9165 -0.3838  1.3542
  139SAPE  C31715211   5.193   1.369   8.394  0.2633 -0.5585 -0.3837
  139SAPE  H17X15212   5.282   1.434   8.379 -1.6289  1.8820 -1.6515
  139SAPE  H17Y15213   5.111   1.421   8.448 -0.3004  0.6635 -2.3232
  139SAPE  C31815214   5.151   1.332   8.256  0.0715  0.5609  0.1403
  139SAPE  H18X15215   5.240   1.311   8.193  0.3559  1.0189  0.3793
  139SAPE  H18Y15216   5.085   1.412   8.216  1.6547  1.8051 -0.0873
  139SAPE  H18Z15217   5.088   1.241   8.261 -1.7719  1.6573 -1.8013
  140SAPE     N15218   1.390   5.520  10.904 -0.8548 -0.0418 -0.2285
  140SAPE   HN115219   1.430   5.591  10.840 -0.3936 -0.9781 -1.0022
  140SAPE   HN215220   1.313   5.571  10.952 -0.2329 -0.8551  1.7121
  140SAPE   HN315221   1.455   5.498  10.982  0.4638  1.4248 -0.8715
  140SAPE   C1215222   1.326   5.398  10.830  0.1744 -0.0978 -0.1800
  140SAPE  H12A15223   1.269   5.446  10.747  1.3422  0.0232 -0.9459
  140SAPE  H12B15224   1.265   5.350  10.909  0.6438 -1.3957 -0.5674
  140SAPE   C1115225   1.429   5.295  10.783  0.4009 -0.4803 -0.1657
  140SAPE  H11A15226   1.394   5.232  10.698  1.8851 -1.4741 -0.0707
  140SAPE  H11B15227   1.438   5.217  10.861 -0.3010 -1.0504 -0.6428
  140SAPE     P15228   1.684   5.345  10.823  0.0971 -0.1851 -0.0362
  140SAPE   O1315229   1.642   5.373  10.959  0.4230  0.1453 -0.4310
  140SAPE   O1415230   1.745   5.208  10.800 -0.3829 -0.1847 -0.6111
  140SAPE   O1215231   1.547   5.356  10.735 -0.2356  0.0336  0.6103
  140SAPE   O1115232   1.765   5.468  10.779 -0.0376 -0.4074  0.0799
  140SAPE    C115233   1.856   5.455  10.673  0.8761 -0.2249 -0.1165
  140SAPE    HA15234   1.948   5.515  10.691  1.9695 -1.5830 -0.9920
  140SAPE    HB15235   1.890   5.352  10.648 -0.5597 -0.9079  0.6612
  140SAPE    C215236   1.796   5.520  10.547  0.0621  0.8242 -0.0962
  140SAPE    HS15237   1.743   5.435  10.498  1.5293 -1.9470  2.7753
  140SAPE   O2115238   1.902   5.582  10.474 -0.2392 -0.1458  0.4776
  140SAPE   C2115239   1.977   5.498  10.399  0.2038 -0.1171  0.2281
  140SAPE   O2215240   1.959   5.378  10.403  0.1682  0.2348 -0.0767
  140SAPE   C2215241   2.083   5.579  10.325 -0.3012  0.4242 -0.1899
  140SAPE   H2R15242   2.033   5.633  10.243  1.6300 -0.5664 -2.1447
  140SAPE   H2S15243   2.127   5.655  10.393 -2.4156 -0.4231  2.3227
  140SAPE    C315244   1.691   5.627  10.576 -0.2061 -0.0832 -0.9028
  140SAPE    HX15245   1.738   5.683  10.660  1.3651  0.0275 -1.8185
  140SAPE    HY15246   1.597   5.601  10.630 -0.8708  0.4409 -1.7726
  140SAPE   O3115247   1.664   5.709  10.461  0.1502 -0.2479 -0.3164
  140SAPE   C3115248   1.723   5.825  10.445 -0.4472 -0.3576  1.1142
  140SAPE   O3215249   1.798   5.886  10.523 -0.2136 -0.2900 -0.1308
  140SAPE   C3215250   1.689   5.883  10.314  0.8744  0.5696  0.6816
  140SAPE   H2X15251   1.681   5.802  10.238 -1.5972  1.5216 -0.1796
  140SAPE   H2Y15252   1.758   5.964  10.283  1.9975 -0.2907  0.8678
  140SAPE   C2315253   2.197   5.500  10.265 -0.3480  0.5166 -0.0459
  140SAPE   H3R15254   2.249   5.431  10.335  2.5802  2.1707 -0.4484
  140SAPE   H3S15255   2.280   5.569  10.240 -1.2344  2.5786  2.2656
  140SAPE   C2415256   2.152   5.420  10.146 -0.7258 -0.2911 -0.1904
  140SAPE   H4R15257   2.093   5.477  10.071 -0.8124 -3.3854 -2.7168
  140SAPE   H4S15258   2.097   5.330  10.183  1.8427 -1.5504  0.8266
  140SAPE   C2515259   2.279   5.367  10.074 -0.2469 -0.4495 -0.6464
  140SAPE   H5R15260   2.373   5.355  10.130 -1.2374 -0.7563  1.0202
  140SAPE   C2615261   2.291   5.331   9.946  0.0803  0.3348  0.5822
  140SAPE   H6R15262   2.390   5.302   9.910 -0.0818  1.9833 -1.3893
  140SAPE   C2715263   2.177   5.318   9.842 -0.5105 -0.7622  0.4175
  140SAPE   H7R15264   2.096   5.386   9.874  1.2819  2.6691 -1.7755
  140SAPE   H7S15265   2.151   5.210   9.845  0.2440 -0.9377  2.3331
  140SAPE   C2815266   2.219   5.355   9.704  0.1460  0.7243  0.0495
  140SAPE   H8R15267   2.237   5.264   9.644 -1.1306 -0.6700  1.6785
  140SAPE   C2915268   2.233   5.470   9.634 -0.0087 -0.2758 -0.0451
  140SAPE   H9R15269   2.261   5.467   9.527 -0.9043 -2.2195 -0.2845
  140SAPE  C21015270   2.209   5.609   9.691  0.1807  0.3319  0.1719
  140SAPE  H10R15271   2.165   5.597   9.793 -2.2812  0.9841 -0.7543
  140SAPE  H10S15272   2.130   5.663   9.635  1.0254  2.1299  0.6566
  140SAPE  C21115273   2.330   5.697   9.688  0.2795  0.5528 -0.1271
  140SAPE  H11R15274   2.389   5.689   9.781 -0.1644  1.1419  0.2104
  140SAPE  C21215275   2.368   5.781   9.589 -0.3221 -0.6876  0.2112
  140SAPE  H12R15276   2.469   5.824   9.602 -1.4023  1.5778  1.6646
  140SAPE  C21315277   2.311   5.804   9.453  0.7561 -0.4942 -0.4172
  140SAPE  H13R15278   2.323   5.913   9.434 -0.6896 -0.1012  0.7527
  140SAPE  H13S15279   2.203   5.779   9.460  0.4252  0.2266 -2.3728
  140SAPE  C21415280   2.367   5.718   9.350  0.2551 -0.0217 -0.4835
  140SAPE  H14R15281   2.339   5.613   9.367 -1.2739  0.4630  0.2565
  140SAPE  C21515282   2.433   5.752   9.233  0.4047  0.7186 -0.7262
  140SAPE  H15R15283   2.470   5.677   9.162  3.4808  0.9250  0.4940
  140SAPE  C21615284   2.458   5.897   9.199 -0.1125  0.4400 -1.0327
  140SAPE  H16R15285   2.488   5.956   9.288 -0.2913  0.7781 -1.1943
  140SAPE  H16S15286   2.360   5.941   9.171 -1.1088 -0.6432  0.5279
  140SAPE  C21715287   2.555   5.924   9.087  0.4288 -0.0916 -0.9027
  140SAPE  H17R15288   2.507   5.868   9.004 -2.1815  2.1644 -1.0593
  140SAPE  H17S15289   2.650   5.874   9.114  1.0967  2.2031  1.5122
  140SAPE  C21815290   2.565   6.074   9.050 -0.3645 -0.8676  0.3345
  140SAPE  H18R15291   2.616   6.122   9.137 -0.4885 -0.2436  0.0594
  140SAPE  H18S15292   2.464   6.118   9.039  0.8969  2.2206  0.1798
  140SAPE  C21915293   2.637   6.097   8.918 -0.3207 -0.2115 -0.0257
  140SAPE  H19R15294   2.599   6.032   8.836 -0.6654 -0.3273  0.2272
  140SAPE  H19S15295   2.747   6.080   8.927 -0.3834  0.3065  2.0971
  140SAPE  C22015296   2.645   6.239   8.866  0.6398 -0.1770 -0.2701
  140SAPE  H20R15297   2.689   6.226   8.765 -1.4952 -0.6456 -1.1785
  140SAPE  H20S15298   2.719   6.298   8.925 -0.0132 -0.0656  0.4530
  140SAPE  H20T15299   2.547   6.289   8.854  1.5795  1.8925  0.2668
  140SAPE   C3315300   1.555   5.959  10.322  0.9735 -0.2790 -0.0307
  140SAPE   H3X15301   1.567   6.032  10.404 -1.6514  0.2451 -0.0358
  140SAPE   H3Y15302   1.479   5.899  10.377 -1.1659 -0.6405 -3.1235
  140SAPE   C3415303   1.495   6.026  10.197 -0.3561  0.1435 -0.0969
  140SAPE   H4X15304   1.570   6.091  10.146 -1.2899  1.3335  0.0021
  140SAPE   H4Y15305   1.426   6.110  10.220 -1.0633 -0.3419 -0.3963
  140SAPE   C3515306   1.436   5.923  10.097 -0.6329 -0.4370 -0.4284
  140SAPE   H5X15307   1.355   5.859  10.137 -2.0074  0.9480 -0.8731
  140SAPE   H5Y15308   1.522   5.859  10.068 -1.5040 -0.8461 -2.2545
  140SAPE   C3615309   1.378   5.994   9.973 -0.2610 -0.1497  1.0291
  140SAPE   H6X15310   1.354   5.919   9.894  1.9854  0.6039 -0.4757
  140SAPE   H6Y15311   1.455   6.065   9.934 -0.1991 -1.5029 -1.5059
  140SAPE   C3715312   1.259   6.085   9.992 -0.2525  0.5559 -0.4961
  140SAPE   H7X15313   1.267   6.163  10.071 -5.5748  1.2635 -0.3126
  140SAPE   H7Y15314   1.170   6.026  10.022 -0.4319  0.0974 -1.8602
  140SAPE   C3815315   1.219   6.163   9.868 -0.1615 -0.4143 -0.2837
  140SAPE   H8X15316   1.300   6.236   9.849 -0.0455  0.1135  1.9528
  140SAPE   H8Y15317   1.124   6.213   9.898  0.4907  0.1898  0.8482
  140SAPE   C3915318   1.195   6.087   9.738  0.5332 -0.1450  0.0850
  140SAPE   H9X15319   1.109   6.018   9.743  0.8720 -0.5111  1.4346
  140SAPE   H9Y15320   1.287   6.027   9.721  0.3395 -0.2738 -0.5180
  140SAPE  C31015321   1.192   6.172   9.608  0.1580 -0.4718 -0.1548
  140SAPE  H10X15322   1.295   6.212   9.601  0.6638 -1.7303 -0.2058
  140SAPE  H10Y15323   1.124   6.259   9.619  0.0049 -0.6942  0.8067
  140SAPE  C31115324   1.158   6.096   9.477 -0.2299  0.1304 -0.0241
  140SAPE  H11X15325   1.049   6.074   9.477 -0.6558  2.0894 -0.5738
  140SAPE  H11Y15326   1.208   5.998   9.467 -1.2527 -0.5924  1.4571
  140SAPE  C31215327   1.199   6.183   9.367 -0.6797  0.1366 -0.4707
  140SAPE  H12X15328   1.305   6.214   9.383 -0.6365 -0.0940 -0.3052
  140SAPE  H12Y15329   1.133   6.272   9.376 -0.1181  0.6484 -1.3060
  140SAPE  C31315330   1.190   6.124   9.229  0.4673 -0.3582  0.1558
  140SAPE  H13X15331   1.095   6.065   9.228 -0.7063  1.4554 -0.0868
  140SAPE  H13Y15332   1.277   6.057   9.212  1.3268  0.9119 -0.6201
  140SAPE  C31415333   1.178   6.243   9.130 -0.1825 -0.3737  0.1554
  140SAPE  H14X15334   1.280   6.260   9.089 -0.8318  0.5750 -1.1292
  140SAPE  H14Y15335   1.145   6.329   9.192  1.9878  1.8367 -1.5495
  140SAPE  C31515336   1.083   6.218   9.018  0.3778  0.0087 -0.0846
  140SAPE  H15X15337   0.982   6.235   9.059  1.0225 -0.4484  1.8280
  140SAPE  H15Y15338   1.112   6.116   8.982 -1.6889 -0.2762 -1.0326
  140SAPE  C31615339   1.090   6.307   8.893 -0.3342  0.7366  0.0279
  140SAPE  H16X15340   1.095   6.412   8.928 -2.2771  1.4310 -1.5721
  140SAPE  H16Y15341   0.996   6.297   8.834  0.1969 -0.0914 -0.7089
  140SAPE  C31715342   1.200   6.286   8.800 -0.2733 -0.3183  0.3390
  140SAPE  H17X15343   1.300   6.295   8.848 -0.0077 -1.8910  0.1372
  140SAPE  H17Y15344   1.185   6.364   8.722 -1.0555 -1.7933 -1.0311
  140SAPE  C31815345   1.200   6.153   8.730  0.9681  0.2051 -0.1209
  140SAPE  H18X15346   1.202   6.060   8.791 -0.5316  0.6400  0.6509
  140SAPE  H18Y15347   1.266   6.143   8.641  1.1422 -1.4307  0.1631
  140SAPE  H18Z15348   1.096   6.153   8.691  0.7706  0.5572  0.3968
  141SAPE     N15349   1.146   0.447  10.866 -0.0838  0.3615  0.4881
  141SAPE   HN115350   1.147   0.458  10.969 -1.7681  2.2261  0.3770
  141SAPE   HN215351   1.211   0.518  10.826 -2.1258  0.7822 -2.4259
  141SAPE   HN315352   1.051   0.473  10.831 -0.4500  0.8518  1.7917
  141SAPE   C1215353   1.182   0.309  10.833  0.1754 -0.2071  0.3398
  141SAPE  H12A15354   1.099   0.240  10.861 -0.0118 -0.5308 -0.9417
  141SAPE  H12B15355   1.281   0.274  10.868  0.4833 -0.5999 -0.8444
  141SAPE   C1115356   1.199   0.291  10.679  0.0821  0.0347 -0.0419
  141SAPE  H11A15357   1.269   0.362  10.631  1.2633  1.1999  3.1441
  141SAPE  H11B15358   1.101   0.312  10.631  1.1455  0.7884 -1.9878
  141SAPE     P15359   1.153   0.036  10.647 -0.6795 -0.2513 -0.3129
  141SAPE   O1315360   1.203  -0.069  10.743  0.2223  0.4565 -0.7953
  141SAPE   O1415361   1.005   0.073  10.652 -0.8951  0.1027  0.7027
  141SAPE   O1215362   1.250   0.162  10.659 -0.2188 -0.9709  0.4722
  141SAPE   O1115363   1.189  -0.022  10.501 -0.3645 -0.2161  0.4471
  141SAPE    C115364   1.133   0.041  10.388 -0.5480  0.1832  1.0036
  141SAPE    HA15365   1.139  -0.038  10.310  2.8412 -0.9107  2.1932
  141SAPE    HB15366   1.031   0.084  10.402 -1.0140  0.2210 -1.8414
  141SAPE    C215367   1.215   0.166  10.344  0.3385 -0.5524 -0.5399
  141SAPE    HS15368   1.204   0.244  10.423  0.4373 -0.9532 -0.1265
  141SAPE   O2115369   1.156   0.218  10.221 -0.3730 -0.1367  0.0407
  141SAPE   C2115370   1.189   0.340  10.184 -0.6664 -0.2714 -0.2801
  141SAPE   O2215371   1.239   0.423  10.258 -0.2783 -0.0535 -0.3622
  141SAPE   C2215372   1.148   0.363  10.040 -0.4693 -0.7203  0.3501
  141SAPE   H2R15373   1.156   0.269   9.981 -1.3881  0.1583 -1.2575
  141SAPE   H2S15374   1.043   0.398  10.039  0.1250  1.1972 -0.9176
  141SAPE    C315375   1.369   0.126  10.336 -0.0623 -0.1102 -0.2862
  141SAPE    HX15376   1.415   0.102  10.434  1.0567  3.7862  0.3027
  141SAPE    HY15377   1.431   0.214  10.310 -0.0504 -0.4259 -1.3432
  141SAPE   O3115378   1.378   0.018  10.239  0.0263 -0.4725 -0.1166
  141SAPE   C3115379   1.387   0.048  10.112  0.5156 -0.3085 -0.1015
  141SAPE   O3215380   1.400   0.162  10.070 -0.0931 -0.0896  0.5790
  141SAPE   C3215381   1.359  -0.080  10.037 -0.1059 -0.0902 -0.2144
  141SAPE   H2X15382   1.266  -0.124  10.078 -0.3260 -0.9881 -1.6177
  141SAPE   H2Y15383   1.440  -0.156  10.048  0.5487  0.5860 -0.2669
  141SAPE   C2315384   1.238   0.467   9.970 -0.2201  0.7578 -0.7023
  141SAPE   H3R15385   1.341   0.450  10.010  0.1436  0.6182 -1.6768
  141SAPE   H3S15386   1.190   0.561  10.005  0.5388  1.5979 -1.8655
  141SAPE   C2415387   1.241   0.451   9.818  0.9073  0.0093 -0.5080
  141SAPE   H4R15388   1.269   0.349   9.786 -1.2540  0.1257 -3.1035
  141SAPE   H4S15389   1.322   0.513   9.774  0.0117  3.4183  2.1663
  141SAPE   C2515390   1.104   0.471   9.753  0.0924 -1.0148 -0.2469
  141SAPE   H5R15391   1.022   0.453   9.824  0.3194 -1.4060 -0.0828
  141SAPE   C2615392   1.076   0.531   9.638  0.0382  0.5457 -0.4550
  141SAPE   H6R15393   0.973   0.548   9.604  0.0985  1.3524 -0.2408
  141SAPE   C2715394   1.184   0.567   9.542  0.1517 -0.3461  0.2018
  141SAPE   H7R15395   1.247   0.479   9.515 -1.8445 -1.9065  0.4016
  141SAPE   H7S15396   1.259   0.633   9.590  3.5604 -2.6509 -1.5069
  141SAPE   C2815397   1.132   0.648   9.427  0.0350 -0.5729 -0.3644
  141SAPE   H8R15398   1.116   0.751   9.463  0.9128 -0.9192  1.0972
  141SAPE   C2915399   1.134   0.629   9.295 -0.4228 -0.0678  0.7395
  141SAPE   H9R15400   1.093   0.697   9.219  0.0580 -1.6909 -1.0554
  141SAPE  C21015401   1.195   0.500   9.227 -0.3836  0.6601 -0.3359
  141SAPE  H10R15402   1.168   0.411   9.287 -2.7043  1.1795 -0.5047
  141SAPE  H10S15403   1.305   0.512   9.228 -0.5330  2.6888 -1.5827
  141SAPE  C21115404   1.147   0.474   9.088  0.4245 -0.0341  0.2285
  141SAPE  H11R15405   1.049   0.516   9.061  0.3624 -0.4359 -0.1841
  141SAPE  C21215406   1.204   0.411   8.984  0.0704 -0.4700  0.2983
  141SAPE  H12R15407   1.147   0.419   8.890 -1.7407 -0.1895  1.3570
  141SAPE  C21315408   1.333   0.348   8.991  0.3096  0.1019  0.3541
  141SAPE  H13R15409   1.320   0.238   8.990 -1.6519  0.2869 -1.0537
  141SAPE  H13S15410   1.379   0.384   9.086 -0.1329 -2.1367  1.4898
  141SAPE  C21415411   1.406   0.379   8.861  0.0846 -0.6438 -0.2028
  141SAPE  H14R15412   1.407   0.301   8.783 -3.6497  0.5159 -1.6507
  141SAPE  C21515413   1.446   0.504   8.819 -0.3634  0.7202 -0.2579
  141SAPE  H15R15414   1.497   0.502   8.722 -0.6469 -1.3429 -0.4096
  141SAPE  C21615415   1.432   0.636   8.891 -0.0253 -0.1782  0.9787
  141SAPE  H16R15416   1.415   0.623   9.000  0.2859 -0.1012  1.0382
  141SAPE  H16S15417   1.342   0.680   8.844 -0.3977 -2.0450 -0.1684
  141SAPE  C21715418   1.554   0.726   8.887 -0.3806  0.0919 -0.4967
  141SAPE  H17R15419   1.541   0.819   8.946  1.0999  0.1723 -0.2521
  141SAPE  H17S15420   1.571   0.758   8.782  5.0204  1.1630  0.3668
  141SAPE  C21815421   1.688   0.663   8.943 -0.4860 -0.4344 -0.1070
  141SAPE  H18R15422   1.779   0.707   8.898  0.4185 -2.4810 -0.3571
  141SAPE  H18S15423   1.686   0.557   8.910 -2.7609 -0.1378 -1.1185
  141SAPE  C21915424   1.702   0.677   9.089 -0.6644 -0.5217 -0.2653
  141SAPE  H19R15425   1.607   0.643   9.136  0.0174  1.3157  2.7102
  141SAPE  H19S15426   1.698   0.777   9.136 -0.3622 -1.7107  2.5181
  141SAPE  C22015427   1.820   0.599   9.147 -0.2332 -0.2860 -0.4268
  141SAPE  H20R15428   1.919   0.635   9.112  0.0202 -1.0989 -0.5658
  141SAPE  H20S15429   1.814   0.500   9.099 -3.4014  0.3507 -1.5435
  141SAPE  H20T15430   1.804   0.601   9.257  0.7048 -0.7422 -0.2711
  141SAPE   C3315431   1.331  -0.056   9.887  0.0518  0.3026  0.1540
  141SAPE   H3X15432   1.248   0.015   9.868  0.2342  0.0609 -1.8292
  141SAPE   H3Y15433   1.298  -0.149   9.836  0.5597  1.1753 -1.9091
  141SAPE   C3415434   1.453  -0.000   9.804 -0.0008 -0.1217 -0.0973
  141SAPE   H4X15435   1.484   0.099   9.842 -0.5134  0.7679 -1.8660
  141SAPE   H4Y15436   1.432   0.010   9.695  0.9570  2.3696 -0.1135
  141SAPE   C3515437   1.582  -0.083   9.810 -0.6735 -0.7643  0.2614
  141SAPE   H5X15438   1.627  -0.058   9.908  0.9473 -0.3497 -0.5419
  141SAPE   H5Y15439   1.659  -0.051   9.736 -2.1226  0.2180 -0.8933
  141SAPE   C3615440   1.565  -0.235   9.798  0.1066  0.5609  0.2780
  141SAPE   H6X15441   1.482  -0.270   9.863  0.1986  0.0939  0.1522
  141SAPE   H6Y15442   1.651  -0.292   9.841 -0.4062  0.5089  1.2601
  141SAPE   C3715443   1.531  -0.285   9.653  0.0198  0.3189  0.2420
  141SAPE   H7X15444   1.588  -0.377   9.630 -0.6719 -0.8536  2.8839
  141SAPE   H7Y15445   1.576  -0.209   9.586 -1.8188  2.4994  1.3385
  141SAPE   C3815446   1.386  -0.309   9.622  0.4647 -0.6056 -0.5388
  141SAPE   H8X15447   1.331  -0.213   9.626 -1.7055 -1.8205  0.7952
  141SAPE   H8Y15448   1.346  -0.369   9.707 -1.1890  0.5487 -0.4539
  141SAPE   C3915449   1.360  -0.364   9.485 -0.3089  0.2567  0.8656
  141SAPE   H9X15450   1.250  -0.363   9.465 -0.3073 -0.9101  0.7143
  141SAPE   H9Y15451   1.397  -0.467   9.468  2.2028  1.0899  0.8821
  141SAPE  C31015452   1.421  -0.273   9.378 -0.5812  0.1778 -0.5931
  141SAPE  H10X15453   1.532  -0.283   9.384 -0.7113 -0.4313  1.8449
  141SAPE  H10Y15454   1.393  -0.166   9.386  3.1587  1.2184  0.7997
  141SAPE  C31115455   1.379  -0.320   9.239 -0.2572 -0.4477 -0.1261
  141SAPE  H11X15456   1.271  -0.297   9.226 -0.6007 -3.1439 -3.4298
  141SAPE  H11Y15457   1.393  -0.430   9.232 -2.9242 -1.0039  1.5250
  141SAPE  C31215458   1.452  -0.249   9.122 -0.7026 -0.3809 -0.0062
  141SAPE  H12X15459   1.557  -0.283   9.134 -0.7256 -0.9477 -1.2651
  141SAPE  H12Y15460   1.451  -0.141   9.148  2.0272 -0.1250 -0.6556
  141SAPE  C31315461   1.407  -0.253   8.978 -0.3599  0.3425  0.3840
  141SAPE  H13X15462   1.392  -0.148   8.944 -1.0196  0.4762  1.0665
  141SAPE  H13Y15463   1.316  -0.315   8.966  0.3853 -0.5117 -1.1207
  141SAPE  C31415464   1.513  -0.316   8.886  0.1016  0.1460  0.7693
  141SAPE  H14X15465   1.508  -0.427   8.885  2.8673 -0.0881 -2.3299
  141SAPE  H14Y15466   1.614  -0.290   8.926  1.1192 -2.2571 -0.0503
  141SAPE  C31515467   1.515  -0.279   8.737  0.8453 -0.3733 -0.4548
  141SAPE  H15X15468   1.513  -0.168   8.729  1.8956 -0.3958 -1.2879
  141SAPE  H15Y15469   1.430  -0.318   8.676  0.4334  0.6835 -0.5881
  141SAPE  C31615470   1.642  -0.324   8.668  0.1175 -0.0756 -0.3334
  141SAPE  H16X15471   1.732  -0.274   8.710  1.1444  0.8752 -3.3674
  141SAPE  H16Y15472   1.633  -0.290   8.562 -0.0681 -2.4518 -1.1377
  141SAPE  C31715473   1.655  -0.474   8.672  1.0829  0.6101  0.1143
  141SAPE  H17X15474   1.557  -0.525   8.672  1.5673 -0.3692  1.3800
  141SAPE  H17Y15475   1.701  -0.509   8.767  1.0823 -0.8338 -0.3943
  141SAPE  C31815476   1.736  -0.535   8.554  0.2300  0.4141 -0.6912
  141SAPE  H18X15477   1.841  -0.530   8.589 -0.2361 -0.1185  0.8480
  141SAPE  H18Y15478   1.729  -0.475   8.461  0.7447  1.3414 -0.1485
  141SAPE  H18Z15479   1.719  -0.643   8.536  1.2646 -0.0811  1.0714
  142SAPE     N15480   2.676   5.203  10.952 -0.4785 -0.0540 -0.8919
  142SAPE   HN115481   2.738   5.135  11.000 -0.5574  1.0024  0.7938
  142SAPE   HN215482   2.632   5.154  10.872 -0.1181 -0.9945 -0.5258
  142SAPE   HN315483   2.741   5.275  10.913 -0.1597 -0.3098 -0.8404
  142SAPE   C1215484   2.579   5.279  11.038  0.1430  0.5282  0.2137
  142SAPE  H12A15485   2.632   5.356  11.097 -0.4913  1.5879 -0.5637
  142SAPE  H12B15486   2.527   5.209  11.107 -2.4212  1.3652 -0.7276
  142SAPE   C1115487   2.478   5.341  10.943 -0.0093  0.0583  0.2158
  142SAPE  H11A15488   2.397   5.392  11.001 -1.4300 -1.1758 -0.6197
  142SAPE  H11B15489   2.432   5.249  10.901 -0.9163  0.1886  0.8867
  142SAPE     P15490   2.535   5.579  10.847  0.1113  0.2671 -0.1381
  142SAPE   O1315491   2.402   5.638  10.817  0.6961 -0.5329  0.6258
  142SAPE   O1415492   2.598   5.629  10.975  0.1315  0.2321  0.5708
  142SAPE   O1215493   2.534   5.419  10.839 -0.2864  0.2570 -0.9686
  142SAPE   O1115494   2.639   5.612  10.733  0.0419 -0.0070  0.3745
  142SAPE    C115495   2.752   5.518  10.704 -0.9183 -0.0361  0.1309
  142SAPE    HA15496   2.828   5.517  10.786  2.0228 -1.9598 -2.3942
  142SAPE    HB15497   2.731   5.410  10.691  0.5004 -0.7736  2.9791
  142SAPE    C215498   2.837   5.556  10.578 -0.1472  0.1073  0.8100
  142SAPE    HS15499   2.884   5.653  10.608 -3.0882  2.1106 -0.5315
  142SAPE   O2115500   2.753   5.585  10.468  0.2783  0.1281 -0.5723
  142SAPE   C2115501   2.828   5.635  10.362  0.3372 -0.5461 -0.8520
  142SAPE   O2215502   2.942   5.678  10.370 -0.0901 -0.3873 -0.1007
  142SAPE   C2215503   2.742   5.633  10.234  0.4576 -0.1715  0.1827
  142SAPE   H2R15504   2.681   5.541  10.232 -0.6154  0.5381 -0.7763
  142SAPE   H2S15505   2.671   5.719  10.228  0.1034 -0.5362 -1.2125
  142SAPE    C315506   2.939   5.439  10.547  0.9234  0.0270 -0.4627
  142SAPE    HX15507   2.961   5.404  10.651 -0.7153 -1.9604 -0.7185
  142SAPE    HY15508   3.034   5.469  10.498  0.9765 -1.4723 -1.3252
  142SAPE   O3115509   2.877   5.322  10.494  0.4203 -0.3707 -0.8091
  142SAPE   C3115510   2.896   5.306  10.361  0.6492  0.4299  0.1110
  142SAPE   O3215511   2.963   5.385  10.294 -0.1139 -0.0111 -0.2283
  142SAPE   C3215512   2.834   5.175  10.325  0.0904  0.1834  0.1566
  142SAPE   H2X15513   2.740   5.163  10.383 -0.7381  2.9396 -0.4593
  142SAPE   H2Y15514   2.906   5.091  10.338 -1.4109 -0.9895  1.3248
  142SAPE   C2315515   2.822   5.644  10.102 -0.8542  0.2623  0.4749
  142SAPE   H3R15516   2.886   5.555  10.085 -0.1932  0.9325 -0.7165
  142SAPE   H3S15517   2.892   5.730  10.109  1.5699 -1.5478  0.0565
  142SAPE   C2415518   2.736   5.651   9.975  0.2068  0.1138  0.6361
  142SAPE   H4R15519   2.692   5.550   9.954  3.5679 -1.2563 -0.4742
  142SAPE   H4S15520   2.794   5.653   9.881 -0.8535 -2.2191 -0.1591
  142SAPE   C2515521   2.625   5.751   9.980  0.1273  0.1049 -0.1744
  142SAPE   H5R15522   2.554   5.737  10.063  0.2362 -0.2270 -0.1353
  142SAPE   C2615523   2.613   5.862   9.910  0.3654  0.6844  0.4396
  142SAPE   H6R15524   2.526   5.928   9.920  1.1932  1.8341  0.3247
  142SAPE   C2715525   2.711   5.902   9.802  0.3380  0.1088 -0.1145
  142SAPE   H7R15526   2.678   5.851   9.708  1.5082 -0.1208 -0.4184
  142SAPE   H7S15527   2.815   5.867   9.821  0.6304  0.4928 -0.9445
  142SAPE   C2815528   2.706   6.051   9.787 -0.8792  0.1071 -0.2555
  142SAPE   H8R15529   2.743   6.110   9.873 -2.1354  1.2996 -0.5098
  142SAPE   C2915530   2.669   6.133   9.681 -0.0673  0.6213  0.1162
  142SAPE   H9R15531   2.695   6.239   9.695 -0.4136  0.8012 -0.5171
  142SAPE  C21015532   2.618   6.090   9.545  0.3267  0.3962  0.1923
  142SAPE  H10R15533   2.509   6.108   9.528  0.0621  1.9411  3.0312
  142SAPE  H10S15534   2.636   5.980   9.545  0.1295  0.3612 -0.2711
  142SAPE  C21115535   2.705   6.153   9.433  0.4561 -1.1007 -0.3905
  142SAPE  H11R15536   2.698   6.262   9.420  0.0359 -1.1812 -0.8337
  142SAPE  C21215537   2.796   6.096   9.353 -0.0280  0.0674 -0.1387
  142SAPE  H12R15538   2.845   6.160   9.277  1.3804 -0.2468  0.4656
  142SAPE  C21315539   2.837   5.947   9.346 -0.5944 -0.1450 -0.3332
  142SAPE  H13R15540   2.791   5.900   9.257 -0.5757 -3.6056  1.3239
  142SAPE  H13S15541   2.791   5.892   9.431 -3.0601 -2.3453 -2.8843
  142SAPE  C21415542   2.991   5.929   9.346  0.4887  0.7063  0.5671
  142SAPE  H14R15543   3.038   5.955   9.442 -0.5849 -0.2465  1.3860
  142SAPE  C21515544   3.062   5.848   9.268  0.2637 -0.3010  0.3537
  142SAPE  H15R15545   3.172   5.856   9.268  0.3019 -0.5891 -0.8104
  142SAPE  C21615546   3.003   5.768   9.153 -0.0978 -0.1932  0.4093
  142SAPE  H16R15547   2.892   5.767   9.156 -0.1365 -0.5694 -0.7207
  142SAPE  H16S15548   3.033   5.662   9.169  2.0865  0.1273 -1.1009
  142SAPE  C21715549   3.053   5.805   9.011  0.2658 -0.3746 -0.0292
  142SAPE  H17R15550   3.022   5.710   8.963 -2.6290  0.3091  0.2886
  142SAPE  H17S15551   3.159   5.835   8.999 -0.1414  1.4529  0.5992
  142SAPE  C21815552   2.978   5.913   8.939 -0.2212 -0.9210 -0.2592
  142SAPE  H18R15553   3.013   6.014   8.970 -1.1840 -1.5604  3.3959
  142SAPE  H18S15554   2.871   5.909   8.966  0.1306  2.3507  2.2431
  142SAPE  C21915555   3.006   5.898   8.785  0.3747 -0.3045 -0.3107
  142SAPE  H19R15556   3.065   5.805   8.771  1.3726  0.2091  0.3692
  142SAPE  H19S15557   3.077   5.977   8.755  0.8654  0.1666  1.9152
  142SAPE  C22015558   2.880   5.881   8.696 -0.6478  0.0336 -0.1188
  142SAPE  H20R15559   2.809   5.967   8.695 -1.4018 -0.5769 -0.7453
  142SAPE  H20S15560   2.820   5.800   8.742  0.9672 -0.9731  0.2715
  142SAPE  H20T15561   2.904   5.854   8.591 -0.8909 -0.7540  0.0273
  142SAPE   C3315562   2.784   5.175  10.176 -0.8051  0.4689  0.0402
  142SAPE   H3X15563   2.727   5.268  10.157  1.2832  1.7253 -0.4542
  142SAPE   H3Y15564   2.725   5.082  10.160 -0.0226  0.3141 -2.3905
  142SAPE   C3415565   2.895   5.167  10.065 -0.7710 -0.5444  0.3297
  142SAPE   H4X15566   2.961   5.084  10.100  0.8982  0.4517 -0.3310
  142SAPE   H4Y15567   2.963   5.255  10.062 -1.3747 -0.0601 -2.5222
  142SAPE   C3515568   2.847   5.146   9.923 -0.9337  0.1173  0.6449
  142SAPE   H5X15569   2.790   5.051   9.914 -1.7224  0.5307  1.1073
  142SAPE   H5Y15570   2.924   5.139   9.843 -1.4883  1.4957 -0.0461
  142SAPE   C3615571   2.753   5.263   9.888 -0.4706  0.3469  0.9355
  142SAPE   H6X15572   2.810   5.354   9.917 -0.3324  0.3240  0.7359
  142SAPE   H6Y15573   2.660   5.245   9.946 -0.8000  0.3386  0.4028
  142SAPE   C3715574   2.725   5.272   9.740  0.5324  0.3219  0.9049
  142SAPE   H7X15575   2.666   5.184   9.708  0.1728  0.1836  1.9430
  142SAPE   H7Y15576   2.822   5.257   9.686 -0.4766 -1.4995 -0.5245
  142SAPE   C3815577   2.651   5.396   9.709 -0.0998  0.1186  0.1575
  142SAPE   H8X15578   2.721   5.478   9.734  0.0997 -0.4892  1.7707
  142SAPE   H8Y15579   2.569   5.405   9.783  1.0877 -0.1144  1.5607
  142SAPE   C3915580   2.600   5.403   9.565 -1.0766  0.2650  0.4422
  142SAPE   H9X15581   2.543   5.498   9.562  1.9285  2.1960  0.3157
  142SAPE   H9Y15582   2.532   5.316   9.557  1.6924 -1.9791 -0.5335
  142SAPE  C31015583   2.700   5.409   9.450 -0.0213 -0.4427 -0.2140
  142SAPE  H10X15584   2.753   5.313   9.432  0.2307 -0.1591 -0.9732
  142SAPE  H10Y15585   2.773   5.490   9.470 -1.1582  0.5660  0.0153
  142SAPE  C31115586   2.636   5.449   9.314  0.1857 -0.7052 -0.9955
  142SAPE  H11X15587   2.599   5.552   9.336  0.2060 -1.1275  1.3151
  142SAPE  H11Y15588   2.548   5.395   9.274 -1.7441  1.1340  0.5523
  142SAPE  C31215589   2.740   5.455   9.206 -0.4024 -0.2614  0.2359
  142SAPE  H12X15590   2.796   5.359   9.199 -0.7049 -0.4259  0.0693
  142SAPE  H12Y15591   2.813   5.533   9.236 -0.9141 -0.0372  0.9251
  142SAPE  C31315592   2.701   5.492   9.065 -0.0329  0.2055  0.2277
  142SAPE  H13X15593   2.795   5.503   9.009  0.5048 -1.1921  0.8054
  142SAPE  H13Y15594   2.651   5.590   9.079 -0.5178  0.0347 -0.2648
  142SAPE  C31415595   2.614   5.386   8.997 -0.2429 -0.0605 -0.3991
  142SAPE  H14X15596   2.515   5.376   9.046 -0.7173  1.1947 -1.0888
  142SAPE  H14Y15597   2.672   5.291   8.994  3.3007  1.9206 -0.3344
  142SAPE  C31515598   2.580   5.407   8.849 -0.3264 -0.5089  0.1313
  142SAPE  H15X15599   2.509   5.327   8.819  1.0849 -1.1447 -1.7030
  142SAPE  H15Y15600   2.675   5.424   8.793  0.5666  1.9977  2.1931
  142SAPE  C31615601   2.519   5.547   8.822 -0.0547 -0.2549 -0.4040
  142SAPE  H16X15602   2.609   5.613   8.825  0.6573 -1.2366  0.5463
  142SAPE  H16Y15603   2.445   5.584   8.895  0.6467 -0.5516  0.4751
  142SAPE  C31715604   2.457   5.563   8.686  0.3182  0.4253  0.0799
  142SAPE  H17X15605   2.358   5.512   8.682  0.2055  0.6897 -0.9126
  142SAPE  H17Y15606   2.521   5.508   8.614 -0.0453 -0.0509  0.1195
  142SAPE  C31815607   2.448   5.705   8.632  0.6387  0.9953  0.2639
  142SAPE  H18X15608   2.416   5.704   8.526  0.8287  0.3270  0.2034
  142SAPE  H18Y15609   2.551   5.746   8.630  1.4452 -0.9425 -1.6033
  142SAPE  H18Z15610   2.394   5.773   8.701  0.8108  1.4350 -0.0373
  143SAPE     N15611   3.362   5.045  10.869  0.0804 -0.5394  0.4925
  143SAPE   HN115612   3.352   4.960  10.928 -1.7078 -0.2467  0.6687
  143SAPE   HN215613   3.268   5.085  10.850  1.4161  1.8954 -1.7015
  143SAPE   HN315614   3.389   5.011  10.774  0.0410  0.6337  0.0518
  143SAPE   C1215615   3.451   5.149  10.932 -0.3152  0.4905  0.0263
  143SAPE  H12A15616   3.554   5.117  10.955 -0.3771 -0.0508 -0.4261
  143SAPE  H12B15617   3.401   5.180  11.027 -1.0599 -0.2923 -0.0945
  143SAPE   C1115618   3.457   5.284  10.843 -0.1184 -0.2801  0.1238
  143SAPE  H11A15619   3.519   5.262  10.753 -2.7596 -1.5568 -1.4871
  143SAPE  H11B15620   3.524   5.359  10.890 -0.3472 -0.5019  0.8152
  143SAPE     P15621   3.261   5.448  10.869  0.0288 -0.3489  0.4087
  143SAPE   O1315622   3.123   5.454  10.821  0.2844 -0.2973 -0.2021
  143SAPE   O1415623   3.284   5.438  11.015  0.0116  0.6155 -0.2260
  143SAPE   O1215624   3.332   5.328  10.797  0.4192 -0.3763 -0.1221
  143SAPE   O1115625   3.342   5.566  10.810 -0.2073  0.3688 -0.2148
  143SAPE    C115626   3.338   5.613  10.673  0.2433  0.3115 -0.1334
  143SAPE    HA15627   3.245   5.581  10.620  0.5988  2.3428 -2.1659
  143SAPE    HB15628   3.313   5.721  10.667  0.1476  0.3382  0.6243
  143SAPE    C215629   3.449   5.558  10.578  0.9454 -0.5875  0.1040
  143SAPE    HS15630   3.428   5.449  10.568 -0.7942 -0.2192 -0.5900
  143SAPE   O2115631   3.576   5.576  10.639  0.4562  0.0625  0.0153
  143SAPE   C2115632   3.675   5.495  10.596 -0.4051  0.4993 -0.0029
  143SAPE   O2215633   3.662   5.396  10.521  0.0493 -0.0003 -0.0377
  143SAPE   C2215634   3.811   5.530  10.664  0.6648 -0.1774 -0.0940
  143SAPE   H2R15635   3.809   5.639  10.688  1.6298 -0.0729 -0.4368
  143SAPE   H2S15636   3.812   5.485  10.765 -1.9110  3.4301  1.7886
  143SAPE    C315637   3.446   5.631  10.436 -0.1931  0.6632  0.0116
  143SAPE    HX15638   3.535   5.591  10.383  2.4008 -0.2211  4.4766
  143SAPE    HY15639   3.463   5.740  10.447 -1.9660  0.8422  1.5114
  143SAPE   O3115640   3.323   5.600  10.365 -0.4755  1.2410  0.2011
  143SAPE   C3115641   3.332   5.645  10.243  0.2021  0.6841 -0.1455
  143SAPE   O3215642   3.423   5.717  10.206 -0.3211  0.3621  0.2049
  143SAPE   C3215643   3.222   5.586  10.149 -0.3645 -0.2106  0.2113
  143SAPE   H2X15644   3.127   5.635  10.180 -0.6528  0.3862 -1.4733
  143SAPE   H2Y15645   3.217   5.479  10.175  1.0305 -0.5847 -0.9051
  143SAPE   C2315646   3.931   5.491  10.586 -0.0072  0.1171 -0.4844
  143SAPE   H3R15647   3.943   5.382  10.603 -1.5313  0.1414  1.0376
  143SAPE   H3S15648   4.024   5.524  10.638 -0.1104 -3.1382  2.1239
  143SAPE   C2415649   3.923   5.522  10.437 -0.0575 -0.6651  1.0296
  143SAPE   H4R15650   3.866   5.445  10.380  0.8473 -1.1064  0.6956
  143SAPE   H4S15651   4.019   5.506  10.381 -0.4962  0.5164 -0.1104
  143SAPE   C2515652   3.877   5.658  10.404  0.6130 -0.8324 -0.0975
  143SAPE   H5R15653   3.856   5.736  10.478 -1.3773 -1.7080  0.3139
  143SAPE   C2615654   3.830   5.687  10.285  0.8438 -0.2579  0.0137
  143SAPE   H6R15655   3.789   5.785  10.258  0.4478 -0.8354 -1.6069
  143SAPE   C2715656   3.830   5.608  10.162  0.0198  0.4642  0.5070
  143SAPE   H7R15657   3.731   5.601  10.112 -0.3516 -1.7684  1.4480
  143SAPE   H7S15658   3.862   5.504  10.180  0.4911 -0.0625 -2.7353
  143SAPE   C2815659   3.924   5.664  10.067  0.7959 -0.1869 -0.8424
  143SAPE   H8R15660   4.030   5.641  10.083  0.8690 -1.8832 -3.2284
  143SAPE   C2915661   3.894   5.729   9.951 -0.0773 -0.1777 -0.3690
  143SAPE   H9R15662   3.975   5.765   9.886  1.1674 -1.1051  0.6374
  143SAPE  C21015663   3.751   5.755   9.908  0.5464  0.3144  0.3068
  143SAPE  H10R15664   3.700   5.808   9.992 -1.6191 -0.2681 -0.5605
  143SAPE  H10S15665   3.702   5.655   9.899  0.8437  0.2557 -0.6758
  143SAPE  C21115666   3.706   5.834   9.787  0.5811  0.4194  0.1379
  143SAPE  H11R15667   3.692   5.943   9.796 -1.9742  0.2335 -0.7900
  143SAPE  C21215668   3.669   5.786   9.668  0.2494 -0.4496  0.0417
  143SAPE  H12R15669   3.631   5.856   9.593  0.6809  0.8786  1.0253
  143SAPE  C21315670   3.659   5.633   9.638  0.5962 -0.2988  0.2049
  143SAPE  H13R15671   3.714   5.566   9.708 -0.5016 -2.0454 -0.5337
  143SAPE  H13S15672   3.714   5.614   9.543  1.6164 -3.2818  1.2653
  143SAPE  C21415673   3.512   5.586   9.623 -0.7350  0.2980  0.5965
  143SAPE  H14R15674   3.472   5.524   9.705  0.4728 -2.7603 -0.9434
  143SAPE  C21515675   3.439   5.607   9.509 -0.1527  0.5990 -0.2932
  143SAPE  H15R15676   3.333   5.576   9.509  0.0369 -0.0941  0.4802
  143SAPE  C21615677   3.478   5.686   9.388  0.0696 -0.0036 -0.1483
  143SAPE  H16R15678   3.562   5.755   9.411 -0.5872  0.6202  0.4434
  143SAPE  H16S15679   3.394   5.756   9.368 -1.2161 -1.2146  0.8412
  143SAPE  C21715680   3.513   5.597   9.268  0.5937  0.0061  0.2779
  143SAPE  H17R15681   3.426   5.529   9.251  0.6745  0.4324 -2.2028
  143SAPE  H17S15682   3.607   5.544   9.292  1.8386  3.1879  3.1604
  143SAPE  C21815683   3.511   5.670   9.133  0.6703 -0.7500  0.0392
  143SAPE  H18R15684   3.598   5.736   9.113  0.3422 -0.3830 -0.2143
  143SAPE  H18S15685   3.415   5.727   9.141 -0.7806 -3.2691  2.0132
  143SAPE  C21915686   3.495   5.571   9.020 -0.4227 -0.5892 -0.6019
  143SAPE  H19R15687   3.389   5.540   9.008 -2.0289  3.4088  1.2661
  143SAPE  H19S15688   3.551   5.477   9.040 -0.5302  0.0366  3.7965
  143SAPE  C22015689   3.562   5.633   8.899  0.6374  0.5881  0.4841
  143SAPE  H20R15690   3.505   5.718   8.854 -0.2607 -0.0296  0.4404
  143SAPE  H20S15691   3.562   5.554   8.821 -1.4406  1.0192 -0.0275
  143SAPE  H20T15692   3.669   5.657   8.918  1.0892 -0.3274 -0.7740
  143SAPE   C3315693   3.245   5.608   9.997  0.3109 -0.6288 -0.1621
  143SAPE   H3X15694   3.338   5.563   9.956  0.6086 -0.2595  0.1037
  143SAPE   H3Y15695   3.256   5.715   9.971  0.4067 -1.2084 -2.7072
  143SAPE   C3415696   3.122   5.549   9.919 -0.2578  0.4412  0.1634
  143SAPE   H4X15697   3.041   5.624   9.936 -1.1093 -0.3908 -0.1322
  143SAPE   H4Y15698   3.083   5.465   9.980 -0.8543  0.5948  0.0002
  143SAPE   C3515699   3.129   5.532   9.768 -0.0384 -0.2021  0.3506
  143SAPE   H5X15700   3.149   5.429   9.731 -0.3372 -0.4349  0.8362
  143SAPE   H5Y15701   3.214   5.598   9.739 -0.6374 -0.1654 -1.4683
  143SAPE   C3615702   3.010   5.579   9.681  0.1488  0.0904 -0.4520
  143SAPE   H6X15703   2.973   5.675   9.722 -0.8742 -0.0830 -0.9419
  143SAPE   H6Y15704   2.929   5.505   9.701 -0.4620  0.9019  0.1841
  143SAPE   C3715705   3.027   5.563   9.531  0.1826  0.1183  0.1476
  143SAPE   H7X15706   3.113   5.627   9.501  0.9547 -1.4062 -1.0549
  143SAPE   H7Y15707   2.942   5.594   9.466 -2.4394 -4.2185  1.1391
  143SAPE   C3815708   3.060   5.417   9.489 -0.1673  0.1590  0.3863
  143SAPE   H8X15709   2.967   5.359   9.508 -2.2814  1.1611 -4.9702
  143SAPE   H8Y15710   3.154   5.378   9.534 -0.9496 -1.5369  0.6461
  143SAPE   C3915711   3.079   5.414   9.332  0.7939 -0.2097  0.1781
  143SAPE   H9X15712   3.170   5.469   9.299  0.5721 -0.0488 -0.1629
  143SAPE   H9Y15713   2.990   5.463   9.287  0.6986 -1.0174 -0.5418
  143SAPE  C31015714   3.083   5.279   9.275  0.1383  0.5229 -0.5674
  143SAPE  H10X15715   2.985   5.234   9.298  0.2186  0.6606  0.0480
  143SAPE  H10Y15716   3.160   5.217   9.326  1.9305  1.8689 -1.5027
  143SAPE  C31115717   3.109   5.273   9.124  0.3774  0.3026 -0.4644
  143SAPE  H11X15718   3.077   5.171   9.092 -1.8033  1.1455 -1.1337
  143SAPE  H11Y15719   3.218   5.286   9.110  0.5191 -0.5773 -0.2679
  143SAPE  C31215720   3.039   5.361   9.025  0.2461 -0.4919 -0.0614
  143SAPE  H12X15721   3.046   5.470   9.047  1.8634 -0.4158 -0.8060
  143SAPE  H12Y15722   2.931   5.339   9.036  0.0633  1.4111  6.1150
  143SAPE  C31315723   3.075   5.332   8.878  0.3747 -0.7767 -0.0249
  143SAPE  H13X15724   2.986   5.355   8.815 -0.0577 -2.7551 -0.1786
  143SAPE  H13Y15725   3.090   5.222   8.880 -0.9038 -0.9982  3.4478
  143SAPE  C31415726   3.199   5.405   8.814  0.1570 -0.5341 -0.6012
  143SAPE  H14X15727   3.290   5.375   8.870 -1.9206  1.7869  4.6992
  143SAPE  H14Y15728   3.179   5.514   8.830  3.0136  0.2762 -1.8703
  143SAPE  C31515729   3.236   5.381   8.664 -0.1757  0.3721  0.4251
  143SAPE  H15X15730   3.265   5.277   8.641 -0.1989  0.4682 -0.0443
  143SAPE  H15Y15731   3.323   5.443   8.632  0.0191  0.1773  0.5688
  143SAPE  C31615732   3.120   5.411   8.563  0.5235  0.0112  0.4122
  143SAPE  H16X15733   3.031   5.358   8.604  0.8364 -0.5565  0.3680
  143SAPE  H16Y15734   3.149   5.359   8.470 -0.1734  0.4943 -0.0890
  143SAPE  C31715735   3.084   5.553   8.534  0.2837 -0.1310 -0.3305
  143SAPE  H17X15736   3.175   5.608   8.502 -0.0138 -0.1037 -1.1419
  143SAPE  H17Y15737   3.052   5.606   8.626  1.5469  1.3923 -0.7311
  143SAPE  C31815738   2.971   5.566   8.430 -0.1583 -0.6041  0.2673
  143SAPE  H18X15739   3.007   5.527   8.333  0.4456 -0.8733  0.5933
  143SAPE  H18Y15740   2.949   5.672   8.403 -1.0969 -0.9008 -0.1600
  143SAPE  H18Z15741   2.874   5.521   8.459 -0.2058 -0.1948  0.7629
  144SAPE     N15742   0.501   3.778  10.759 -0.8436 -0.5766  0.1684
  144SAPE   HN115743   0.535   3.847  10.689 -3.7603  1.4842  0.5724
  144SAPE   HN215744   0.467   3.692  10.713  0.3779 -1.1229  0.2647
  144SAPE   HN315745   0.410   3.818  10.790 -0.3782 -0.5138  1.5547
  144SAPE   C1215746   0.600   3.739  10.867 -0.3936  0.1216  1.0716
  144SAPE  H12A15747   0.547   3.662  10.926 -2.9549 -0.0841 -1.2900
  144SAPE  H12B15748   0.616   3.822  10.939  0.8350  1.1263 -0.2776
  144SAPE   C1115749   0.727   3.693  10.806 -0.8343 -0.1335  1.0518
  144SAPE  H11A15750   0.710   3.608  10.737  0.4006  0.5464 -0.1218
  144SAPE  H11B15751   0.792   3.652  10.887 -0.3686 -1.6002 -0.0277
  144SAPE     P15752   0.915   3.773  10.648 -0.2441 -0.1910 -0.4317
  144SAPE   O1315753   0.952   3.908  10.606  0.5120 -0.5316  0.1410
  144SAPE   O1415754   1.026   3.704  10.717  0.6506 -0.2773 -0.1302
  144SAPE   O1215755   0.793   3.796  10.750  0.3315  0.2920  0.0484
  144SAPE   O1115756   0.857   3.685  10.532 -0.4738 -0.3635 -0.8126
  144SAPE    C115757   0.765   3.737  10.430 -0.0324  0.3539  0.1657
  144SAPE    HA15758   0.686   3.662  10.406 -2.7278  3.2771 -0.7438
  144SAPE    HB15759   0.701   3.819  10.466 -2.1207  1.0385 -4.3308
  144SAPE    C215760   0.851   3.795  10.313  0.2884  0.7457 -0.3336
  144SAPE    HS15761   0.882   3.898  10.343  0.3332  0.4632  0.6415
  144SAPE   O2115762   0.766   3.788  10.194  0.2347  0.2520 -0.3849
  144SAPE   C2115763   0.686   3.884  10.177 -0.0800 -0.9309 -0.1503
  144SAPE   O2215764   0.681   3.989  10.247  0.1494  0.5253  0.5682
  144SAPE   C2215765   0.584   3.863  10.067  0.4776  0.0786  0.4203
  144SAPE   H2R15766   0.638   3.843   9.971  0.9910 -1.1457  0.9415
  144SAPE   H2S15767   0.532   3.772  10.104  0.6275  0.0506  0.5621
  144SAPE    C315768   0.980   3.711  10.289  0.1855 -0.2321  0.1124
  144SAPE    HX15769   0.943   3.607  10.279 -1.5045  0.6055 -4.4529
  144SAPE    HY15770   1.063   3.725  10.362 -0.9654  2.7406  1.0109
  144SAPE   O3115771   1.033   3.750  10.157  0.1345 -0.4203 -0.1084
  144SAPE   C3115772   0.992   3.673  10.060  0.1791 -0.8287 -0.8142
  144SAPE   O3215773   0.948   3.561  10.069  0.3240 -0.3045 -0.2209
  144SAPE   C3215774   1.016   3.746   9.929 -1.3580 -0.1423 -0.3218
  144SAPE   H2X15775   1.125   3.736   9.915 -1.2509  0.6678 -0.1047
  144SAPE   H2Y15776   1.004   3.854   9.953  0.1234 -0.1567  0.5999
  144SAPE   C2315777   0.473   3.968  10.045  0.2503 -0.2150  0.0042
  144SAPE   H3R15778   0.521   4.067  10.046  1.4074 -0.7231  2.8545
  144SAPE   H3S15779   0.414   3.955  10.138 -0.1550 -0.1682 -0.2426
  144SAPE   C2415780   0.383   3.932   9.917  0.4137  0.0508  0.8823
  144SAPE   H4R15781   0.386   3.824   9.891 -0.2230  0.5914 -1.6811
  144SAPE   H4S15782   0.425   3.982   9.827 -1.3567 -0.2331 -0.1475
  144SAPE   C2515783   0.235   3.963   9.937 -0.0631  0.5259  0.8327
  144SAPE   H5R15784   0.194   3.974  10.038  0.3521 -0.0328  1.0668
  144SAPE   C2615785   0.158   3.980   9.826 -0.2231 -0.4885 -0.2070
  144SAPE   H6R15786   0.050   3.996   9.836 -0.2638 -0.9890  0.1905
  144SAPE   C2715787   0.207   3.960   9.679 -0.1116  0.1173 -0.0500
  144SAPE   H7R15788   0.132   3.903   9.620 -0.5422 -1.5650  2.0073
  144SAPE   H7S15789   0.309   3.917   9.670  0.4578  1.3703  0.1087
  144SAPE   C2815790   0.226   4.098   9.621  0.6198 -0.0706  0.9445
  144SAPE   H8R15791   0.241   4.183   9.690  0.4245  2.0927 -1.5078
  144SAPE   C2915792   0.241   4.128   9.492  0.3570  0.3797 -0.2566
  144SAPE   H9R15793   0.260   4.233   9.466  1.0583  0.6095  1.0604
  144SAPE  C21015794   0.229   4.035   9.373  0.3196  0.0495 -0.8469
  144SAPE  H10R15795   0.201   3.933   9.408  0.4603  0.4523  0.4999
  144SAPE  H10S15796   0.331   4.031   9.328  1.1015  2.6633  0.4325
  144SAPE  C21115797   0.112   4.074   9.286 -0.0371  0.2089 -0.3766
  144SAPE  H11R15798   0.036   4.137   9.334 -1.8593 -0.7401 -1.9088
  144SAPE  C21215799   0.103   4.063   9.151 -0.2716  0.7709 -0.6722
  144SAPE  H12R15800   0.008   4.093   9.104 -0.4000 -1.9180 -2.3598
  144SAPE  C21315801   0.207   4.007   9.059  0.8296 -0.8615  0.4285
  144SAPE  H13R15802   0.306   4.007   9.110  0.4414  0.1154  1.2056
  144SAPE  H13S15803   0.216   4.076   8.972  0.9614 -1.3186  0.0735
  144SAPE  C21415804   0.175   3.867   9.027  0.6357 -0.2473  0.2838
  144SAPE  H14R15805   0.224   3.798   9.096 -1.4894 -0.5871  1.5299
  144SAPE  C21515806   0.097   3.830   8.923 -0.8861  0.3441  0.1291
  144SAPE  H15R15807   0.082   3.725   8.898 -0.1425  0.5568 -1.3427
  144SAPE  C21615808   0.037   3.922   8.823 -0.4008 -0.0657  0.4351
  144SAPE  H16R15809   0.025   4.028   8.855  0.3328 -0.7804  3.3730
  144SAPE  H16S15810  -0.068   3.892   8.803 -0.0114 -0.1928 -1.6441
  144SAPE  C21715811   0.112   3.933   8.692  0.2945  0.0312  0.0716
  144SAPE  H17R15812   0.140   3.833   8.652 -2.0889  0.3281 -2.6694
  144SAPE  H17S15813   0.208   3.989   8.696  0.1901  0.8972 -4.4762
  144SAPE  C21815814   0.035   3.991   8.573  0.2115  0.1264  0.0070
  144SAPE  H18R15815  -0.062   3.936   8.574 -0.1465  0.6752 -1.4500
  144SAPE  H18S15816   0.092   3.984   8.478 -1.8358  2.8828 -1.5703
  144SAPE  C21915817   0.015   4.141   8.601  0.2936 -0.1500 -0.5107
  144SAPE  H19R15818   0.115   4.191   8.597  0.6695 -0.9214 -0.8177
  144SAPE  H19S15819  -0.037   4.155   8.699  0.5735  1.6464 -0.5712
  144SAPE  C22015820  -0.076   4.206   8.499  0.3383 -0.2604 -0.8706
  144SAPE  H20R15821  -0.117   4.297   8.549  1.1565  1.0144 -2.4397
  144SAPE  H20S15822  -0.158   4.135   8.477  1.4147 -2.0241  0.5343
  144SAPE  H20T15823  -0.018   4.243   8.412  0.7680  1.2670  0.0159
  144SAPE   C3315824   0.948   3.679   9.815  0.0328  0.2056 -0.3017
  144SAPE   H3X15825   0.840   3.678   9.844 -0.2679  1.5051 -1.2846
  144SAPE   H3Y15826   0.973   3.572   9.798 -2.0392 -0.0940 -1.8463
  144SAPE   C3415827   0.959   3.747   9.681 -0.6697 -0.0653  0.4678
  144SAPE   H4X15828   1.063   3.762   9.643 -1.4564 -0.4721 -2.0690
  144SAPE   H4Y15829   0.922   3.852   9.680  1.4541  0.7723 -1.4098
  144SAPE   C3515830   0.881   3.673   9.581  0.0436  0.5180  0.0657
  144SAPE   H5X15831   0.772   3.695   9.593  0.3508  2.6509 -0.7604
  144SAPE   H5Y15832   0.886   3.564   9.602 -0.9563  0.6381  1.1054
  144SAPE   C3615833   0.934   3.705   9.444 -0.2694 -0.3931  0.0713
  144SAPE   H6X15834   1.025   3.642   9.438 -0.5003 -0.8414  1.1160
  144SAPE   H6Y15835   0.960   3.812   9.431 -0.9357 -0.1293  0.8440
  144SAPE   C3715836   0.828   3.656   9.341 -0.7266 -0.7602 -0.0511
  144SAPE   H7X15837   0.739   3.720   9.358 -1.5427 -1.4768 -1.4922
  144SAPE   H7Y15838   0.802   3.549   9.352 -0.6985 -0.8828 -1.1292
  144SAPE   C3815839   0.869   3.677   9.199  0.1093 -0.3415  0.2602
  144SAPE   H8X15840   0.900   3.578   9.159  1.0262  0.7702 -2.0235
  144SAPE   H8Y15841   0.954   3.748   9.191 -1.6088  2.4026  3.8768
  144SAPE   C3915842   0.765   3.734   9.103  0.0217 -0.4118 -0.4703
  144SAPE   H9X15843   0.697   3.805   9.154 -1.3003  0.3586 -3.1413
  144SAPE   H9Y15844   0.707   3.651   9.057  1.9181 -2.3110  0.3442
  144SAPE  C31015845   0.828   3.805   8.989 -0.3387  0.5980  0.0350
  144SAPE  H10X15846   0.883   3.726   8.933 -0.0085  0.1154  1.0292
  144SAPE  H10Y15847   0.903   3.878   9.028  0.3971  0.3204 -0.8216
  144SAPE  C31115848   0.728   3.886   8.903 -0.4681  0.1910 -0.0422
  144SAPE  H11X15849   0.774   3.938   8.816  0.8238 -2.4440 -1.0431
  144SAPE  H11Y15850   0.685   3.952   8.982  1.4445 -0.6718  1.8327
  144SAPE  C31215851   0.607   3.818   8.837 -0.6434 -0.3534 -0.3644
  144SAPE  H12X15852   0.540   3.893   8.789 -1.0174 -0.9368 -0.7737
  144SAPE  H12Y15853   0.544   3.780   8.921 -0.1447  1.0327  0.6648
  144SAPE  C31315854   0.636   3.712   8.731 -0.1023  0.0913  0.1184
  144SAPE  H13X15855   0.699   3.633   8.776 -1.1729 -1.9846 -1.8084
  144SAPE  H13Y15856   0.691   3.768   8.653 -1.9699  1.7748 -0.0741
  144SAPE  C31415857   0.509   3.655   8.677 -0.3222  0.0046 -0.0653
  144SAPE  H14X15858   0.541   3.583   8.599  1.7935  0.7729  0.0199
  144SAPE  H14Y15859   0.444   3.728   8.624 -0.9963  0.5398  1.4409
  144SAPE  C31515860   0.414   3.587   8.780  0.0788 -0.1718 -0.0130
  144SAPE  H15X15861   0.363   3.671   8.832  1.9013  0.3669  1.0091
  144SAPE  H15Y15862   0.479   3.536   8.855 -0.5412 -0.8459  0.0656
  144SAPE  C31615863   0.312   3.487   8.726 -0.0682 -0.0996 -0.4663
  144SAPE  H16X15864   0.360   3.413   8.659  0.5369  0.1400 -0.3053
  144SAPE  H16Y15865   0.240   3.548   8.668 -2.6904 -1.8767  0.7021
  144SAPE  C31715866   0.231   3.399   8.827  0.1237 -0.6898  0.3606
  144SAPE  H17X15867   0.225   3.465   8.917  4.8876  1.1322 -0.3577
  144SAPE  H17Y15868   0.294   3.313   8.857 -0.6365 -2.3050 -2.3304
  144SAPE  C31815869   0.096   3.346   8.774 -0.1610 -0.3799 -0.7106
  144SAPE  H18X15870   0.054   3.278   8.851 -0.2923  2.0023  1.4649
  144SAPE  H18Y15871   0.119   3.276   8.691 -0.4186  0.2796 -1.3489
  144SAPE  H18Z15872   0.014   3.415   8.743  0.0367 -0.6322 -1.8397
  145SAPE     N15873   4.909   5.953  11.022 -0.5000  0.1178 -0.0928
  145SAPE   HN115874   4.966   6.023  11.074  0.4101 -0.3621 -0.4163
  145SAPE   HN215875   4.862   6.006  10.945 -0.0617 -0.2520 -0.6234
  145SAPE   HN315876   4.840   5.909  11.086  0.1330 -0.5238  0.1549
  145SAPE   C1215877   5.007   5.856  10.954  0.3162 -0.2723  0.6156
  145SAPE  H12A15878   5.066   5.914  10.881  0.8550 -1.9208 -0.3004
  145SAPE  H12B15879   4.943   5.783  10.901  1.8135  0.4707 -2.3997
  145SAPE   C1115880   5.098   5.790  11.054 -0.5177 -0.5645  0.2685
  145SAPE  H11A15881   5.158   5.865  11.109  2.6144 -0.6025 -2.7031
  145SAPE  H11B15882   5.161   5.722  10.993 -1.1099 -2.7944  2.0115
  145SAPE     P15883   5.094   5.654  11.269 -0.2352 -0.0123  0.2758
  145SAPE   O1315884   5.131   5.769  11.355  0.2881  0.2952 -0.2183
  145SAPE   O1415885   5.013   5.542  11.323 -0.4599 -0.7432 -0.3852
  145SAPE   O1215886   5.027   5.702  11.137 -0.4514 -0.2433 -0.7839
  145SAPE   O1115887   5.234   5.590  11.210  0.7333 -0.0473 -0.1886
  145SAPE    C115888   5.245   5.444  11.185  0.9701 -0.2554 -0.5786
  145SAPE    HA15889   5.245   5.390  11.282 -0.3361 -2.8163 -1.9010
  145SAPE    HB15890   5.166   5.425  11.109  1.9383  1.9974 -2.2827
  145SAPE    C215891   5.379   5.418  11.112 -0.4141 -0.4307 -0.0358
  145SAPE    HS15892   5.456   5.472  11.172 -0.7688 -1.3152  1.2521
  145SAPE   O2115893   5.374   5.468  10.976 -0.5648  0.5133 -0.4063
  145SAPE   C2115894   5.463   5.561  10.939 -0.0538  0.2234  0.3197
  145SAPE   O2215895   5.554   5.601  11.009  0.3258 -0.1914  0.1493
  145SAPE   C2215896   5.438   5.605  10.790 -0.5022 -0.3576  0.4566
  145SAPE   H2R15897   5.444   5.511  10.731 -2.6584  0.2078 -0.7687
  145SAPE   H2S15898   5.335   5.643  10.773 -0.3728  0.0471  0.5660
  145SAPE    C315899   5.419   5.267  11.095  0.0900 -0.5897 -0.3586
  145SAPE    HX15900   5.339   5.233  11.026 -2.3851  2.9775  0.4993
  145SAPE    HY15901   5.407   5.217  11.194 -1.6115 -0.9266 -0.6983
  145SAPE   O3115902   5.551   5.245  11.034 -0.4329 -0.3247  0.9276
  145SAPE   C3115903   5.657   5.259  11.101 -0.8771 -0.3039  0.7588
  145SAPE   O3215904   5.665   5.303  11.217  0.0192  0.2765  0.1636
  145SAPE   C3215905   5.774   5.226  10.999 -0.4379 -0.2166 -0.7879
  145SAPE   H2X15906   5.795   5.117  10.997  1.1557 -0.0120  0.9761
  145SAPE   H2Y15907   5.859   5.266  11.058 -0.5761  1.8481 -1.8861
  145SAPE   C2315908   5.546   5.706  10.741 -0.1290  0.3828 -0.3250
  145SAPE   H3R15909   5.557   5.795  10.806  0.0504  1.0399 -1.2257
  145SAPE   H3S15910   5.508   5.757  10.650  1.3766 -1.2304 -1.9379
  145SAPE   C2415911   5.682   5.642  10.691  0.3522  0.3326  0.3542
  145SAPE   H4R15912   5.665   5.566  10.612  2.3003 -0.7840  0.9282
  145SAPE   H4S15913   5.728   5.594  10.781 -0.2223 -0.8294  0.0371
  145SAPE   C2515914   5.786   5.745  10.647  0.0394  0.2128  0.3326
  145SAPE   H5R15915   5.834   5.796  10.732  1.0444  0.7923 -0.5545
  145SAPE   C2615916   5.818   5.775  10.523 -0.0993 -0.4297 -0.3521
  145SAPE   H6R15917   5.890   5.857  10.510 -1.0819  0.9601  2.2952
  145SAPE   C2715918   5.770   5.712  10.389  0.0165  0.3842 -0.2064
  145SAPE   H7R15919   5.713   5.618  10.401  2.2532 -0.8694  1.2316
  145SAPE   H7S15920   5.866   5.670  10.353 -0.8760 -1.2210 -0.7986
  145SAPE   C2815921   5.701   5.802  10.294  0.1287  0.0943  0.5508
  145SAPE   H8R15922   5.681   5.902  10.336 -0.0971  1.5314 -2.6427
  145SAPE   C2915923   5.667   5.767  10.170 -0.3545  0.5121  0.7075
  145SAPE   H9R15924   5.604   5.835  10.111 -1.0755 -0.2035  0.6392
  145SAPE  C21015925   5.687   5.629  10.111 -0.0435  0.5040  0.3620
  145SAPE  H10R15926   5.723   5.556  10.187  1.1890 -0.6386 -1.2405
  145SAPE  H10S15927   5.762   5.630  10.030 -0.2379 -1.8750  0.0707
  145SAPE  C21115928   5.559   5.561  10.064 -0.3579  1.3311 -0.0878
  145SAPE  H11R15929   5.511   5.492  10.136  0.1453  1.6938  0.6114
  145SAPE  C21215930   5.495   5.588   9.946 -0.0964 -0.6039  0.1531
  145SAPE  H12R15931   5.402   5.530   9.931  0.4843 -1.1508 -1.6228
  145SAPE  C21315932   5.529   5.683   9.839 -0.0470 -0.0554  0.5340
  145SAPE  H13R15933   5.544   5.634   9.740  1.5524 -0.6488  1.0232
  145SAPE  H13S15934   5.631   5.726   9.851 -0.3636  1.6096 -2.0297
  145SAPE  C21415935   5.437   5.800   9.823  0.3425  0.3600  0.2872
  145SAPE  H14R15936   5.414   5.856   9.914 -1.6493  0.0805  0.0095
  145SAPE  C21515937   5.372   5.846   9.713 -0.4554  0.5593 -1.1282
  145SAPE  H15R15938   5.306   5.933   9.728 -2.0026 -0.6735 -0.5452
  145SAPE  C21615939   5.377   5.797   9.574 -0.3489 -0.0595 -0.1929
  145SAPE  H16R15940   5.300   5.722   9.546 -0.7028  1.1039 -2.5984
  145SAPE  H16S15941   5.467   5.733   9.562 -1.5757 -2.1449  1.1584
  145SAPE  C21715942   5.392   5.902   9.470 -0.1633  0.0250  0.3615
  145SAPE  H17R15943   5.494   5.945   9.476 -0.8086  1.9764 -1.4265
  145SAPE  H17S15944   5.316   5.984   9.479 -2.3368 -1.6618 -1.5380
  145SAPE  C21815945   5.368   5.854   9.328  0.3068  0.5749  0.7558
  145SAPE  H18R15946   5.274   5.901   9.292  1.5690  3.2621  0.7114
  145SAPE  H18S15947   5.339   5.747   9.337 -0.6342  0.6725 -0.7843
  145SAPE  C21915948   5.487   5.859   9.234 -0.5366 -0.3333 -0.2365
  145SAPE  H19R15949   5.566   5.792   9.274  3.0095  3.0869 -0.8654
  145SAPE  H19S15950   5.530   5.960   9.213 -2.5792  0.9470  1.3641
  145SAPE  C22015951   5.458   5.811   9.088  0.4376 -0.0794 -0.5459
  145SAPE  H20R15952   5.542   5.814   9.015  1.7971  0.8201  0.9954
  145SAPE  H20S15953   5.385   5.872   9.029 -0.0683 -1.0021 -0.8960
  145SAPE  H20T15954   5.409   5.712   9.096  0.7806 -0.1343  1.1741
  145SAPE   C3315955   5.775   5.293  10.861  0.0508  0.4414 -0.1498
  145SAPE   H3X15956   5.879   5.298  10.823  0.3427 -2.4905  0.0453
  145SAPE   H3Y15957   5.731   5.395  10.868 -1.4337 -0.1167 -0.7761
  145SAPE   C3415958   5.695   5.227  10.753 -0.0456  0.0058  1.0729
  145SAPE   H4X15959   5.664   5.292  10.668 -1.5317 -0.8988  0.8865
  145SAPE   H4Y15960   5.595   5.190  10.783  0.3890 -3.5292 -1.2136
  145SAPE   C3515961   5.771   5.106  10.691 -0.3278 -0.5846 -0.3397
  145SAPE   H5X15962   5.752   5.016  10.754  0.0709 -1.3821 -1.3462
  145SAPE   H5Y15963   5.878   5.134  10.680 -1.1831  2.4341 -2.3949
  145SAPE   C3615964   5.716   5.071  10.558 -0.7951  0.3235  0.3871
  145SAPE   H6X15965   5.606   5.081  10.548 -1.0089  0.1448  2.1786
  145SAPE   H6Y15966   5.744   4.964  10.545 -1.9365  0.0678 -0.0816
  145SAPE   C3715967   5.794   5.154  10.447  0.6033 -0.1565  0.2210
  145SAPE   H7X15968   5.899   5.158  10.484  0.8142  0.4354 -0.4360
  145SAPE   H7Y15969   5.765   5.261  10.451  2.2151  0.2933  0.8262
  145SAPE   C3815970   5.787   5.084  10.313 -0.2216 -0.0858  0.1218
  145SAPE   H8X15971   5.833   4.983  10.315 -0.3332 -0.1784 -1.1182
  145SAPE   H8Y15972   5.855   5.143  10.247  1.9257 -1.0604  1.3791
  145SAPE   C3915973   5.651   5.071  10.239  0.2464  0.2916 -0.3560
  145SAPE   H9X15974   5.580   5.048  10.321  2.0715  1.5451  1.6816
  145SAPE   H9Y15975   5.656   4.995  10.158  0.5100  1.1444 -1.1567
  145SAPE  C31015976   5.612   5.208  10.183  0.3658 -0.5151  0.1333
  145SAPE  H10X15977   5.659   5.215  10.083 -2.0697  1.1724 -0.9917
  145SAPE  H10Y15978   5.640   5.295  10.247 -0.1044 -0.0018 -0.3552
  145SAPE  C31115979   5.463   5.215  10.148 -0.7368  0.3471  0.5004
  145SAPE  H11X15980   5.433   5.132  10.081  1.4805  0.4049 -0.6737
  145SAPE  H11Y15981   5.429   5.306  10.094  0.0446 -0.7071 -1.9066
  145SAPE  C31215982   5.378   5.217  10.272  0.5550  0.2806  0.1694
  145SAPE  H12X15983   5.408   5.301  10.338 -0.9674 -0.9980  2.6557
  145SAPE  H12Y15984   5.391   5.132  10.341  2.8845  1.0981  0.8151
  145SAPE  C31315985   5.236   5.213  10.240  0.7177  0.1427 -0.7273
  145SAPE  H13X15986   5.213   5.123  10.179 -0.1201 -0.9989  1.2132
  145SAPE  H13Y15987   5.206   5.308  10.190 -0.3534  0.5323  0.5906
  145SAPE  C31415988   5.155   5.198  10.367 -0.3295 -0.2017 -0.6700
  145SAPE  H14X15989   5.183   5.107  10.424 -1.5464 -0.2536 -0.1149
  145SAPE  H14Y15990   5.049   5.184  10.337 -0.8283  0.7063  0.5543
  145SAPE  C31515991   5.179   5.325  10.455  0.4893  0.1061  0.3814
  145SAPE  H15X15992   5.149   5.416  10.400 -1.2410 -1.7679 -1.9648
  145SAPE  H15Y15993   5.286   5.337  10.484  0.7060 -0.0511 -0.3292
  145SAPE  C31615994   5.099   5.319  10.587 -0.8474 -0.3771  0.7049
  145SAPE  H16X15995   5.121   5.225  10.642  2.4460 -0.6421 -0.8343
  145SAPE  H16Y15996   4.990   5.317  10.566 -0.4714  1.7033 -2.0905
  145SAPE  C31715997   5.138   5.422  10.685  0.2955  0.3792  0.0200
  145SAPE  H17X15998   5.158   5.521  10.637  1.1007  0.3740  0.3329
  145SAPE  H17Y15999   5.241   5.388  10.707  0.7483  0.1228 -2.1787
  145SAPE  C31816000   5.038   5.425  10.810 -0.1713 -0.6942 -0.0018
  145SAPE  H18X16001   4.940   5.474  10.790 -1.7230 -2.2662  3.0930
  145SAPE  H18Y16002   5.087   5.480  10.894 -1.1219  0.8942 -0.4311
  145SAPE  H18Z16003   5.023   5.321  10.846  0.9636 -0.9054 -0.1000
  146SAPE     N16004   3.330   4.409  11.026 -0.3209  0.2111  0.2919
  146SAPE   HN116005   3.334   4.491  11.090  0.9058 -0.1786  0.7486
  146SAPE   HN216006   3.259   4.346  11.068  1.1937 -0.7059  1.5871
  146SAPE   HN316007   3.421   4.360  11.037 -0.3769  0.3213  1.4231
  146SAPE   C1216008   3.321   4.454  10.886  0.5797  0.4566 -0.4922
  146SAPE  H12A16009   3.423   4.458  10.843  0.0495 -1.7785 -2.1740
  146SAPE  H12B16010   3.270   4.553  10.882  0.1241  0.2696  0.3948
  146SAPE   C1116011   3.238   4.356  10.802  0.0157  0.0201 -0.4076
  146SAPE  H11A16012   3.302   4.268  10.776  1.8031  1.4098 -0.9457
  146SAPE  H11B16013   3.199   4.411  10.714 -2.4096 -0.0819  0.5310
  146SAPE     P16014   3.031   4.208  10.813 -0.4290  0.4030 -0.0047
  146SAPE   O1316015   3.106   4.079  10.785  0.1684  0.1193 -0.8360
  146SAPE   O1416016   2.910   4.200  10.904 -0.3822 -0.4448 -0.0608
  146SAPE   O1216017   3.127   4.312  10.877  0.1054  0.2253 -0.4468
  146SAPE   O1116018   2.997   4.280  10.676 -0.2308  0.1256  0.3695
  146SAPE    C116019   2.872   4.241  10.607  0.1887 -0.3987  1.0252
  146SAPE    HA16020   2.778   4.257  10.663 -0.4939  0.4935 -0.3159
  146SAPE    HB16021   2.871   4.299  10.512  0.4902 -3.0342 -0.6892
  146SAPE    C216022   2.868   4.093  10.551  0.5052  0.4809 -0.4650
  146SAPE    HS16023   2.885   4.024  10.637 -1.5312 -0.7226 -0.9634
  146SAPE   O2116024   2.976   4.072  10.459  0.0829 -1.0691  0.1610
  146SAPE   C2116025   3.010   3.943  10.429 -0.1826 -0.5151  0.4618
  146SAPE   O2216026   2.953   3.850  10.480 -0.4485  0.2721  0.3270
  146SAPE   C2216027   3.117   3.928  10.326 -0.3530  0.4822  0.0467
  146SAPE   H2R16028   3.052   3.940  10.236 -1.3747  3.1082  1.0603
  146SAPE   H2S16029   3.174   4.023  10.339 -2.1509  1.3807  1.9417
  146SAPE    C316030   2.735   4.061  10.485 -0.3968  0.3859 -0.5755
  146SAPE    HX16031   2.647   4.092  10.545  0.3123  0.8583  0.2374
  146SAPE    HY16032   2.727   3.950  10.473 -0.5888  0.5802 -2.7676
  146SAPE   O3116033   2.732   4.111  10.347 -0.0989  0.1583 -0.1835
  146SAPE   C3116034   2.683   4.224  10.325  0.1888 -0.2793 -0.3119
  146SAPE   O3216035   2.628   4.298  10.405 -0.2375 -0.3132  0.2698
  146SAPE   C3216036   2.714   4.267  10.179  0.0498 -0.1677 -0.1992
  146SAPE   H2X16037   2.722   4.177  10.114  1.0841  0.0563 -0.3859
  146SAPE   H2Y16038   2.819   4.301  10.180  0.5062 -1.4855 -0.7598
  146SAPE   C2316039   3.216   3.805  10.329 -0.1784 -1.0421 -0.5984
  146SAPE   H3R16040   3.169   3.709  10.298 -1.1852 -1.1317  1.1027
  146SAPE   H3S16041   3.262   3.782  10.428  0.3726  2.1224 -0.0242
  146SAPE   C2416042   3.341   3.827  10.247 -0.2194 -0.1077  0.3222
  146SAPE   H4R16043   3.413   3.749  10.280 -0.4394 -1.0386 -1.2759
  146SAPE   H4S16044   3.382   3.922  10.287 -2.0279 -0.0095  2.1298
  146SAPE   C2516045   3.307   3.814  10.098 -0.1440  0.3382 -0.3681
  146SAPE   H5R16046   3.210   3.768  10.072 -0.3565  0.4548  0.1867
  146SAPE   C2616047   3.403   3.842   9.998  0.2196 -0.3993 -0.2632
  146SAPE   H6R16048   3.372   3.848   9.892  0.7418  3.4166 -0.3368
  146SAPE   C2716049   3.540   3.912  10.024  0.2623  1.0432 -0.2429
  146SAPE   H7R16050   3.549   3.956  10.125  2.6627 -2.1204  1.0908
  146SAPE   H7S16051   3.557   3.989   9.946 -0.2211  0.7179 -0.6793
  146SAPE   C2816052   3.633   3.795  10.020 -0.2882 -0.0958 -0.1861
  146SAPE   H8R16053   3.641   3.739  10.115  0.8633  1.0449  0.4227
  146SAPE   C2916054   3.714   3.750   9.923 -0.4082 -0.9813 -0.0864
  146SAPE   H9R16055   3.778   3.663   9.941  0.5495 -0.0132  1.4536
  146SAPE  C21016056   3.732   3.807   9.791  0.3318  0.0696 -0.8432
  146SAPE  H10R16057   3.630   3.829   9.752 -0.8059 -1.4657  1.0156
  146SAPE  H10S16058   3.752   3.719   9.726 -2.8441 -0.6854 -0.9806
  146SAPE  C21116059   3.828   3.918   9.769  0.5645 -0.5630  0.1025
  146SAPE  H11R16060   3.910   3.928   9.842  1.4193 -0.8316 -0.7969
  146SAPE  C21216061   3.826   3.991   9.661  0.6492 -0.3019 -0.0218
  146SAPE  H12R16062   3.902   4.069   9.642 -1.3174  1.8736  0.5765
  146SAPE  C21316063   3.737   3.990   9.536 -0.2599 -0.2215  0.1982
  146SAPE  H13R16064   3.633   3.963   9.565 -0.3935  0.2563  0.1617
  146SAPE  H13S16065   3.773   3.904   9.475 -0.8517 -0.0725 -0.3751
  146SAPE  C21416066   3.733   4.122   9.458  0.1570  0.0181 -0.5149
  146SAPE  H14R16067   3.676   4.198   9.514 -0.2145 -2.5814  2.9947
  146SAPE  C21516068   3.802   4.158   9.352 -0.6296  0.0699  0.8751
  146SAPE  H15R16069   3.774   4.251   9.300  1.6712 -0.4403 -1.5017
  146SAPE  C21616070   3.909   4.097   9.263 -0.5014  0.4264 -0.0984
  146SAPE  H16R16071   3.951   4.004   9.308 -1.6043  0.0950  0.2885
  146SAPE  H16S16072   3.989   4.170   9.238  0.1333  1.3666  3.9608
  146SAPE  C21716073   3.845   4.054   9.132 -0.0779 -0.2288  1.0905
  146SAPE  H17R16074   3.764   3.981   9.155 -0.4616 -0.1459  0.0250
  146SAPE  H17S16075   3.924   3.994   9.081  0.0148 -0.4130  1.4424
  146SAPE  C21816076   3.788   4.162   9.041  0.2770  0.2510 -0.4018
  146SAPE  H18R16077   3.866   4.237   9.020  0.8456 -0.4632 -0.8821
  146SAPE  H18S16078   3.704   4.216   9.090 -0.3013 -0.6580 -0.3546
  146SAPE  C21916079   3.749   4.110   8.902  0.1325 -0.2458 -0.1817
  146SAPE  H19R16080   3.660   4.044   8.919 -0.7287  0.8312 -0.3775
  146SAPE  H19S16081   3.828   4.039   8.870  1.4730  1.3166 -0.4477
  146SAPE  C22016082   3.724   4.208   8.794  0.3743 -0.3277  0.0032
  146SAPE  H20R16083   3.820   4.244   8.752  0.6583 -1.9595 -0.8330
  146SAPE  H20S16084   3.651   4.286   8.824  2.6887  2.8558 -1.9915
  146SAPE  H20T16085   3.683   4.163   8.701  1.1910 -2.2228  0.5097
  146SAPE   C3316086   2.624   4.379  10.122 -0.1753 -0.2299  0.3713
  146SAPE   H3X16087   2.649   4.468  10.184  0.1401 -0.3750  0.4498
  146SAPE   H3Y16088   2.517   4.352  10.136  0.3883 -1.7705  2.0732
  146SAPE   C3416089   2.656   4.406   9.970 -0.5888 -0.7698 -0.4660
  146SAPE   H4X16090   2.644   4.305   9.924  2.0803 -1.6152  0.5419
  146SAPE   H4Y16091   2.758   4.448   9.963  0.1004 -2.5571 -2.1584
  146SAPE   C3516092   2.557   4.507   9.904 -0.1342  0.1482  0.0161
  146SAPE   H5X16093   2.562   4.603   9.958  2.4074  0.0881  0.0196
  146SAPE   H5Y16094   2.456   4.462   9.912  1.2102 -3.2778 -0.2881
  146SAPE   C3616095   2.592   4.541   9.749  0.4134 -0.5805  0.5467
  146SAPE   H6X16096   2.699   4.573   9.743  0.1147  0.4335  0.4057
  146SAPE   H6Y16097   2.532   4.631   9.723  1.9644 -0.2800 -2.4464
  146SAPE   C3716098   2.563   4.426   9.659  0.8232 -0.8997  0.1919
  146SAPE   H7X16099   2.483   4.360   9.700 -1.1890  0.0769 -1.9439
  146SAPE   H7Y16100   2.649   4.358   9.639  0.8037 -0.1020 -3.0935
  146SAPE   C3816101   2.506   4.476   9.526  0.6509  0.2919  0.1017
  146SAPE   H8X16102   2.439   4.562   9.546  2.1074  1.4740  0.0660
  146SAPE   H8Y16103   2.438   4.400   9.480  3.5636 -1.3311 -1.8377
  146SAPE   C3916104   2.619   4.515   9.426  0.6927  0.0363  0.3150
  146SAPE   H9X16105   2.687   4.428   9.425 -1.6023 -1.8823 -1.4224
  146SAPE   H9Y16106   2.664   4.603   9.476  0.1438 -0.1628  1.1901
  146SAPE  C31016107   2.579   4.542   9.283  1.1139 -0.3364  0.5369
  146SAPE  H10X16108   2.659   4.595   9.229  0.2968  0.6595  0.2812
  146SAPE  H10Y16109   2.498   4.618   9.279 -0.6344 -2.0647  1.0648
  146SAPE  C31116110   2.522   4.422   9.212 -0.4247  0.0090 -0.6345
  146SAPE  H11X16111   2.430   4.390   9.265  0.1615 -1.4152 -0.4285
  146SAPE  H11Y16112   2.595   4.340   9.234  1.2820  2.1804  2.6693
  146SAPE  C31216113   2.494   4.445   9.072 -0.1319 -0.4183 -0.0882
  146SAPE  H12X16114   2.425   4.532   9.067  2.1059  1.4286 -0.3116
  146SAPE  H12Y16115   2.434   4.366   9.022 -1.0751 -0.1592  0.6067
  146SAPE  C31316116   2.623   4.461   8.984 -0.2967  0.4003  0.8077
  146SAPE  H13X16117   2.676   4.363   8.987 -1.5922 -0.6659 -3.4670
  146SAPE  H13Y16118   2.693   4.537   9.024  1.2462 -1.2908  1.4484
  146SAPE  C31416119   2.596   4.485   8.829 -0.1629 -0.4876 -0.2180
  146SAPE  H14X16120   2.522   4.404   8.810 -1.5928 -0.6061  4.4622
  146SAPE  H14Y16121   2.683   4.463   8.764 -0.1113 -3.2702  0.6277
  146SAPE  C31516122   2.523   4.617   8.795 -0.1465  0.6263 -0.2158
  146SAPE  H15X16123   2.581   4.710   8.812 -1.2880  2.0496 -3.2973
  146SAPE  H15Y16124   2.432   4.620   8.859 -0.2345 -3.2240  0.0710
  146SAPE  C31616125   2.467   4.624   8.651 -0.1161  0.2228  0.1855
  146SAPE  H16X16126   2.396   4.708   8.634  1.1625  1.2943 -0.0022
  146SAPE  H16Y16127   2.414   4.527   8.636 -0.1066  0.1500  0.5885
  146SAPE  C31716128   2.581   4.619   8.543 -0.2949 -0.1641 -0.3509
  146SAPE  H17X16129   2.545   4.607   8.439 -1.0059 -0.1525 -0.1125
  146SAPE  H17Y16130   2.640   4.527   8.563  0.2678 -0.0907 -1.6188
  146SAPE  C31816131   2.666   4.747   8.542  0.1172  0.1210 -0.2413
  146SAPE  H18X16132   2.752   4.743   8.471 -1.1288  0.7122 -1.8530
  146SAPE  H18Y16133   2.702   4.757   8.646 -0.8310  0.7535  0.0334
  146SAPE  H18Z16134   2.601   4.832   8.511 -0.5312 -0.9143 -1.9143
  147SAPE     N16135   5.897   2.878   6.226  0.3475 -0.7844 -0.6272
  147SAPE   HN116136   5.979   2.939   6.208 -0.7671  0.6632 -1.0017
  147SAPE   HN216137   5.927   2.780   6.210 -0.1977 -1.4919  2.1191
  147SAPE   HN316138   5.819   2.901   6.161 -0.6684 -3.1952 -0.3779
  147SAPE   C1216139   5.849   2.893   6.364  0.0887  0.5023 -1.1472
  147SAPE  H12A16140   5.848   3.002   6.387  1.7657  1.0310 -3.3455
  147SAPE  H12B16141   5.913   2.840   6.437 -0.9510 -1.3174 -1.5162
  147SAPE   C1116142   5.706   2.838   6.380 -0.5565 -0.1813  1.0178
  147SAPE  H11A16143   5.637   2.893   6.311  0.7641  3.8720  2.6620
  147SAPE  H11B16144   5.662   2.860   6.479 -1.1620 -2.1232  1.2281
  147SAPE     P16145   5.599   2.602   6.300  0.2222 -0.0144  0.2303
  147SAPE   O1316146   5.571   2.653   6.162 -0.1646  0.1627 -0.2643
  147SAPE   O1416147   5.638   2.458   6.311  0.5501  0.0983 -0.0846
  147SAPE   O1216148   5.712   2.693   6.364 -0.9664 -0.6514  0.2268
  147SAPE   O1116149   5.470   2.633   6.383  0.2540 -0.2143  0.0990
  147SAPE    C116150   5.492   2.634   6.526  0.2747 -0.6061 -0.4617
  147SAPE    HA16151   5.476   2.533   6.569 -1.3356 -1.3669 -2.6841
  147SAPE    HB16152   5.583   2.685   6.565 -0.7255 -0.3404  1.7176
  147SAPE    C216153   5.378   2.711   6.595 -0.2214  0.1449  0.7114
  147SAPE    HS16154   5.378   2.813   6.550  0.3563 -0.7478 -1.4397
  147SAPE   O2116155   5.398   2.699   6.733 -0.3129  0.7376  0.6323
  147SAPE   C2116156   5.485   2.784   6.779  0.4042 -0.8796 -0.5208
  147SAPE   O2216157   5.563   2.857   6.721 -0.4812  0.0249 -0.3396
  147SAPE   C2216158   5.488   2.758   6.938 -0.1664 -0.2575  0.1532
  147SAPE   H2R16159   5.384   2.750   6.977 -0.1218 -0.5948  0.2075
  147SAPE   H2S16160   5.545   2.665   6.959  0.0155 -0.2943 -0.4843
  147SAPE    C316161   5.240   2.646   6.554 -1.0101  0.1447 -0.0112
  147SAPE    HX16162   5.254   2.537   6.540  2.1477  0.4568 -0.0547
  147SAPE    HY16163   5.216   2.682   6.451 -0.7307 -0.6419 -0.3609
  147SAPE   O3116164   5.133   2.680   6.636  0.1251 -0.1576 -0.7670
  147SAPE   C3116165   5.113   2.602   6.744  0.3396 -0.4870  0.3894
  147SAPE   O3216166   5.190   2.516   6.779  0.4544 -0.0434  0.1352
  147SAPE   C3216167   4.966   2.625   6.801 -0.2119 -0.2271 -0.4207
  147SAPE   H2X16168   4.898   2.644   6.715  0.5693 -3.1107 -1.7775
  147SAPE   H2Y16169   4.959   2.705   6.877 -1.6506  0.0814 -0.8514
  147SAPE   C2316170   5.563   2.870   7.017 -1.4433 -0.1378 -0.1169
  147SAPE   H3R16171   5.506   2.964   7.003  0.6968  0.8219 -3.3719
  147SAPE   H3S16172   5.663   2.885   6.971 -1.1001  0.2661  0.7325
  147SAPE   C2416173   5.557   2.828   7.170  0.4737 -0.1643 -0.3267
  147SAPE   H4R16174   5.633   2.750   7.191  0.8914  0.6217  1.2751
  147SAPE   H4S16175   5.455   2.787   7.184  0.2792  0.7346  1.1427
  147SAPE   C2516176   5.601   2.934   7.261 -1.0797 -0.1668 -0.2080
  147SAPE   H5R16177   5.677   3.002   7.221 -0.2301 -0.6592  0.5355
  147SAPE   C2616178   5.546   2.965   7.380 -0.3056 -0.3682 -0.0271
  147SAPE   H6R16179   5.587   3.045   7.444 -2.4186 -0.6596  1.8100
  147SAPE   C2716180   5.435   2.883   7.433  0.1840  0.6479  0.0118
  147SAPE   H7R16181   5.461   2.775   7.422 -0.4335  0.4926  0.0162
  147SAPE   H7S16182   5.350   2.892   7.361 -0.6828 -0.2988  0.8769
  147SAPE   C2816183   5.373   2.923   7.570 -0.9733  0.3283  0.6021
  147SAPE   H8R16184   5.296   3.001   7.569  0.1016  1.4322 -0.5889
  147SAPE   C2916185   5.421   2.890   7.689  0.0726 -0.9016  0.1186
  147SAPE   H9R16186   5.352   2.926   7.767  0.5742  0.4094 -0.0200
  147SAPE  C21016187   5.544   2.810   7.726  0.2614  0.0492 -0.1299
  147SAPE  H10R16188   5.625   2.819   7.650 -0.0938  0.9080 -0.4183
  147SAPE  H10S16189   5.513   2.704   7.715 -0.5442  0.1798  0.7491
  147SAPE  C21116190   5.589   2.836   7.863 -0.9561  0.1312  0.2023
  147SAPE  H11R16191   5.691   2.880   7.862 -1.2835  0.9098 -1.0478
  147SAPE  C21216192   5.529   2.810   7.980 -0.2348 -0.1087  0.4837
  147SAPE  H12R16193   5.588   2.823   8.072  2.3991 -1.5441 -0.8791
  147SAPE  C21316194   5.392   2.751   7.996 -0.0833  0.6057 -0.5503
  147SAPE  H13R16195   5.384   2.668   8.070 -1.4756  1.7559  0.6479
  147SAPE  H13S16196   5.342   2.710   7.905  2.4423 -1.1524 -1.2635
  147SAPE  C21416197   5.296   2.851   8.061 -0.8283  0.6163 -0.5285
  147SAPE  H14R16198   5.230   2.896   7.986  0.0558  0.2353 -1.5708
  147SAPE  C21516199   5.293   2.893   8.187 -0.1769 -1.0587 -0.1941
  147SAPE  H15R16200   5.215   2.965   8.217  1.8540  0.7343  1.0771
  147SAPE  C21616201   5.389   2.849   8.300  0.2609  0.3435 -0.2944
  147SAPE  H16R16202   5.473   2.783   8.271  1.3404  1.2840  0.5956
  147SAPE  H16S16203   5.329   2.781   8.364  0.4029  0.6804  0.1971
  147SAPE  C21716204   5.440   2.970   8.375  0.7441 -0.1873  0.6115
  147SAPE  H17R16205   5.355   3.039   8.392 -0.3786 -1.7736  1.8211
  147SAPE  H17S16206   5.513   3.025   8.312 -0.1192 -0.2056 -0.4309
  147SAPE  C21816207   5.512   2.926   8.501  0.3806  0.6466  0.1417
  147SAPE  H18R16208   5.610   2.881   8.473 -1.2000 -0.9627 -3.3781
  147SAPE  H18S16209   5.447   2.853   8.553  1.1978  0.1203  0.4448
  147SAPE  C21916210   5.534   3.034   8.602  0.0965 -0.1170  0.1264
  147SAPE  H19R16211   5.564   2.986   8.697 -1.3535 -0.0847  0.6186
  147SAPE  H19S16212   5.438   3.089   8.611 -0.3790 -0.6999 -1.1435
  147SAPE  C22016213   5.655   3.122   8.551 -0.0287 -0.4354  0.5355
  147SAPE  H20R16214   5.693   3.183   8.636 -0.0926  0.0327  0.2282
  147SAPE  H20S16215   5.615   3.189   8.473 -1.4689 -1.4343  0.3698
  147SAPE  H20T16216   5.741   3.055   8.529  1.8040  1.7503  0.6894
  147SAPE   C3316217   4.908   2.495   6.863 -0.1040 -0.4542 -0.4352
  147SAPE   H3X16218   4.958   2.457   6.955 -0.4065  1.1542  0.4309
  147SAPE   H3Y16219   4.931   2.418   6.786  2.3417 -0.2235 -0.0226
  147SAPE   C3416220   4.756   2.508   6.878  1.0338 -0.3888  0.4225
  147SAPE   H4X16221   4.718   2.550   6.782  0.9235 -1.5920 -0.0814
  147SAPE   H4Y16222   4.738   2.581   6.959 -1.9534  0.1851 -0.6109
  147SAPE   C3516223   4.692   2.368   6.906  0.2692  0.5078  0.7171
  147SAPE   H5X16224   4.747   2.326   6.993 -0.0047  0.0502  0.6708
  147SAPE   H5Y16225   4.729   2.302   6.824 -1.1313  1.7702 -1.0012
  147SAPE   C3616226   4.542   2.364   6.923  0.5473  0.3007 -0.1554
  147SAPE   H6X16227   4.518   2.256   6.928 -0.1909  0.4965  1.3650
  147SAPE   H6Y16228   4.494   2.412   6.836  0.8139  2.3688  0.7796
  147SAPE   C3716229   4.492   2.451   7.040  0.9650 -0.0154  0.3914
  147SAPE   H7X16230   4.385   2.429   7.063  1.2678  0.4731  2.5184
  147SAPE   H7Y16231   4.503   2.559   7.016 -2.1158 -0.1529 -2.4367
  147SAPE   C3816232   4.563   2.409   7.173  0.2777 -0.7425 -0.1740
  147SAPE   H8X16233   4.669   2.442   7.177 -0.6071  2.4439  0.1336
  147SAPE   H8Y16234   4.555   2.300   7.187 -0.9752 -0.7806 -1.0379
  147SAPE   C3916235   4.487   2.470   7.297  0.1705 -0.8325 -0.2183
  147SAPE   H9X16236   4.385   2.429   7.282  0.8359 -2.3770 -0.7935
  147SAPE   H9Y16237   4.485   2.580   7.285  0.6327 -0.3359  3.3394
  147SAPE  C31016238   4.563   2.430   7.419 -0.2989  0.2148 -0.2429
  147SAPE  H10X16239   4.666   2.474   7.414 -0.8664  1.8783  1.3352
  147SAPE  H10Y16240   4.574   2.320   7.418  1.0258  0.3208 -1.4043
  147SAPE  C31116241   4.482   2.478   7.541  1.1053 -0.6185  0.2250
  147SAPE  H11X16242   4.381   2.435   7.526 -0.5814  2.4671  1.8273
  147SAPE  H11Y16243   4.464   2.588   7.544  0.4271 -0.7427  1.3636
  147SAPE  C31216244   4.534   2.441   7.683 -0.5817 -0.6048  1.2268
  147SAPE  H12X16245   4.573   2.338   7.667  2.2680  0.4951  0.5170
  147SAPE  H12Y16246   4.449   2.453   7.754 -2.1067 -1.2030 -0.4012
  147SAPE  C31316247   4.650   2.523   7.723 -0.7611 -0.2242  0.6109
  147SAPE  H13X16248   4.638   2.632   7.704 -1.1336 -0.4464 -0.5144
  147SAPE  H13Y16249   4.736   2.487   7.663 -1.6456 -1.5349  0.0788
  147SAPE  C31416250   4.681   2.509   7.865 -0.0684  0.2603 -0.6558
  147SAPE  H14X16251   4.593   2.508   7.932  0.4866 -2.7857  0.1567
  147SAPE  H14Y16252   4.735   2.603   7.892 -0.4110 -0.1689  1.7192
  147SAPE  C31516253   4.770   2.387   7.898 -1.1936 -0.1340 -0.5412
  147SAPE  H15X16254   4.866   2.408   7.950 -0.1002 -2.0173 -1.6909
  147SAPE  H15Y16255   4.795   2.324   7.810 -0.1154  0.0874 -0.4032
  147SAPE  C31616256   4.698   2.296   8.002 -0.2842 -0.5479  0.1372
  147SAPE  H16X16257   4.646   2.356   8.079 -0.5973  0.5653 -0.9222
  147SAPE  H16Y16258   4.762   2.217   8.047 -1.7067 -1.6535  0.3191
  147SAPE  C31716259   4.579   2.221   7.941 -0.2712  0.3179  0.2241
  147SAPE  H17X16260   4.617   2.177   7.847 -0.5394  0.3353  0.1078
  147SAPE  H17Y16261   4.493   2.286   7.915 -0.4195  0.3532  0.7800
  147SAPE  C31816262   4.527   2.109   8.031  0.7646  0.4685 -1.2077
  147SAPE  H18X16263   4.438   2.071   7.976 -0.1780  0.3509  0.3340
  147SAPE  H18Y16264   4.497   2.154   8.128  0.8680 -2.4927  0.3184
  147SAPE  H18Z16265   4.607   2.033   8.044  0.3488  0.1355 -0.5437
  148SAPE     N16266   4.989   0.337   6.456  0.6597 -0.2441  0.0888
  148SAPE   HN116267   5.047   0.421   6.435  2.0743 -1.3022 -0.4170
  148SAPE   HN216268   5.045   0.249   6.461  1.7294  0.4726  2.6170
  148SAPE   HN316269   4.921   0.325   6.379  1.8211 -0.1356 -0.9889
  148SAPE   C1216270   4.912   0.359   6.586  0.0312  0.4838  0.6603
  148SAPE  H12A16271   4.986   0.384   6.666 -1.2683  1.1831  1.6830
  148SAPE  H12B16272   4.867   0.258   6.594  2.9684 -0.8795  1.1790
  148SAPE   C1116273   4.819   0.485   6.578  0.1844  0.2536  0.5238
  148SAPE  H11A16274   4.778   0.491   6.681 -3.1011  1.0859 -0.6966
  148SAPE  H11B16275   4.741   0.468   6.500 -0.2871  2.8211  0.3483
  148SAPE     P16276   4.810   0.737   6.515  0.3424  0.4630  0.1375
  148SAPE   O1316277   4.908   0.847   6.485 -0.2989 -0.4493 -0.3375
  148SAPE   O1416278   4.715   0.703   6.412  0.4997  0.2150  0.3029
  148SAPE   O1216279   4.893   0.603   6.548  0.5343  0.3328 -0.4917
  148SAPE   O1116280   4.750   0.757   6.654 -0.2161  0.2592 -0.3071
  148SAPE    C116281   4.803   0.819   6.766  0.3584 -0.3805  0.0237
  148SAPE    HA16282   4.911   0.845   6.762  0.4681 -0.7044  0.6313
  148SAPE    HB16283   4.754   0.916   6.785 -1.8467 -0.6829 -3.3332
  148SAPE    C216284   4.778   0.735   6.894 -1.2740  0.0565 -0.2198
  148SAPE    HS16285   4.838   0.644   6.875  1.1661  1.6994 -0.8507
  148SAPE   O2116286   4.640   0.716   6.901 -0.6074  0.0805  0.1658
  148SAPE   C2116287   4.596   0.599   6.927 -0.5131 -0.3467  0.5466
  148SAPE   O2216288   4.655   0.502   6.969  0.2519 -0.0855  0.1805
  148SAPE   C2216289   4.448   0.605   6.903  0.8385 -0.0546 -0.1576
  148SAPE   H2R16290   4.423   0.712   6.887  0.5762 -0.1693 -0.5299
  148SAPE   H2S16291   4.444   0.562   6.801  2.2336  1.1698 -0.7629
  148SAPE    C316292   4.834   0.805   7.015 -0.1171 -0.3824 -0.1968
  148SAPE    HX16293   4.790   0.906   7.019  0.1746 -0.1450 -2.0875
  148SAPE    HY16294   4.945   0.814   7.009 -0.1848  1.7501  0.9790
  148SAPE   O3116295   4.802   0.730   7.139 -0.6354  0.0441  0.1408
  148SAPE   C3116296   4.856   0.612   7.158  0.0629 -0.5848  0.4046
  148SAPE   O3216297   4.933   0.561   7.078  0.1410 -0.1820 -0.3269
  148SAPE   C3216298   4.816   0.557   7.297 -0.4252 -0.5521  0.2980
  148SAPE   H2X16299   4.808   0.647   7.362 -0.7581 -1.3375  1.3801
  148SAPE   H2Y16300   4.903   0.501   7.337  1.2484  1.7109  0.0084
  148SAPE   C2316301   4.361   0.533   7.009 -0.5140 -0.9069 -0.0670
  148SAPE   H3R16302   4.388   0.561   7.113 -0.0846  0.1396 -0.4512
  148SAPE   H3S16303   4.380   0.425   6.991  2.3165 -0.2334 -1.8025
  148SAPE   C2416304   4.215   0.567   7.010 -0.1943 -0.0856 -1.1191
  148SAPE   H4R16305   4.170   0.509   7.093  0.0277  1.3360  0.0235
  148SAPE   H4S16306   4.173   0.541   6.910  0.6471 -1.7421 -1.0741
  148SAPE   C2516307   4.165   0.708   7.031 -0.3694  0.0968 -0.2558
  148SAPE   H5R16308   4.162   0.762   6.935  1.5520 -1.1344 -1.0865
  148SAPE   C2616309   4.142   0.779   7.141  0.2519  0.1835 -0.6475
  148SAPE   H6R16310   4.104   0.881   7.130 -1.3771 -0.2132  0.8148
  148SAPE   C2716311   4.158   0.725   7.283 -0.3663 -0.0531  0.4083
  148SAPE   H7R16312   4.219   0.633   7.295  0.9753  0.6772 -0.5703
  148SAPE   H7S16313   4.056   0.694   7.315 -1.5517  0.7855 -2.2331
  148SAPE   C2816314   4.222   0.828   7.375 -0.4988  0.5484 -0.4022
  148SAPE   H8R16315   4.309   0.879   7.332 -0.9918  0.6188 -1.3629
  148SAPE   C2916316   4.199   0.847   7.507 -0.2085 -0.0394 -0.1694
  148SAPE   H9R16317   4.239   0.940   7.548 -3.1741  1.3327 -0.1613
  148SAPE  C21016318   4.103   0.782   7.606  0.1432 -0.3779 -0.0405
  148SAPE  H10R16319   4.011   0.755   7.549  0.6319 -4.9582  1.0066
  148SAPE  H10S16320   4.064   0.861   7.673 -1.0093  0.2859 -1.4438
  148SAPE  C21116321   4.172   0.674   7.679  0.0237 -0.1541 -0.4687
  148SAPE  H11R16322   4.275   0.648   7.652  0.5026 -0.2577  1.2901
  148SAPE  C21216323   4.126   0.631   7.799  0.6864 -0.1290 -0.1446
  148SAPE  H12R16324   4.188   0.559   7.855  2.9881  1.1113 -0.9496
  148SAPE  C21316325   3.999   0.662   7.872 -0.2267 -0.2868  0.3886
  148SAPE  H13R16326   4.020   0.765   7.909  1.5082 -0.3403 -0.3340
  148SAPE  H13S16327   3.999   0.594   7.960 -0.0141 -1.5446 -0.5550
  148SAPE  C21416328   3.868   0.656   7.803  0.2700 -0.1543  0.2934
  148SAPE  H14R16329   3.871   0.621   7.699 -0.2006 -0.0694  0.2495
  148SAPE  C21516330   3.748   0.683   7.856  0.2115 -0.0815  0.1405
  148SAPE  H15R16331   3.657   0.664   7.797 -0.4839  1.5503  0.6224
  148SAPE  C21616332   3.725   0.729   8.000 -0.0305 -0.4620  0.0020
  148SAPE  H16R16333   3.647   0.808   8.007 -0.7642 -0.9278 -2.2258
  148SAPE  H16S16334   3.820   0.770   8.041  1.5304 -1.1464 -2.6848
  148SAPE  C21716335   3.684   0.627   8.102 -0.1353  0.0756 -0.1712
  148SAPE  H17R16336   3.688   0.675   8.202  1.5280 -0.6660  0.1444
  148SAPE  H17S16337   3.750   0.538   8.105 -1.4177 -1.0648 -2.9527
  148SAPE  C21816338   3.544   0.581   8.079  0.1439 -0.1692  0.6930
  148SAPE  H18R16339   3.548   0.521   7.986 -1.4785 -0.8913  1.0410
  148SAPE  H18S16340   3.494   0.675   8.047  0.1740 -0.3924 -0.0314
  148SAPE  C21916341   3.466   0.521   8.199  0.2281 -0.1550 -0.1551
  148SAPE  H19R16342   3.467   0.582   8.292 -1.0141  2.0116 -1.4711
  148SAPE  H19S16343   3.515   0.425   8.223 -2.1407 -1.7097 -1.1956
  148SAPE  C22016344   3.316   0.497   8.172  0.6254 -0.0579 -0.5740
  148SAPE  H20R16345   3.260   0.464   8.261 -1.8482  0.8851 -1.7037
  148SAPE  H20S16346   3.313   0.419   8.093  0.1256  2.2920 -3.0515
  148SAPE  H20T16347   3.270   0.592   8.136  1.4213 -0.2363 -2.1766
  148SAPE   C3316348   4.694   0.453   7.297 -0.7376  0.4858 -0.1184
  148SAPE   H3X16349   4.733   0.363   7.244 -0.8195 -0.5459  1.4853
  148SAPE   H3Y16350   4.615   0.506   7.241 -1.7229 -2.2234 -1.4856
  148SAPE   C3416351   4.656   0.419   7.445 -0.2728  0.1967 -0.2250
  148SAPE   H4X16352   4.755   0.404   7.494 -1.2403  1.4615  2.3190
  148SAPE   H4Y16353   4.593   0.328   7.451 -2.2768  1.6125  2.0228
  148SAPE   C3516354   4.595   0.534   7.528  0.6008 -1.1198  0.6098
  148SAPE   H5X16355   4.493   0.552   7.490  0.7731 -1.4100 -0.0071
  148SAPE   H5Y16356   4.661   0.620   7.504 -1.6335  0.6788  0.5916
  148SAPE   C3616357   4.596   0.520   7.674  0.0529  0.6244 -0.6636
  148SAPE   H6X16358   4.565   0.619   7.713  1.7700  1.3802 -1.0814
  148SAPE   H6Y16359   4.698   0.498   7.713  0.5250  1.3254 -1.4400
  148SAPE   C3716360   4.505   0.397   7.699 -0.4272 -0.0799  0.9966
  148SAPE   H7X16361   4.538   0.306   7.644 -1.6095  1.1700 -1.9818
  148SAPE   H7Y16362   4.401   0.420   7.666  0.1171  0.3286 -0.5517
  148SAPE   C3816363   4.496   0.369   7.848  0.4272  0.7579 -0.1509
  148SAPE   H8X16364   4.468   0.464   7.900  1.5467  1.2233 -0.3747
  148SAPE   H8Y16365   4.598   0.348   7.886 -0.4191 -0.4264  1.6673
  148SAPE   C3916366   4.411   0.249   7.885  0.0039  0.0375  0.0588
  148SAPE   H9X16367   4.482   0.164   7.889 -1.5778 -1.3010  0.7218
  148SAPE   H9Y16368   4.333   0.214   7.815  1.0482  0.5751 -1.4176
  148SAPE  C31016369   4.346   0.263   8.029 -0.1600  0.6149  0.5571
  148SAPE  H10X16370   4.412   0.329   8.090 -0.5790  1.4577  0.1172
  148SAPE  H10Y16371   4.334   0.162   8.073 -0.1827 -0.6069 -2.1085
  148SAPE  C31116372   4.207   0.323   8.027  0.5117 -0.0726  0.2804
  148SAPE  H11X16373   4.138   0.284   7.949  2.6208 -1.9232 -0.7872
  148SAPE  H11Y16374   4.224   0.427   7.992 -2.6673  0.1935 -0.8498
  148SAPE  C31216375   4.142   0.328   8.173 -0.2117 -0.3523  0.0162
  148SAPE  H12X16376   4.207   0.378   8.248  0.1958  0.5387 -0.9049
  148SAPE  H12Y16377   4.131   0.222   8.205 -0.8695 -0.9021 -1.9081
  148SAPE  C31316378   3.991   0.371   8.182  0.0393 -0.1562  0.7782
  148SAPE  H13X16379   3.930   0.292   8.133 -0.3401  0.7529 -0.2577
  148SAPE  H13Y16380   3.976   0.471   8.135  0.7312 -0.1827  0.4931
  148SAPE  C31416381   3.944   0.370   8.330 -0.0161  0.0221  0.0349
  148SAPE  H14X16382   3.981   0.458   8.386  2.9145 -1.3945  0.4932
  148SAPE  H14Y16383   4.004   0.287   8.374  0.0057  0.2984  0.5371
  148SAPE  C31516384   3.795   0.352   8.351 -0.4641 -0.6820 -0.7083
  148SAPE  H15X16385   3.751   0.282   8.277 -1.0749 -1.2308  0.1608
  148SAPE  H15Y16386   3.746   0.450   8.332 -1.5682 -0.7972  1.2340
  148SAPE  C31616387   3.749   0.312   8.491 -0.2358  0.4998 -0.9843
  148SAPE  H16X16388   3.783   0.384   8.569  1.6467 -1.3987  0.0465
  148SAPE  H16Y16389   3.800   0.217   8.519 -1.9909 -0.1118  0.4268
  148SAPE  C31716390   3.594   0.298   8.504  0.0836  0.2038 -0.2209
  148SAPE  H17X16391   3.547   0.234   8.426  1.4814  0.2574 -1.1420
  148SAPE  H17Y16392   3.557   0.402   8.490 -1.6406 -0.4388 -0.6417
  148SAPE  C31816393   3.561   0.246   8.645  0.7763  0.3538  0.4860
  148SAPE  H18X16394   3.606   0.147   8.670 -1.0298 -0.7057 -0.2643
  148SAPE  H18Y16395   3.450   0.244   8.656  0.7315  1.2836  0.2456
  148SAPE  H18Z16396   3.616   0.310   8.717  2.1740  2.3006 -2.1512
  149SAPE     N16397   4.588   0.917   6.266 -0.0441 -0.0424  0.2099
  149SAPE   HN116398   4.661   0.969   6.212  1.2920 -1.6596  0.3729
  149SAPE   HN216399   4.647   0.853   6.323 -0.5744  0.4354  1.3241
  149SAPE   HN316400   4.531   0.864   6.197  0.4307 -0.3939  0.0789
  149SAPE   C1216401   4.490   0.985   6.359  1.0310 -1.0439  0.3721
  149SAPE  H12A16402   4.421   0.900   6.380 -0.6768  0.2604  0.2719
  149SAPE  H12B16403   4.439   1.065   6.301 -0.6958 -1.9590  0.5518
  149SAPE   C1116404   4.573   1.046   6.474  0.2477  0.6397  0.0227
  149SAPE  H11A16405   4.658   0.978   6.498  0.9089  1.1258 -0.8780
  149SAPE  H11B16406   4.507   1.051   6.563 -1.1077 -1.8989 -0.7452
  149SAPE     P16407   4.541   1.304   6.441 -0.2203 -0.2188  0.4183
  149SAPE   O1316408   4.643   1.409   6.404 -0.5446 -0.6469 -0.1516
  149SAPE   O1416409   4.422   1.300   6.357  0.3008  0.0338  0.3974
  149SAPE   O1216410   4.620   1.174   6.442 -0.3644  0.0130  0.3598
  149SAPE   O1116411   4.503   1.324   6.591 -0.0190  0.5044  0.1906
  149SAPE    C116412   4.602   1.310   6.696  0.0372  0.6686  0.7056
  149SAPE    HA16413   4.651   1.211   6.693 -0.8690  0.1875 -2.4198
  149SAPE    HB16414   4.675   1.392   6.677  0.6071 -0.0581 -0.3194
  149SAPE    C216415   4.541   1.354   6.833  0.0827 -0.1236  0.2989
  149SAPE    HS16416   4.623   1.362   6.907 -1.2759 -2.8330  2.2860
  149SAPE   O2116417   4.468   1.243   6.886 -0.2392  0.0109  0.8788
  149SAPE   C2116418   4.534   1.129   6.916 -0.2451 -0.1335  0.4526
  149SAPE   O2216419   4.656   1.118   6.930  0.5895 -0.5244 -0.0364
  149SAPE   C2216420   4.427   1.022   6.955  0.3416  0.3064 -0.2254
  149SAPE   H2R16421   4.326   1.067   6.964  0.5520  0.5374  1.2081
  149SAPE   H2S16422   4.430   0.950   6.870 -0.7849  2.3825 -2.1026
  149SAPE    C316423   4.460   1.479   6.812 -0.3617 -0.1604  0.3427
  149SAPE    HX16424   4.374   1.465   6.743 -0.2335  0.7119 -0.0005
  149SAPE    HY16425   4.521   1.558   6.763 -0.3237  0.6519  1.6481
  149SAPE   O3116426   4.409   1.519   6.943  0.3424 -0.1973 -0.3879
  149SAPE   C3116427   4.286   1.474   6.981  0.2267  0.1547 -0.2176
  149SAPE   O3216428   4.198   1.431   6.907 -0.1996  0.1343  0.7317
  149SAPE   C3216429   4.274   1.508   7.130  0.3413 -0.1957 -0.1893
  149SAPE   H2X16430   4.259   1.617   7.138  1.1226 -0.1846  1.7408
  149SAPE   H2Y16431   4.372   1.490   7.179  0.7575  0.1401 -0.8884
  149SAPE   C2316432   4.480   0.964   7.096  0.1260  0.3919 -0.3209
  149SAPE   H3R16433   4.585   0.930   7.080  0.3425  1.2724 -0.8400
  149SAPE   H3S16434   4.418   0.877   7.126 -0.8007  1.5455  1.2687
  149SAPE   C2416435   4.459   1.064   7.214  0.1884 -0.3797  1.1199
  149SAPE   H4R16436   4.350   1.069   7.235 -0.1947  1.1246 -0.8924
  149SAPE   H4S16437   4.476   1.166   7.172 -1.2767 -1.4333 -2.4163
  149SAPE   C2516438   4.538   1.031   7.338 -0.4343 -0.0085  0.4179
  149SAPE   H5R16439   4.598   0.939   7.330 -0.7351 -0.0825 -1.4524
  149SAPE   C2616440   4.542   1.095   7.452 -0.3457 -0.2568 -0.2030
  149SAPE   H6R16441   4.612   1.060   7.529 -3.2655 -0.2711  2.6601
  149SAPE   C2716442   4.479   1.229   7.493  0.5370  0.9209  0.1435
  149SAPE   H7R16443   4.459   1.294   7.405  0.5530 -0.1052 -0.6324
  149SAPE   H7S16444   4.552   1.292   7.549  1.0441  1.1553 -0.7690
  149SAPE   C2816445   4.350   1.201   7.564 -0.0252  0.4975 -0.3641
  149SAPE   H8R16446   4.261   1.219   7.501  0.2054 -0.1032 -0.8610
  149SAPE   C2916447   4.340   1.157   7.692 -0.4137 -0.0101 -1.2977
  149SAPE   H9R16448   4.240   1.151   7.738 -0.7121  0.4192 -1.8850
  149SAPE  C21016449   4.460   1.146   7.790  0.5320 -0.0175 -0.0747
  149SAPE  H10R16450   4.552   1.193   7.751  1.0304  0.6347  1.7925
  149SAPE  H10S16451   4.480   1.038   7.809  1.9069 -0.0634 -1.5457
  149SAPE  C21116452   4.418   1.214   7.922 -0.5255 -0.2849 -0.0473
  149SAPE  H11R16453   4.402   1.321   7.905  1.0692 -0.4330 -3.0174
  149SAPE  C21216454   4.425   1.155   8.046  0.4900 -0.0453 -0.8155
  149SAPE  H12R16455   4.372   1.192   8.134 -0.0677 -0.8332 -0.7999
  149SAPE  C21316456   4.464   1.009   8.070 -0.6212 -0.5348  0.4677
  149SAPE  H13R16457   4.478   0.992   8.179 -0.3382  1.7745  0.8232
  149SAPE  H13S16458   4.567   0.987   8.035 -0.4789  0.3416  0.3260
  149SAPE  C21416459   4.375   0.903   8.006 -0.1866 -0.8263 -0.1461
  149SAPE  H14R16460   4.271   0.931   7.986 -0.7543 -0.9344  2.3943
  149SAPE  C21516461   4.422   0.774   7.994  0.7552  0.2567 -0.7086
  149SAPE  H15R16462   4.356   0.699   7.948 -0.2799  0.5301  0.2937
  149SAPE  C21616463   4.554   0.717   8.036  0.3426  0.2324  0.2683
  149SAPE  H16R16464   4.603   0.790   8.105 -1.6861  0.4613  1.5469
  149SAPE  H16S16465   4.631   0.714   7.956  0.0625  1.1825 -0.0648
  149SAPE  C21716466   4.530   0.587   8.121 -0.0027 -0.2188  0.8468
  149SAPE  H17R16467   4.463   0.510   8.078  1.6215 -0.7763 -0.8377
  149SAPE  H17S16468   4.484   0.623   8.216 -0.2163 -0.5539  0.8710
  149SAPE  C21816469   4.666   0.517   8.154  0.3959 -0.3153  0.2400
  149SAPE  H18R16470   4.735   0.519   8.067 -0.2279 -0.1194 -0.2646
  149SAPE  H18S16471   4.626   0.417   8.181 -0.2326  0.3051  1.6968
  149SAPE  C21916472   4.743   0.571   8.268 -0.6617 -0.6737 -0.0172
  149SAPE  H19R16473   4.668   0.586   8.348 -0.5060  0.2038 -0.0211
  149SAPE  H19S16474   4.785   0.671   8.244 -2.2687 -0.2728 -1.3702
  149SAPE  C22016475   4.864   0.492   8.327  0.5413 -0.2965 -0.4955
  149SAPE  H20R16476   4.912   0.564   8.395  1.2462  0.9920 -2.2844
  149SAPE  H20S16477   4.936   0.454   8.252  2.6824  0.1690  1.2344
  149SAPE  H20T16478   4.827   0.406   8.387 -1.4565 -0.4686 -1.8544
  149SAPE   C3316479   4.151   1.443   7.199 -0.0676 -0.2439 -0.3355
  149SAPE   H3X16480   4.057   1.481   7.154 -0.0408  1.5689  1.0382
  149SAPE   H3Y16481   4.162   1.491   7.298  0.3783  1.2275 -1.0764
  149SAPE   C3416482   4.147   1.296   7.228  0.7246  0.6772 -0.4356
  149SAPE   H4X16483   4.249   1.273   7.265  1.2256  3.1751 -0.0737
  149SAPE   H4Y16484   4.138   1.237   7.134 -0.4788  1.3006 -0.7324
  149SAPE   C3516485   4.029   1.271   7.326  0.1727 -0.0060  0.1887
  149SAPE   H5X16486   3.939   1.304   7.271 -1.5347 -0.4362  2.5955
  149SAPE   H5Y16487   4.038   1.346   7.409 -0.2740  1.2140 -0.8312
  149SAPE   C3616488   4.015   1.120   7.364  0.2547  0.3621  0.1069
  149SAPE   H6X16489   4.107   1.082   7.412 -0.8736 -1.2119  1.1075
  149SAPE   H6Y16490   3.987   1.060   7.275 -0.3175 -2.4984  2.0763
  149SAPE   C3716491   3.905   1.087   7.467  0.0467 -0.2278  0.4385
  149SAPE   H7X16492   3.906   0.978   7.488 -2.9299 -0.2980  0.6393
  149SAPE   H7Y16493   3.811   1.122   7.421 -0.3966  2.0262  2.8359
  149SAPE   C3816494   3.911   1.154   7.602 -0.9033 -0.0181 -0.9260
  149SAPE   H8X16495   3.875   1.258   7.609 -1.3956 -0.2933  1.3906
  149SAPE   H8Y16496   4.017   1.151   7.635 -1.1650  1.4289  0.1387
  149SAPE   C3916497   3.836   1.063   7.702 -0.2488 -0.5131  0.5981
  149SAPE   H9X16498   3.871   0.958   7.690  2.5091  0.4640 -0.9631
  149SAPE   H9Y16499   3.725   1.064   7.698 -0.3519  0.5495  2.6099
  149SAPE  C31016500   3.850   1.110   7.850  0.4937 -0.1862 -0.2923
  149SAPE  H10X16501   3.794   1.046   7.920  1.1993 -0.8440 -0.3138
  149SAPE  H10Y16502   3.796   1.205   7.867  0.9634  0.2578 -1.1894
  149SAPE  C31116503   4.003   1.127   7.894  0.4562  0.3544 -0.1957
  149SAPE  H11X16504   4.034   1.220   7.841  0.4595  0.7042  0.4124
  149SAPE  H11Y16505   4.052   1.035   7.856 -2.2924 -0.6999 -1.4790
  149SAPE  C31216506   4.024   1.169   8.045  0.0256 -0.1613  0.2282
  149SAPE  H12X16507   3.981   1.266   8.075 -2.5169 -1.3520  0.6752
  149SAPE  H12Y16508   4.133   1.190   8.047  0.0891 -0.5430  1.7275
  149SAPE  C31316509   4.011   1.054   8.142  0.5058 -0.0589  0.8895
  149SAPE  H13X16510   4.036   0.956   8.094  0.5768 -0.0917  0.9941
  149SAPE  H13Y16511   3.907   1.062   8.182  0.3052 -1.4246  0.6961
  149SAPE  C31416512   4.113   1.051   8.259 -0.3948 -0.3294 -0.1921
  149SAPE  H14X16513   4.113   1.144   8.320  0.1910 -1.8666  2.3243
  149SAPE  H14Y16514   4.216   1.037   8.222  0.2274 -0.3712  1.4686
  149SAPE  C31516515   4.095   0.929   8.361  0.0686 -0.3552  0.2722
  149SAPE  H15X16516   4.183   0.939   8.428 -0.4170 -3.4811  1.5465
  149SAPE  H15Y16517   4.101   0.833   8.306 -0.6393  1.1509 -2.6316
  149SAPE  C31616518   3.976   0.928   8.444  0.8816 -0.0697 -0.1334
  149SAPE  H16X16519   3.896   0.860   8.406  2.3830 -1.3720 -1.0618
  149SAPE  H16Y16520   3.929   1.029   8.439 -0.0885 -0.4118  1.3319
  149SAPE  C31716521   3.995   0.907   8.595  0.4308  0.1411 -0.0622
  149SAPE  H17X16522   3.912   0.950   8.656 -0.1271  1.3782 -1.6079
  149SAPE  H17Y16523   4.086   0.960   8.629 -0.3780  1.5711 -0.0688
  149SAPE  C31816524   4.018   0.758   8.623 -0.1766 -0.2952 -0.0734
  149SAPE  H18X16525   3.926   0.700   8.601  0.4016 -1.7844  1.2636
  149SAPE  H18Y16526   4.036   0.739   8.731 -3.1130 -1.3317  0.3235
  149SAPE  H18Z16527   4.091   0.708   8.557 -1.4944 -1.7180 -0.5088
  150SAPE     N16528   3.667   3.906   5.978 -0.4315 -0.0452  0.0153
  150SAPE   HN116529   3.616   3.837   5.919  0.7496 -0.1636 -0.9091
  150SAPE   HN216530   3.742   3.945   5.918 -0.1347  1.0917  1.0776
  150SAPE   HN316531   3.708   3.855   6.060  0.1489 -2.1546 -1.4928
  150SAPE   C1216532   3.574   4.007   6.018  0.3421 -0.5261 -0.1249
  150SAPE  H12A16533   3.475   3.967   6.049 -0.2307  0.1140 -1.0829
  150SAPE  H12B16534   3.551   4.065   5.926  1.0080 -0.4668 -0.2524
  150SAPE   C1116535   3.628   4.097   6.130  0.7350 -0.4179 -0.1067
  150SAPE  H11A16536   3.560   4.184   6.126 -0.6376 -1.3818  1.0881
  150SAPE  H11B16537   3.729   4.141   6.116  0.5520 -0.5521 -2.0843
  150SAPE     P16538   3.637   4.125   6.384  0.4653 -0.1312  0.3603
  150SAPE   O1316539   3.765   4.190   6.370 -0.3283  0.2333 -0.0455
  150SAPE   O1416540   3.513   4.207   6.401 -0.0502 -0.6416 -0.0324
  150SAPE   O1216541   3.617   4.035   6.254 -0.1246  0.8552 -0.3115
  150SAPE   O1116542   3.636   4.019   6.497 -0.4637 -0.1997  0.4891
  150SAPE    C116543   3.599   3.882   6.495  1.2006 -0.1954  0.9834
  150SAPE    HA16544   3.504   3.868   6.439  2.1158 -0.3829 -0.5923
  150SAPE    HB16545   3.679   3.821   6.448  1.0481  1.3597 -1.5120
  150SAPE    C216546   3.573   3.832   6.637 -0.4480  0.1023  0.0537
  150SAPE    HS16547   3.564   3.721   6.645  1.1550 -0.0721 -0.2531
  150SAPE   O2116548   3.457   3.902   6.688  0.0270 -0.6775 -0.0977
  150SAPE   C2116549   3.366   3.812   6.737  0.3012 -0.1720 -0.1161
  150SAPE   O2216550   3.372   3.690   6.728 -0.3848  0.4471 -0.5437
  150SAPE   C2216551   3.256   3.885   6.803  0.2567  1.0318 -0.2023
  150SAPE   H2R16552   3.285   3.978   6.855 -0.7656  2.1514 -1.5290
  150SAPE   H2S16553   3.185   3.924   6.727 -1.2629 -1.0155  0.0581
  150SAPE    C316554   3.705   3.879   6.712  0.4917 -0.3429 -0.6193
  150SAPE    HX16555   3.721   3.988   6.697 -2.0714  0.2527  0.4497
  150SAPE    HY16556   3.787   3.820   6.666 -0.4417 -2.7092  0.6088
  150SAPE   O3116557   3.699   3.858   6.858 -0.0258 -0.1561 -0.0003
  150SAPE   C3116558   3.736   3.732   6.902  0.3996 -0.3175 -0.4050
  150SAPE   O3216559   3.791   3.652   6.825 -0.5329 -1.2023  0.2506
  150SAPE   C3216560   3.695   3.711   7.041  0.1873  0.0050 -0.1294
  150SAPE   H2X16561   3.586   3.687   7.040  0.2657 -0.3540 -0.1303
  150SAPE   H2Y16562   3.710   3.807   7.094 -0.8387  0.0554  0.1011
  150SAPE   C2316563   3.176   3.808   6.909  0.1659 -0.2547 -0.4976
  150SAPE   H3R16564   3.162   3.704   6.871 -0.1661 -0.5461  0.3873
  150SAPE   H3S16565   3.076   3.854   6.923 -0.4988 -1.4982 -0.9638
  150SAPE   C2416566   3.243   3.802   7.047  0.3462 -0.0720 -0.1176
  150SAPE   H4R16567   3.232   3.904   7.091 -0.3716 -0.4087  0.5146
  150SAPE   H4S16568   3.350   3.775   7.033  0.4289 -0.3869  0.9998
  150SAPE   C2516569   3.166   3.711   7.144  0.6159 -0.2715 -0.4275
  150SAPE   H5R16570   3.077   3.670   7.095  1.0923  1.7059 -3.1593
  150SAPE   C2616571   3.200   3.671   7.267  0.2291  0.0077  0.0960
  150SAPE   H6R16572   3.131   3.601   7.317  2.1026 -1.2781  1.0685
  150SAPE   C2716573   3.317   3.697   7.349  0.1714  0.1256  0.0446
  150SAPE   H7R16574   3.387   3.763   7.294  0.2914  0.9873  1.1719
  150SAPE   H7S16575   3.376   3.609   7.380  1.8461  0.5090 -1.8483
  150SAPE   C2816576   3.267   3.768   7.469  0.5988  0.6579 -0.2965
  150SAPE   H8R16577   3.217   3.864   7.449 -1.0862  0.3084  1.7911
  150SAPE   C2916578   3.278   3.741   7.601 -0.6071  0.1688  1.1287
  150SAPE   H9R16579   3.251   3.826   7.664  1.1460  2.0545 -0.5344
  150SAPE  C21016580   3.337   3.615   7.664  1.1628 -0.0986  0.2074
  150SAPE  H10R16581   3.327   3.530   7.593  2.8389 -0.2353  0.0957
  150SAPE  H10S16582   3.269   3.611   7.752  2.1170 -1.9976  0.9205
  150SAPE  C21116583   3.481   3.627   7.711 -0.0788 -0.4106  0.8138
  150SAPE  H11R16584   3.555   3.587   7.641 -1.5668  0.7362 -1.5543
  150SAPE  C21216585   3.519   3.687   7.821  0.3375 -0.4087  0.5759
  150SAPE  H12R16586   3.625   3.676   7.847  0.7359 -1.6125 -1.3884
  150SAPE  C21316587   3.430   3.752   7.925 -0.6307 -0.1095  0.0464
  150SAPE  H13R16588   3.389   3.669   7.987  0.3711  1.2114  2.6403
  150SAPE  H13S16589   3.346   3.805   7.876 -0.0086 -0.2053 -1.1762
  150SAPE  C21416590   3.512   3.846   8.013  1.0361  0.5531  0.1218
  150SAPE  H14R16591   3.558   3.935   7.968 -0.6294  0.5928 -1.6077
  150SAPE  C21516592   3.521   3.835   8.147 -0.2279 -0.1561 -0.8507
  150SAPE  H15R16593   3.565   3.917   8.206  1.3843 -1.6012  0.0597
  150SAPE  C21616594   3.448   3.736   8.237 -0.4588  0.5270 -0.9825
  150SAPE  H16R16595   3.358   3.693   8.188  0.7680 -0.5179 -2.4252
  150SAPE  H16S16596   3.417   3.789   8.329 -3.2700 -1.5960 -0.5622
  150SAPE  C21716597   3.527   3.612   8.268 -0.6353  0.4356 -0.1281
  150SAPE  H17R16598   3.614   3.650   8.326 -1.3084  1.5459  0.2006
  150SAPE  H17S16599   3.565   3.564   8.176 -1.3349  0.6443 -0.5352
  150SAPE  C21816600   3.469   3.507   8.361 -0.4581  0.3160  0.5504
  150SAPE  H18R16601   3.385   3.462   8.304 -0.7901  1.8675 -0.2379
  150SAPE  H18S16602   3.440   3.553   8.458 -0.9353 -0.3415  0.7214
  150SAPE  C21916603   3.570   3.384   8.392  0.2427 -0.0338  1.2132
  150SAPE  H19R16604   3.658   3.412   8.455  0.1760 -3.0567  2.7957
  150SAPE  H19S16605   3.612   3.348   8.296  0.2143  1.5866  0.5491
  150SAPE  C22016606   3.490   3.271   8.462  0.3766  0.2661  0.4651
  150SAPE  H20R16607   3.396   3.252   8.405  0.5703  0.6393  0.0108
  150SAPE  H20S16608   3.475   3.290   8.570  1.3812  0.4757  0.5826
  150SAPE  H20T16609   3.544   3.174   8.468 -2.1929 -1.3248 -0.3840
  150SAPE   C3316610   3.768   3.597   7.115  0.1572  0.1466  0.7919
  150SAPE   H3X16611   3.857   3.645   7.160 -0.2357  0.6637  1.0301
  150SAPE   H3Y16612   3.806   3.510   7.056 -0.4532 -0.4490  1.2548
  150SAPE   C3416613   3.688   3.535   7.230  0.1172  0.0373 -0.7712
  150SAPE   H4X16614   3.594   3.479   7.212  1.1377 -1.9418 -0.2859
  150SAPE   H4Y16615   3.659   3.620   7.296  0.3403 -0.1881 -0.3738
  150SAPE   C3516616   3.782   3.445   7.318  0.6855  0.0393  0.2123
  150SAPE   H5X16617   3.877   3.496   7.343  0.6728 -0.4005  1.1707
  150SAPE   H5Y16618   3.801   3.352   7.261 -0.3584  0.7193 -1.3083
  150SAPE   C3616619   3.719   3.408   7.454 -0.1964 -0.1772 -0.1891
  150SAPE   H6X16620   3.618   3.365   7.433  0.0517 -0.7425 -0.2559
  150SAPE   H6Y16621   3.701   3.494   7.521  0.0408 -0.3606  0.1137
  150SAPE   C3716622   3.793   3.296   7.524  0.3183  0.1150 -0.8903
  150SAPE   H7X16623   3.879   3.349   7.570  0.0284  0.6509 -0.9702
  150SAPE   H7Y16624   3.819   3.208   7.461 -1.0656 -0.8485 -0.1652
  150SAPE   C3816625   3.704   3.251   7.646 -0.2422 -0.4429  0.5825
  150SAPE   H8X16626   3.596   3.229   7.629 -0.3581  0.5329 -0.0585
  150SAPE   H8Y16627   3.700   3.330   7.724  1.9637  0.8794 -0.5443
  150SAPE   C3916628   3.775   3.144   7.716 -0.3282  0.4285 -1.4090
  150SAPE   H9X16629   3.865   3.198   7.752 -0.8029  0.3773 -0.1113
  150SAPE   H9Y16630   3.798   3.058   7.649  0.0017 -0.3315 -0.3495
  150SAPE  C31016631   3.696   3.075   7.819 -0.1140 -0.0495  0.2553
  150SAPE  H10X16632   3.631   2.997   7.772  0.9618 -0.8810  0.1224
  150SAPE  H10Y16633   3.627   3.146   7.869 -1.4909 -0.3902 -1.0665
  150SAPE  C31116634   3.785   3.012   7.928 -0.1722 -0.4999 -0.0140
  150SAPE  H11X16635   3.887   3.055   7.914 -0.7752  0.9446 -0.1569
  150SAPE  H11Y16636   3.779   2.901   7.925  2.0164 -0.6366 -1.0715
  150SAPE  C31216637   3.758   3.053   8.075  0.0527 -0.1573 -0.3067
  150SAPE  H12X16638   3.764   3.161   8.101 -0.5628 -0.3256  0.5721
  150SAPE  H12Y16639   3.844   3.003   8.125  0.7753  2.0852  0.8213
  150SAPE  C31316640   3.628   2.993   8.134  0.0769  0.0953 -0.2528
  150SAPE  H13X16641   3.603   2.896   8.085 -0.6944 -0.1488  0.6023
  150SAPE  H13Y16642   3.544   3.064   8.122 -1.9741 -1.9865  0.9519
  150SAPE  C31416643   3.639   2.962   8.282  0.3352 -0.3902  0.2168
  150SAPE  H14X16644   3.683   3.045   8.341 -3.2039  1.5071  0.4630
  150SAPE  H14Y16645   3.709   2.878   8.302 -0.1825 -0.8076  0.2862
  150SAPE  C31516646   3.504   2.923   8.348  0.0546  0.1550  0.2439
  150SAPE  H15X16647   3.435   3.003   8.315  0.9637  0.6180 -0.5949
  150SAPE  H15Y16648   3.526   2.919   8.457  0.1290 -1.7284  0.1883
  150SAPE  C31616649   3.450   2.788   8.304 -0.5426 -0.1481 -0.3494
  150SAPE  H16X16650   3.527   2.711   8.326  0.5675 -0.0288 -3.4396
  150SAPE  H16Y16651   3.435   2.779   8.195 -1.1277  2.6707 -0.5727
  150SAPE  C31716652   3.323   2.735   8.370 -1.0629  0.6924 -0.1592
  150SAPE  H17X16653   3.240   2.803   8.342 -1.4905  0.4282  0.4416
  150SAPE  H17Y16654   3.333   2.746   8.480  1.8531  1.2763 -0.3873
  150SAPE  C31816655   3.285   2.589   8.339  0.3049  0.7667  0.0473
  150SAPE  H18X16656   3.359   2.520   8.385  0.7182 -0.2112 -1.9424
  150SAPE  H18Y16657   3.275   2.578   8.229 -2.1963  0.8698  0.2013
  150SAPE  H18Z16658   3.185   2.552   8.372  0.7091 -1.0205 -0.5933
  151SAPE     N16659   0.415   0.828   6.163  0.0545 -0.1713  0.3781
  151SAPE   HN116660   0.506   0.870   6.134 -0.1363 -1.4884 -2.4923
  151SAPE   HN216661   0.421   0.734   6.207  3.7198 -0.2909 -0.0421
  151SAPE   HN316662   0.363   0.811   6.074  0.6899  1.1245 -0.2703
  151SAPE   C1216663   0.332   0.917   6.252  0.2465  0.2843  0.2014
  151SAPE  H12A16664   0.321   1.018   6.206  0.2325 -0.8428 -2.4591
  151SAPE  H12B16665   0.390   0.922   6.347  1.5557 -1.1523 -0.4784
  151SAPE   C1116666   0.187   0.858   6.288  0.3070 -0.0814  0.0458
  151SAPE  H11A16667   0.149   0.930   6.364  0.6981  0.1228  0.0497
  151SAPE  H11B16668   0.193   0.759   6.339 -3.2015 -1.5324 -2.0380
  151SAPE     P16669   0.026   0.936   6.091  0.7466 -0.0117 -0.2078
  151SAPE   O1316670   0.129   1.017   6.023 -0.4417  0.3001  0.5012
  151SAPE   O1416671  -0.076   0.867   6.009  0.3000  0.0569 -0.0412
  151SAPE   O1216672   0.111   0.831   6.174  0.2510 -0.0328  0.3813
  151SAPE   O1116673  -0.037   1.027   6.204  0.2306  0.5299  0.1935
  151SAPE    C116674  -0.118   0.972   6.307 -0.4064  0.7081 -0.2577
  151SAPE    HA16675  -0.175   0.886   6.266 -0.0089  0.2219  0.1899
  151SAPE    HB16676  -0.067   0.927   6.395 -1.1783  0.5534  0.1215
  151SAPE    C216677  -0.213   1.071   6.371  0.3599 -0.2475 -0.4353
  151SAPE    HS16678  -0.285   1.111   6.296 -1.5109  2.5881  2.5924
  151SAPE   O2116679  -0.131   1.183   6.414 -0.3099 -0.5402  0.3565
  151SAPE   C2116680  -0.205   1.289   6.456  1.2025 -0.0496 -0.0447
  151SAPE   O2216681  -0.324   1.302   6.438 -0.7986 -0.0777  0.6202
  151SAPE   C2216682  -0.116   1.390   6.527 -0.6013  0.0041  0.0575
  151SAPE   H2R16683  -0.036   1.332   6.577 -1.1668  0.3545  1.4309
  151SAPE   H2S16684  -0.065   1.444   6.445  0.8863 -0.9322  0.3360
  151SAPE    C316685  -0.312   1.010   6.474 -0.6546 -0.0491 -0.6728
  151SAPE    HX16686  -0.340   0.908   6.439  1.8560 -0.7482 -0.8768
  151SAPE    HY16687  -0.402   1.073   6.487 -0.8011 -0.7583  2.5260
  151SAPE   O3116688  -0.249   1.000   6.601 -0.0907  0.5488  0.4955
  151SAPE   C3116689  -0.189   0.888   6.625  0.3128  0.3212 -0.1215
  151SAPE   O3216690  -0.180   0.790   6.553  0.4956  0.2670 -0.3190
  151SAPE   C3216691  -0.113   0.894   6.756  0.3667  0.7568 -0.2496
  151SAPE   H2X16692  -0.159   0.964   6.829 -2.9615 -0.2463 -1.1921
  151SAPE   H2Y16693  -0.016   0.942   6.730 -0.4410  1.2514 -2.5335
  151SAPE   C2316694  -0.185   1.481   6.636  0.5774  0.7346 -0.5491
  151SAPE   H3R16695  -0.272   1.540   6.600  0.7512  1.4691  0.2070
  151SAPE   H3S16696  -0.105   1.538   6.688  0.9986 -1.0851  0.9135
  151SAPE   C2416697  -0.230   1.400   6.760 -0.0147  0.4402 -0.4463
  151SAPE   H4R16698  -0.146   1.334   6.792 -0.5832 -1.1238 -2.0358
  151SAPE   H4S16699  -0.307   1.324   6.735 -1.1308  1.7090 -1.0124
  151SAPE   C2516700  -0.293   1.483   6.865 -0.1164 -0.0700  0.1170
  151SAPE   H5R16701  -0.389   1.520   6.826  0.6745 -0.2253 -2.1238
  151SAPE   C2616702  -0.253   1.517   6.990 -0.7140  0.0080  0.5068
  151SAPE   H6R16703  -0.313   1.586   7.052 -0.3920  2.1512 -1.4255
  151SAPE   C2716704  -0.132   1.480   7.064 -0.2605  0.2259 -0.4552
  151SAPE   H7R16705  -0.052   1.432   7.003 -1.7196 -0.2160 -2.1282
  151SAPE   H7S16706  -0.172   1.404   7.134  0.0272 -0.1426 -0.6878
  151SAPE   C2816707  -0.085   1.593   7.154 -0.3931 -0.2938  0.6994
  151SAPE   H8R16708   0.004   1.649   7.121  0.5393 -1.9902  0.2353
  151SAPE   C2916709  -0.148   1.635   7.261 -0.0596  0.3691 -0.0713
  151SAPE   H9R16710  -0.103   1.718   7.317 -0.3175  1.2387 -1.1006
  151SAPE  C21016711  -0.285   1.577   7.310 -0.5657 -0.8722  0.1720
  151SAPE  H10R16712  -0.270   1.518   7.403  0.5363 -0.7721  0.0664
  151SAPE  H10S16713  -0.332   1.506   7.239 -0.3164 -1.3449  0.4740
  151SAPE  C21116714  -0.389   1.686   7.337  0.6994 -0.4648 -0.5934
  151SAPE  H11R16715  -0.372   1.789   7.304  0.8044 -0.4539 -0.5083
  151SAPE  C21216716  -0.514   1.663   7.391  0.1779 -0.0853  0.2047
  151SAPE  H12R16717  -0.576   1.752   7.407 -1.6876 -1.2355 -0.3498
  151SAPE  C21316718  -0.576   1.532   7.440 -0.0941  0.5949 -0.6365
  151SAPE  H13R16719  -0.493   1.472   7.483 -0.3169  0.7188 -0.0193
  151SAPE  H13S16720  -0.627   1.481   7.356 -0.3909  0.0372 -0.1251
  151SAPE  C21416721  -0.692   1.550   7.538 -0.1590 -0.2224 -0.5744
  151SAPE  H14R16722  -0.789   1.558   7.486 -0.0761  0.4786 -0.6281
  151SAPE  C21516723  -0.678   1.574   7.669 -0.5433 -0.4025 -0.7354
  151SAPE  H15R16724  -0.764   1.577   7.737 -0.2570  0.7584 -0.3949
  151SAPE  C21616725  -0.547   1.588   7.740  0.4627 -0.5620  0.1156
  151SAPE  H16R16726  -0.471   1.510   7.718  1.5531  0.9196 -1.7051
  151SAPE  H16S16727  -0.577   1.562   7.844  0.5641 -1.0242  0.0314
  151SAPE  C21716728  -0.477   1.728   7.735 -0.6056 -0.5253  0.0737
  151SAPE  H17R16729  -0.475   1.775   7.635  1.0342  0.0230  0.3373
  151SAPE  H17S16730  -0.369   1.719   7.761 -0.0389  1.1805 -1.5188
  151SAPE  C21816731  -0.534   1.840   7.831  0.0815 -0.2148  0.3499
  151SAPE  H18R16732  -0.644   1.854   7.823 -0.0003  0.1489  1.7972
  151SAPE  H18S16733  -0.472   1.929   7.809 -1.0229  1.0255  2.0672
  151SAPE  C21916734  -0.509   1.811   7.980 -0.2634 -0.2012  0.0353
  151SAPE  H19R16735  -0.400   1.822   7.997 -0.2514  1.6650 -0.9531
  151SAPE  H19S16736  -0.537   1.706   8.000 -1.7812  0.1974  0.1378
  151SAPE  C22016737  -0.586   1.894   8.086 -0.2432  0.2638  0.5253
  151SAPE  H20R16738  -0.517   1.975   8.117  1.3521 -0.1513 -1.6781
  151SAPE  H20S16739  -0.678   1.947   8.054 -1.1111 -2.8808 -2.9417
  151SAPE  H20T16740  -0.617   1.826   8.168  0.7861 -1.5168 -0.4995
  151SAPE   C3316741  -0.081   0.756   6.818  0.0712  0.2628  0.1001
  151SAPE   H3X16742   0.003   0.756   6.890  1.9315  0.4416 -1.9479
  151SAPE   H3Y16743  -0.056   0.680   6.740 -0.6993 -0.4461  0.5270
  151SAPE   C3416744  -0.201   0.692   6.885  0.4311 -0.3464 -0.1001
  151SAPE   H4X16745  -0.176   0.584   6.891  2.0987 -0.1932 -2.5389
  151SAPE   H4Y16746  -0.298   0.701   6.831 -1.5198 -3.3273  2.5489
  151SAPE   C3516747  -0.239   0.759   7.025  0.4947 -0.2837  1.1944
  151SAPE   H5X16748  -0.292   0.854   7.000 -1.1065 -0.9363  1.9568
  151SAPE   H5Y16749  -0.146   0.783   7.080  0.5209 -0.8940  1.4175
  151SAPE   C3616750  -0.331   0.667   7.107 -0.4927 -0.1889 -0.1198
  151SAPE   H6X16751  -0.264   0.582   7.132  1.7238  1.5834  0.2049
  151SAPE   H6Y16752  -0.419   0.640   7.045 -1.1154  0.9716  0.2227
  151SAPE   C3716753  -0.377   0.724   7.242  0.1401 -0.0231  0.4564
  151SAPE   H7X16754  -0.433   0.819   7.234 -2.5001 -1.2018  2.7835
  151SAPE   H7Y16755  -0.288   0.722   7.308 -0.2926  0.0642  1.0591
  151SAPE   C3816756  -0.487   0.635   7.301  0.3965  0.5737  0.6066
  151SAPE   H8X16757  -0.449   0.533   7.282 -0.2389  0.1050  1.7773
  151SAPE   H8Y16758  -0.579   0.648   7.240 -0.2531 -0.5872  1.3070
  151SAPE   C3916759  -0.503   0.665   7.440 -0.8409  0.3894 -0.6042
  151SAPE   H9X16760  -0.596   0.616   7.476 -0.6184  1.1374  1.0903
  151SAPE   H9Y16761  -0.503   0.775   7.459  1.0020  0.3281 -0.1073
  151SAPE  C31016762  -0.389   0.605   7.528 -0.3003 -0.0508 -0.2173
  151SAPE  H10X16763  -0.291   0.656   7.518  0.7088 -1.4739  1.7256
  151SAPE  H10Y16764  -0.366   0.506   7.481  0.3168  1.0014 -2.2841
  151SAPE  C31116765  -0.428   0.596   7.679  0.0138  1.1911 -0.6373
  151SAPE  H11X16766  -0.335   0.567   7.733  0.2015  1.6280 -0.7268
  151SAPE  H11Y16767  -0.509   0.524   7.702  1.0626 -0.1267 -0.9520
  151SAPE  C31216768  -0.465   0.733   7.740  0.5626  0.6968  0.4998
  151SAPE  H12X16769  -0.564   0.773   7.712  0.0532  0.1166  1.4021
  151SAPE  H12Y16770  -0.380   0.803   7.727  1.0310  0.0042 -0.2719
  151SAPE  C31316771  -0.494   0.727   7.888  0.3728 -0.0756  0.2920
  151SAPE  H13X16772  -0.416   0.675   7.948 -0.8381 -0.1414  1.9024
  151SAPE  H13Y16773  -0.593   0.679   7.909  0.3832 -0.5378 -0.6852
  151SAPE  C31416774  -0.494   0.867   7.962  0.2741 -0.3729  0.2909
  151SAPE  H14X16775  -0.570   0.936   7.920  0.1015 -0.5250  0.3557
  151SAPE  H14Y16776  -0.392   0.907   7.942 -0.0713 -0.6725 -2.5784
  151SAPE  C31516777  -0.516   0.849   8.114  0.8392  1.3345  0.0684
  151SAPE  H15X16778  -0.457   0.762   8.150  1.4487  0.3297 -3.0478
  151SAPE  H15Y16779  -0.621   0.823   8.142  1.5018 -0.4160  1.0753
  151SAPE  C31616780  -0.459   0.970   8.190  0.2832  0.2243  0.2107
  151SAPE  H16X16781  -0.492   1.055   8.126 -1.3582 -0.0749  0.6208
  151SAPE  H16Y16782  -0.348   0.979   8.185  0.2875 -0.3525 -1.0394
  151SAPE  C31716783  -0.501   0.966   8.342 -0.2559 -0.2111 -0.3129
  151SAPE  H17X16784  -0.430   1.021   8.406  0.3316  0.5152 -1.5553
  151SAPE  H17Y16785  -0.502   0.861   8.380 -1.2156 -0.4842 -1.0385
  151SAPE  C31816786  -0.640   1.011   8.368 -0.2113  0.0619  0.3421
  151SAPE  H18X16787  -0.714   0.955   8.308 -0.2945  0.8804 -0.3269
  151SAPE  H18Y16788  -0.641   1.121   8.353 -0.0824 -0.0826 -0.8279
  151SAPE  H18Z16789  -0.674   0.989   8.472  0.3367 -0.8798  0.3365
  152SAPE     N16790   2.218   3.971   5.822 -0.5617  0.0957 -0.2999
  152SAPE   HN116791   2.190   4.054   5.766 -0.4091  3.2625  3.8213
  152SAPE   HN216792   2.167   3.886   5.791  0.9972 -0.2005 -2.2025
  152SAPE   HN316793   2.179   4.000   5.914 -2.0300 -1.5002 -0.3580
  152SAPE   C1216794   2.366   3.951   5.831  0.1263  0.1035  0.1557
  152SAPE  H12A16795   2.407   3.957   5.728 -2.1603  1.3886 -0.7343
  152SAPE  H12B16796   2.373   3.848   5.873  1.2030 -0.4189 -1.2111
  152SAPE   C1116797   2.438   4.044   5.939 -0.2779 -0.4234  0.3414
  152SAPE  H11A16798   2.410   4.148   5.911 -0.0182  0.1669  2.1885
  152SAPE  H11B16799   2.548   4.035   5.930 -0.1560 -1.2856  2.2009
  152SAPE     P16800   2.474   4.076   6.194  0.3359  0.2156 -0.0084
  152SAPE   O1316801   2.612   4.037   6.181  0.1226 -0.4212 -0.0508
  152SAPE   O1416802   2.442   4.220   6.206 -0.3576  0.8454  0.2601
  152SAPE   O1216803   2.398   4.014   6.069  0.0899  0.2893 -0.4438
  152SAPE   O1116804   2.407   3.994   6.310  0.2843  0.1483  0.2433
  152SAPE    C116805   2.274   4.017   6.347  0.7250 -0.3151  0.2451
  152SAPE    HA16806   2.230   4.111   6.309 -0.5305 -0.2476  1.7981
  152SAPE    HB16807   2.220   3.932   6.300 -0.1847  0.7146 -0.6263
  152SAPE    C216808   2.251   4.017   6.505 -0.6126 -0.8378  1.3023
  152SAPE    HS16809   2.141   4.015   6.519 -0.7687  0.4877  0.4618
  152SAPE   O2116810   2.306   4.145   6.548 -0.1630 -0.4365 -0.0333
  152SAPE   C2116811   2.252   4.191   6.665 -0.1447  0.4057 -0.0043
  152SAPE   O2216812   2.163   4.131   6.718  0.2728  0.1143 -0.3186
  152SAPE   C2216813   2.309   4.326   6.704 -0.2999  0.1607  0.1698
  152SAPE   H2R16814   2.407   4.296   6.746 -0.4055 -1.0954 -0.4330
  152SAPE   H2S16815   2.334   4.367   6.603 -0.3930 -1.5126 -0.5693
  152SAPE    C316816   2.321   3.888   6.576 -0.2598  0.1134 -0.2619
  152SAPE    HX16817   2.421   3.903   6.528  0.8235  1.2198  2.1686
  152SAPE    HY16818   2.299   3.787   6.537 -0.2130  0.7257 -1.9601
  152SAPE   O3116819   2.336   3.901   6.721 -0.5184  0.1227  0.1728
  152SAPE   C3116820   2.235   3.841   6.780 -1.0660 -0.5540 -0.1983
  152SAPE   O3216821   2.155   3.772   6.727 -0.4111 -0.0188  0.2406
  152SAPE   C3216822   2.228   3.878   6.924  0.7647  0.3321  0.0061
  152SAPE   H2X16823   2.273   3.980   6.928  1.2475  0.0960  0.7152
  152SAPE   H2Y16824   2.292   3.813   6.988 -0.0879  1.0766  1.6850
  152SAPE   C2316825   2.214   4.409   6.792 -0.8715 -0.7620  0.4978
  152SAPE   H3R16826   2.167   4.342   6.867  0.9001 -1.5436  0.9790
  152SAPE   H3S16827   2.132   4.453   6.732 -0.8957 -1.1622  0.2376
  152SAPE   C2416828   2.284   4.523   6.861 -0.5050  0.1788  0.6065
  152SAPE   H4R16829   2.327   4.587   6.781 -0.3739  0.5271  0.9514
  152SAPE   H4S16830   2.376   4.487   6.912  1.7832  1.1981 -2.4731
  152SAPE   C2516831   2.188   4.594   6.955  0.0811  0.2038 -0.6688
  152SAPE   H5R16832   2.092   4.616   6.906 -1.2981 -0.6862  1.5261
  152SAPE   C2616833   2.208   4.599   7.089  0.6392  0.2991 -0.5098
  152SAPE   H6R16834   2.127   4.642   7.151  1.4563 -0.2577  0.9829
  152SAPE   C2716835   2.328   4.550   7.168  0.3191  0.4687 -0.4351
  152SAPE   H7R16836   2.339   4.608   7.262 -1.0684 -3.1595  2.2051
  152SAPE   H7S16837   2.424   4.558   7.113  0.5626 -0.6384 -0.1829
  152SAPE   C2816838   2.309   4.406   7.206  0.0578  0.1427  0.3759
  152SAPE   H8R16839   2.303   4.348   7.113  0.4544  0.4419  0.1657
  152SAPE   C2916840   2.271   4.359   7.322  0.6484  0.0844  0.0511
  152SAPE   H9R16841   2.263   4.251   7.337 -1.3403 -0.1929 -2.3469
  152SAPE  C21016842   2.249   4.443   7.439 -0.0433  0.6313  0.3177
  152SAPE  H10R16843   2.185   4.528   7.407 -1.3249 -0.2019  0.5995
  152SAPE  H10S16844   2.345   4.485   7.478  0.3683 -0.9205  1.0377
  152SAPE  C21116845   2.164   4.383   7.540 -0.1222 -0.0238  0.4365
  152SAPE  H11R16846   2.090   4.312   7.501 -0.2104  0.9661 -1.2904
  152SAPE  C21216847   2.176   4.404   7.673 -0.0832  0.2421 -0.5837
  152SAPE  H12R16848   2.120   4.341   7.744  0.1939 -0.9358 -1.3696
  152SAPE  C21316849   2.282   4.502   7.734 -1.1450  0.3078 -0.0034
  152SAPE  H13R16850   2.260   4.608   7.706  2.4848  1.4857  1.0959
  152SAPE  H13S16851   2.383   4.488   7.691 -0.3999  3.2715  0.5510
  152SAPE  C21416852   2.288   4.493   7.885  0.0674 -0.3569 -0.2377
  152SAPE  H14R16853   2.362   4.419   7.921 -0.5534 -0.2125  1.4530
  152SAPE  C21516854   2.223   4.574   7.970  0.5231  0.2001 -0.4624
  152SAPE  H15R16855   2.225   4.553   8.078  0.8208 -1.5842 -0.7755
  152SAPE  C21616856   2.126   4.686   7.927  1.0357 -0.0486  0.0157
  152SAPE  H16R16857   2.036   4.637   7.883  0.7108  0.7916 -0.2960
  152SAPE  H16S16858   2.170   4.744   7.842 -0.1831 -1.6762 -1.8084
  152SAPE  C21716859   2.083   4.789   8.036 -0.3812  0.0751 -0.7247
  152SAPE  H17R16860   2.033   4.746   8.126 -0.5985 -0.2635 -1.0073
  152SAPE  H17S16861   2.014   4.860   7.987 -1.2237  0.4457  0.9409
  152SAPE  C21816862   2.195   4.875   8.091 -0.8704 -0.1414 -0.2149
  152SAPE  H18R16863   2.265   4.809   8.145 -1.7475 -0.3146  0.7259
  152SAPE  H18S16864   2.162   4.941   8.174  1.3515 -1.0116  1.4453
  152SAPE  C21916865   2.270   4.955   7.984  0.7590 -0.3885  0.2340
  152SAPE  H19R16866   2.204   5.040   7.958 -1.3196 -1.5868  1.3462
  152SAPE  H19S16867   2.283   4.894   7.892 -0.7425  2.3407 -1.9522
  152SAPE  C22016868   2.398   5.012   8.033 -0.1382 -0.2772 -0.9937
  152SAPE  H20R16869   2.440   5.076   7.952 -1.1718  0.3432 -1.0571
  152SAPE  H20S16870   2.477   4.944   8.070  0.0943 -0.3542 -1.6220
  152SAPE  H20T16871   2.382   5.074   8.124  2.0995 -0.2087 -0.5771
  152SAPE   C3316872   2.080   3.883   6.977 -0.2783  0.2279 -0.2272
  152SAPE   H3X16873   2.040   3.780   6.974  0.8292 -0.2055 -0.8755
  152SAPE   H3Y16874   2.011   3.937   6.908  2.5576  1.6715 -2.1611
  152SAPE   C3416875   2.061   3.961   7.110  0.0667 -0.1017 -0.3717
  152SAPE   H4X16876   1.955   3.981   7.135 -0.0763 -1.7280  0.4573
  152SAPE   H4Y16877   2.117   4.056   7.112 -1.1563  0.6899 -1.9199
  152SAPE   C3516878   2.108   3.879   7.234  0.8775 -0.2090  0.3486
  152SAPE   H5X16879   2.210   3.839   7.220  0.6553  0.0737 -2.8137
  152SAPE   H5Y16880   2.036   3.794   7.233  2.4733 -1.6950 -2.8951
  152SAPE   C3616881   2.097   3.957   7.364 -0.5799  0.4959 -0.2754
  152SAPE   H6X16882   1.995   4.001   7.368 -1.5328 -1.6443  0.1748
  152SAPE   H6Y16883   2.166   4.045   7.370 -1.9287  1.6452 -0.9638
  152SAPE   C3716884   2.113   3.869   7.488 -0.8778 -0.0340  0.2914
  152SAPE   H7X16885   2.220   3.841   7.496 -0.6221  0.4122 -1.2740
  152SAPE   H7Y16886   2.043   3.784   7.470 -2.4976  1.5190 -1.2038
  152SAPE   C3816887   2.073   3.949   7.615  0.1602 -0.4477  0.3091
  152SAPE   H8X16888   1.969   3.987   7.612  0.8736  2.0854  2.9376
  152SAPE   H8Y16889   2.131   4.044   7.624 -0.8036  0.4989 -2.5336
  152SAPE   C3916890   2.099   3.872   7.743 -0.1685 -0.4251  0.5352
  152SAPE   H9X16891   2.201   3.827   7.737 -1.2114 -2.9225  0.0540
  152SAPE   H9Y16892   2.017   3.796   7.739 -1.7369  1.2353 -0.0973
  152SAPE  C31016893   2.088   3.959   7.859  0.4709  0.1608  0.0599
  152SAPE  H10X16894   1.987   4.004   7.860  1.6679  3.0452  1.2034
  152SAPE  H10Y16895   2.176   4.025   7.844  1.1952 -0.7089  0.4007
  152SAPE  C31116896   2.114   3.878   7.983 -0.8475 -0.4222 -0.7240
  152SAPE  H11X16897   2.220   3.848   7.995 -1.3221 -1.7510  0.4591
  152SAPE  H11Y16898   2.067   3.778   7.974 -2.5188  0.4226 -2.0280
  152SAPE  C31216899   2.064   3.953   8.105 -0.3771 -0.3596  0.1417
  152SAPE  H12X16900   1.956   3.978   8.091 -0.0577  1.4182  0.5354
  152SAPE  H12Y16901   2.113   4.051   8.120 -1.1966 -0.1295  1.5071
  152SAPE  C31316902   2.089   3.875   8.231  0.0576 -0.1886  0.5736
  152SAPE  H13X16903   2.088   3.950   8.312 -0.0027 -0.1647  0.5495
  152SAPE  H13Y16904   2.190   3.828   8.228  0.8064  1.3939 -0.9343
  152SAPE  C31416905   1.979   3.774   8.252  0.4668 -0.0699 -0.0214
  152SAPE  H14X16906   1.974   3.703   8.167 -1.5539  0.9338 -0.8320
  152SAPE  H14Y16907   1.889   3.838   8.241  3.7703  5.2938  0.5190
  152SAPE  C31516908   2.007   3.697   8.387 -0.8320  0.2396  0.3786
  152SAPE  H15X16909   2.110   3.657   8.392 -0.2686  0.1696 -5.4364
  152SAPE  H15Y16910   1.941   3.608   8.387 -1.4200  0.6583 -0.2683
  152SAPE  C31616911   1.990   3.773   8.518 -0.0519 -0.7683 -0.4383
  152SAPE  H16X16912   2.052   3.865   8.508  0.4004 -1.3007 -3.4369
  152SAPE  H16Y16913   2.029   3.710   8.601 -0.8035 -0.2672  0.3173
  152SAPE  C31716914   1.842   3.811   8.549 -0.3768 -0.0936 -0.4261
  152SAPE  H17X16915   1.803   3.875   8.467 -1.7151  2.1347  1.8247
  152SAPE  H17Y16916   1.845   3.886   8.630  0.4028  1.2270 -1.6356
  152SAPE  C31816917   1.748   3.700   8.580  0.1843  0.0952 -0.1262
  152SAPE  H18X16918   1.696   3.661   8.490 -2.0034  1.1621  0.6098
  152SAPE  H18Y16919   1.667   3.728   8.650  1.2820 -0.7701  1.5534
  152SAPE  H18Z16920   1.798   3.611   8.625  0.7921 -0.6569 -2.1369
  153SAPE     N16921   0.032   4.245   6.276  0.4493 -0.3655 -0.0395
  153SAPE   HN116922   0.078   4.174   6.216  0.0411  0.0747 -0.9010
  153SAPE   HN216923  -0.065   4.208   6.284 -0.5954  2.3773  1.1964
  153SAPE   HN316924   0.028   4.335   6.223  2.3907 -0.1772  0.0911
  153SAPE   C1216925   0.102   4.251   6.406 -0.1690 -0.7517 -0.5409
  153SAPE  H12A16926   0.096   4.148   6.449 -0.9169  0.2647  1.9556
  153SAPE  H12B16927   0.037   4.310   6.473  0.8279 -0.9901  0.6878
  153SAPE   C1116928   0.236   4.324   6.392 -0.3948 -0.7024  0.1823
  153SAPE  H11A16929   0.279   4.350   6.491 -0.4692  1.3546 -0.2724
  153SAPE  H11B16930   0.200   4.419   6.347 -0.0099 -0.8900 -0.5399
  153SAPE     P16931   0.438   4.159   6.331 -0.4870 -0.2228 -0.0910
  153SAPE   O1316932   0.392   4.044   6.409 -0.1616 -0.2262 -0.0018
  153SAPE   O1416933   0.506   4.124   6.205  0.4717  0.2719  0.5402
  153SAPE   O1216934   0.329   4.262   6.299 -0.0485  0.0697 -0.3424
  153SAPE   O1116935   0.536   4.251   6.416  0.3003 -0.0977  0.9170
  153SAPE    C116936   0.575   4.377   6.365 -0.3604 -0.5743 -0.7522
  153SAPE    HA16937   0.648   4.365   6.283  0.8432  1.9904 -0.1489
  153SAPE    HB16938   0.489   4.440   6.334  0.2911 -0.6727 -2.9093
  153SAPE    C216939   0.638   4.476   6.462 -0.0504  1.0012 -1.1309
  153SAPE    HS16940   0.738   4.431   6.480 -1.0201 -1.6434 -1.9725
  153SAPE   O2116941   0.558   4.489   6.580 -0.0425 -0.2351  0.2121
  153SAPE   C2116942   0.603   4.413   6.688  0.1215  0.0295 -0.1593
  153SAPE   O2216943   0.697   4.335   6.683 -0.2135 -0.2383  0.1022
  153SAPE   C2216944   0.534   4.463   6.814  0.0055  0.2645  0.3433
  153SAPE   H2R16945   0.532   4.574   6.816  0.5843  0.3333 -1.3331
  153SAPE   H2S16946   0.431   4.422   6.813 -0.0454  0.3885  0.4529
  153SAPE    C316947   0.667   4.610   6.399  0.4392 -0.6130 -0.3777
  153SAPE    HX16948   0.571   4.649   6.360  2.1719  1.8989 -2.4398
  153SAPE    HY16949   0.724   4.583   6.308 -0.6631  0.3510 -1.3897
  153SAPE   O3116950   0.733   4.699   6.497  0.3302  0.3909 -0.4105
  153SAPE   C3116951   0.858   4.708   6.474 -0.0463  0.1018  0.3791
  153SAPE   O3216952   0.921   4.649   6.385  0.2953 -0.2150  0.4123
  153SAPE   C3216953   0.922   4.809   6.573 -0.4509 -0.3090 -0.1466
  153SAPE   H2X16954   0.845   4.874   6.620  0.4003 -0.3616  1.4001
  153SAPE   H2Y16955   0.992   4.878   6.522  1.1434 -0.9489  1.0719
  153SAPE   C2316956   0.607   4.405   6.945  0.1719  0.1986 -0.6509
  153SAPE   H3R16957   0.704   4.453   6.970 -0.1616 -0.3916  2.1535
  153SAPE   H3S16958   0.621   4.295   6.935 -0.8198  0.1518 -1.8020
  153SAPE   C2416959   0.518   4.429   7.069 -0.8310 -0.4378 -0.0467
  153SAPE   H4R16960   0.423   4.381   7.039 -0.1039 -0.5313 -2.4442
  153SAPE   H4S16961   0.494   4.534   7.096 -0.2989 -0.0874 -0.8801
  153SAPE   C2516962   0.590   4.385   7.196  0.1160  0.7139  0.1659
  153SAPE   H5R16963   0.681   4.442   7.216  0.9748 -0.3965 -0.4655
  153SAPE   C2616964   0.561   4.280   7.274 -0.4835  0.2984  0.0359
  153SAPE   H6R16965   0.602   4.281   7.376 -0.0920  1.8548 -0.1157
  153SAPE   C2716966   0.450   4.182   7.247 -0.6222  0.3987  0.3103
  153SAPE   H7R16967   0.438   4.160   7.139 -2.1628  2.4079  0.0046
  153SAPE   H7S16968   0.355   4.236   7.271 -0.7527  0.3613 -0.1066
  153SAPE   C2816969   0.469   4.046   7.309  0.5742 -0.7210 -0.2724
  153SAPE   H8R16970   0.547   3.990   7.255 -0.9264 -0.5808 -2.7277
  153SAPE   C2916971   0.421   4.004   7.432  0.5601  0.2487 -0.0922
  153SAPE   H9R16972   0.450   3.906   7.473  0.0997  0.4418  0.7010
  153SAPE  C21016973   0.320   4.065   7.522 -0.3009 -0.7926  0.4580
  153SAPE  H10R16974   0.244   4.127   7.470  0.2577 -0.1624  0.3783
  153SAPE  H10S16975   0.358   4.126   7.607 -0.9131  0.8972 -0.4282
  153SAPE  C21116976   0.243   3.956   7.577 -0.0034  0.5634 -1.2159
  153SAPE  H11R16977   0.155   3.915   7.526 -0.6086 -0.2224  0.3796
  153SAPE  C21216978   0.252   3.914   7.710  0.1584 -0.1884  0.1747
  153SAPE  H12R16979   0.183   3.835   7.743 -0.0168 -0.2806 -0.3981
  153SAPE  C21316980   0.332   3.969   7.827 -0.0596  0.4637 -0.3038
  153SAPE  H13R16981   0.277   4.060   7.857 -0.3048  0.0739  0.4747
  153SAPE  H13S16982   0.433   3.996   7.789  0.0540  1.2820  0.5434
  153SAPE  C21416983   0.351   3.881   7.948 -0.2844 -0.5170 -0.3856
  153SAPE  H14R16984   0.313   3.916   8.045  0.5522  1.9444 -0.8668
  153SAPE  C21516985   0.418   3.769   7.963  0.2407  0.8339 -0.0646
  153SAPE  H15R16986   0.405   3.717   8.060 -0.7392 -0.0012 -0.6204
  153SAPE  C21616987   0.490   3.695   7.855 -0.0332 -0.0307  0.6355
  153SAPE  H16R16988   0.598   3.687   7.879  0.4867  1.2621 -1.0293
  153SAPE  H16S16989   0.489   3.755   7.761 -0.9929  0.3132  0.8553
  153SAPE  C21716990   0.406   3.568   7.828 -0.0353  0.4004 -0.3091
  153SAPE  H17R16991   0.426   3.534   7.724 -1.4774  0.0699 -0.4980
  153SAPE  H17S16992   0.300   3.600   7.832  0.1015  0.7449  0.9444
  153SAPE  C21816993   0.434   3.458   7.937  0.0027  0.0182  1.1176
  153SAPE  H18R16994   0.382   3.487   8.031 -0.2407  0.6160  0.7982
  153SAPE  H18S16995   0.543   3.460   7.955  0.0476  0.0438  0.8479
  153SAPE  C21916996   0.377   3.324   7.906  0.0172  0.2249 -0.3255
  153SAPE  H19R16997   0.434   3.283   7.820 -0.5178 -2.4916  0.5116
  153SAPE  H19S16998   0.275   3.326   7.861  0.2333  4.1387 -1.0115
  153SAPE  C22016999   0.379   3.225   8.022 -0.3662  0.1172 -0.1155
  153SAPE  H20R17000   0.485   3.203   8.048  0.3053  1.4122 -1.5776
  153SAPE  H20S17001   0.342   3.124   7.994  2.7481 -1.4213  0.8587
  153SAPE  H20T17002   0.322   3.264   8.109 -0.1595 -1.0515  0.5716
  153SAPE   C3317003   0.995   4.737   6.687 -0.2795  0.0651  0.1309
  153SAPE   H3X17004   1.047   4.811   6.752  0.3225 -1.1268  1.0359
  153SAPE   H3Y17005   1.072   4.669   6.645  0.6317  0.2387  1.4906
  153SAPE   C3417006   0.897   4.665   6.786  0.4413 -0.6959 -0.3195
  153SAPE   H4X17007   0.875   4.574   6.725 -0.2413 -1.3187  0.8265
  153SAPE   H4Y17008   0.808   4.730   6.797 -1.1490 -2.4242 -2.1582
  153SAPE   C3517009   0.950   4.630   6.924 -0.2602 -0.0968  0.3282
  153SAPE   H5X17010   1.061   4.638   6.931 -0.2047  1.1252 -1.4148
  153SAPE   H5Y17011   0.914   4.525   6.938  0.1171 -0.2860 -0.1003
  153SAPE   C3617012   0.882   4.712   7.040  0.6739 -0.3013  0.9202
  153SAPE   H6X17013   0.782   4.666   7.055  0.6124 -1.0974 -1.3693
  153SAPE   H6Y17014   0.861   4.812   6.996  0.4241 -0.2280  1.2120
  153SAPE   C3717015   0.971   4.704   7.164 -0.2210  0.1993  0.9880
  153SAPE   H7X17016   0.929   4.758   7.252  0.5591 -0.2117  1.6335
  153SAPE   H7Y17017   1.060   4.760   7.129 -0.3508  0.0114  0.3486
  153SAPE   C3817018   0.999   4.567   7.219  0.2227 -0.2668  0.0407
  153SAPE   H8X17019   1.043   4.505   7.139 -1.8874  0.3479 -1.6752
  153SAPE   H8Y17020   0.902   4.523   7.250  1.1310 -2.0424  0.5287
  153SAPE   C3917021   1.117   4.590   7.327  0.5250  1.3403 -0.1193
  153SAPE   H9X17022   1.103   4.682   7.388  0.6986  1.6765 -0.5716
  153SAPE   H9Y17023   1.207   4.605   7.263  0.3147  1.3614 -0.4134
  153SAPE  C31017024   1.150   4.465   7.410 -0.0698  0.1889 -0.0042
  153SAPE  H10X17025   1.156   4.375   7.346 -0.8638 -0.2698  0.5519
  153SAPE  H10Y17026   1.063   4.441   7.474 -0.4026 -0.1940 -0.5936
  153SAPE  C31117027   1.279   4.480   7.504 -0.1981 -0.2698  0.4967
  153SAPE  H11X17028   1.274   4.576   7.559 -0.3181  1.5720 -2.5231
  153SAPE  H11Y17029   1.361   4.501   7.433 -0.1209  1.2118  1.0045
  153SAPE  C31217030   1.316   4.357   7.585 -0.5216 -0.4434  0.2555
  153SAPE  H12X17031   1.422   4.375   7.614 -0.5287  2.3094 -1.1390
  153SAPE  H12Y17032   1.329   4.268   7.519  2.9592 -0.2421  0.4642
  153SAPE  C31317033   1.227   4.337   7.713  0.1462  0.6639 -0.1948
  153SAPE  H13X17034   1.126   4.298   7.689 -0.8541  1.9103  1.6809
  153SAPE  H13Y17035   1.220   4.440   7.756  0.0386  0.8035 -0.5425
  153SAPE  C31417036   1.287   4.248   7.821  0.6172 -0.1086 -0.3064
  153SAPE  H14X17037   1.386   4.292   7.843  1.6598 -1.8682 -1.2051
  153SAPE  H14Y17038   1.310   4.145   7.786  0.0941  0.1779 -1.5871
  153SAPE  C31517039   1.206   4.231   7.951 -0.0879 -0.1530  0.1654
  153SAPE  H15X17040   1.099   4.213   7.929 -0.7734  0.1438  2.9299
  153SAPE  H15Y17041   1.205   4.324   8.013  2.6353  0.7929 -1.0468
  153SAPE  C31617042   1.251   4.101   8.035 -0.4272  0.1057  0.7896
  153SAPE  H16X17043   1.257   4.010   7.971  0.8062  1.4932 -1.1895
  153SAPE  H16Y17044   1.176   4.088   8.116 -1.8710  1.7071 -0.2454
  153SAPE  C31717045   1.395   4.110   8.087 -0.4505  0.1738  0.3756
  153SAPE  H17X17046   1.399   4.212   8.132 -2.0844  0.0015  0.9834
  153SAPE  H17Y17047   1.455   4.107   7.994 -0.8381  0.2464  0.1197
  153SAPE  C31817048   1.437   4.012   8.197  0.7106  0.0832 -0.1134
  153SAPE  H18X17049   1.368   4.025   8.284  1.3218  1.9285  0.1217
  153SAPE  H18Y17050   1.541   4.028   8.232  1.1854 -1.5010 -0.7209
  153SAPE  H18Z17051   1.436   3.904   8.170 -2.6127 -0.0975  0.2183
  154SAPE     N17052   4.211   3.604   5.842 -0.3508 -0.3031  0.9302
  154SAPE   HN117053   4.160   3.611   5.751  0.6924 -1.3644  0.2355
  154SAPE   HN217054   4.307   3.638   5.823 -0.7893  0.3856 -0.1701
  154SAPE   HN317055   4.200   3.504   5.869  1.3444 -0.8478 -0.2361
  154SAPE   C1217056   4.148   3.690   5.946 -0.8072 -1.0803  0.0320
  154SAPE  H12A17057   4.043   3.657   5.959 -1.0509 -1.2707 -2.1949
  154SAPE  H12B17058   4.141   3.792   5.902  0.3912 -1.4663 -1.1101
  154SAPE   C1117059   4.219   3.684   6.091 -0.1326 -0.4854  0.1237
  154SAPE  H11A17060   4.165   3.762   6.151 -0.5516 -1.0576  0.5058
  154SAPE  H11B17061   4.326   3.708   6.074  0.1218 -1.7783 -0.1864
  154SAPE     P17062   4.314   3.508   6.253 -0.2384  0.1399  0.3089
  154SAPE   O1317063   4.282   3.374   6.304  1.0429 -0.3320 -0.6257
  154SAPE   O1417064   4.441   3.525   6.178 -0.1182 -0.1365  0.6142
  154SAPE   O1217065   4.201   3.558   6.155  0.0587  0.4481 -0.3309
  154SAPE   O1117066   4.311   3.623   6.368 -0.1947  0.0297  0.1802
  154SAPE    C117067   4.199   3.626   6.458 -0.3208  0.5734 -0.5176
  154SAPE    HA17068   4.102   3.631   6.405 -0.1759  1.4344 -0.7137
  154SAPE    HB17069   4.194   3.536   6.523  0.1583  0.4456 -0.6493
  154SAPE    C217070   4.203   3.744   6.560  0.7311  0.1148  0.2066
  154SAPE    HS17071   4.191   3.836   6.498  1.0588 -0.1572 -0.2628
  154SAPE   O2117072   4.330   3.744   6.621 -0.2278  0.5498 -0.1295
  154SAPE   C2117073   4.386   3.861   6.653  0.0313  0.3782 -0.1187
  154SAPE   O2217074   4.339   3.968   6.630  0.7552  0.2127  0.6738
  154SAPE   C2217075   4.520   3.838   6.722  0.1182 -1.0816  1.0205
  154SAPE   H2R17076   4.577   3.765   6.661  0.0438 -0.1660 -0.1711
  154SAPE   H2S17077   4.564   3.940   6.727  0.9339 -1.3765  0.0002
  154SAPE    C317078   4.087   3.744   6.660  0.6297  0.7412 -0.0769
  154SAPE    HX17079   4.050   3.642   6.682  0.5892  0.4006 -1.6163
  154SAPE    HY17080   4.000   3.786   6.605 -0.9221 -1.5396  0.4915
  154SAPE   O3117081   4.121   3.817   6.783 -0.5134  0.6735  0.1841
  154SAPE   C3117082   4.071   3.940   6.787 -0.9654 -0.0677 -0.7032
  154SAPE   O3217083   4.007   3.992   6.699  0.0659 -0.3006  0.5034
  154SAPE   C3217084   4.116   4.007   6.924  0.4881  0.1297  0.7106
  154SAPE   H2X17085   4.197   4.078   6.898 -2.2335  2.9390 -0.6739
  154SAPE   H2Y17086   4.143   3.919   6.986  0.2314 -0.7485 -0.3757
  154SAPE   C2317087   4.496   3.777   6.854 -0.4364 -0.4526  0.3568
  154SAPE   H3R17088   4.593   3.725   6.872 -0.1826  0.3651  1.4951
  154SAPE   H3S17089   4.410   3.707   6.848 -0.8839  0.0292  0.9639
  154SAPE   C2417090   4.475   3.880   6.976 -0.0458  0.1711 -0.2559
  154SAPE   H4R17091   4.422   3.819   7.052  0.6784 -0.6253 -0.3826
  154SAPE   H4S17092   4.394   3.950   6.946  0.2432  1.1226  1.1069
  154SAPE   C2517093   4.594   3.931   7.052  0.0821  0.0805  0.2804
  154SAPE   H5R17094   4.678   3.962   6.987 -0.3858 -0.4085 -0.5666
  154SAPE   C2617095   4.596   3.961   7.184  0.0374  0.0750 -0.9389
  154SAPE   H6R17096   4.690   4.003   7.222 -2.3663  3.0202  2.4183
  154SAPE   C2717097   4.503   3.951   7.295  0.2040  0.3027 -0.0615
  154SAPE   H7R17098   4.517   3.856   7.351 -0.6660 -0.8713 -1.7739
  154SAPE   H7S17099   4.398   3.942   7.260 -0.4389  1.0440  1.5536
  154SAPE   C2817100   4.499   4.073   7.391  0.0279 -0.7202  0.2939
  154SAPE   H8R17101   4.486   4.168   7.338  1.0577  0.3551  1.9096
  154SAPE   C2917102   4.512   4.074   7.526  0.0246 -0.2673 -0.2967
  154SAPE   H9R17103   4.500   4.166   7.585  0.5914 -2.6827  3.9316
  154SAPE  C21017104   4.532   3.949   7.613  0.6762  0.8973  0.7089
  154SAPE  H10R17105   4.613   3.890   7.566  0.8699 -0.9173  3.1794
  154SAPE  H10S17106   4.437   3.891   7.611  1.5674 -0.5751  0.1445
  154SAPE  C21117107   4.572   3.976   7.756  0.0459  0.2319 -0.6491
  154SAPE  H11R17108   4.619   4.071   7.787  2.3054 -0.6968 -1.0226
  154SAPE  C21217109   4.559   3.892   7.862 -0.7677 -0.5091 -0.0437
  154SAPE  H12R17110   4.587   3.920   7.964 -0.5958  2.0870 -0.7298
  154SAPE  C21317111   4.516   3.749   7.869  0.3875 -0.0331  0.2486
  154SAPE  H13R17112   4.590   3.687   7.925  0.6642  0.6581  0.6615
  154SAPE  H13S17113   4.510   3.706   7.767 -1.0363  0.9673 -0.1192
  154SAPE  C21417114   4.379   3.740   7.924  0.2473 -0.3733 -0.2268
  154SAPE  H14R17115   4.295   3.772   7.861  0.8551  0.1031 -0.8068
  154SAPE  C21517116   4.345   3.716   8.054  0.0970 -0.1966  0.3461
  154SAPE  H15R17117   4.242   3.726   8.093 -0.6194 -0.8169 -1.2768
  154SAPE  C21617118   4.450   3.673   8.147  0.2415 -0.2802 -0.1456
  154SAPE  H16R17119   4.429   3.702   8.252  0.4672 -0.1058 -0.1470
  154SAPE  H16S17120   4.541   3.733   8.126 -0.7591  1.6924  0.8839
  154SAPE  C21717121   4.491   3.522   8.145  0.0229 -0.2593  0.0087
  154SAPE  H17R17122   4.521   3.495   8.041 -0.3878  0.0590 -0.1926
  154SAPE  H17S17123   4.415   3.453   8.187  0.7933 -0.0219  1.9134
  154SAPE  C21817124   4.616   3.486   8.228 -0.2347  0.0682  0.0716
  154SAPE  H18R17125   4.640   3.377   8.231  0.5489  0.1864 -1.1807
  154SAPE  H18S17126   4.597   3.511   8.335  0.1429 -2.7791  0.8849
  154SAPE  C21917127   4.739   3.566   8.171 -0.1143  0.0933  0.5935
  154SAPE  H19R17128   4.753   3.665   8.219  2.4162 -0.1137  0.4444
  154SAPE  H19S17129   4.720   3.587   8.063 -1.0494 -0.3335  0.6630
  154SAPE  C22017130   4.867   3.489   8.174  0.4361  0.1799  0.0872
  154SAPE  H20R17131   4.853   3.393   8.120  1.0163 -0.8454  1.7003
  154SAPE  H20S17132   4.891   3.471   8.281  1.4772 -0.0411 -0.1697
  154SAPE  H20T17133   4.946   3.550   8.125  0.3185 -0.7831 -1.3723
  154SAPE   C3317134   4.002   4.090   6.973 -0.1251  0.1422 -0.4869
  154SAPE   H3X17135   3.907   4.042   6.942 -0.4188  0.0745  0.4923
  154SAPE   H3Y17136   4.008   4.190   6.926  0.8429 -0.1322 -0.9724
  154SAPE   C3417137   4.002   4.116   7.127 -0.1053  0.4945 -0.5447
  154SAPE   H4X17138   3.929   4.194   7.155 -0.6692 -0.4243  0.6421
  154SAPE   H4Y17139   4.106   4.150   7.147 -0.3108  0.4995  0.5543
  154SAPE   C3517140   3.965   3.991   7.213 -0.4133 -0.0211 -0.2120
  154SAPE   H5X17141   4.016   3.904   7.165  2.5205  0.4936  1.6897
  154SAPE   H5Y17142   3.854   3.986   7.215 -0.5099  1.0851 -1.6388
  154SAPE   C3617143   4.021   3.986   7.357  0.3819  0.2723  0.4583
  154SAPE   H6X17144   3.987   4.078   7.410  0.9020  0.3265  0.7057
  154SAPE   H6Y17145   4.131   3.973   7.352  0.2114 -0.8075 -1.9109
  154SAPE   C3717146   3.963   3.858   7.427  0.0523  0.1036 -0.1955
  154SAPE   H7X17147   3.989   3.772   7.362  1.5717 -0.3374  0.9484
  154SAPE   H7Y17148   3.854   3.878   7.415  0.0375  1.4564  1.7587
  154SAPE   C3817149   3.990   3.836   7.574 -0.1793  0.4783 -0.4979
  154SAPE   H8X17150   3.944   3.918   7.634 -0.0509  0.7568 -0.7783
  154SAPE   H8Y17151   4.100   3.844   7.580 -0.2651  1.5415 -0.1556
  154SAPE   C3917152   3.910   3.707   7.618 -1.1332  0.1618  0.1074
  154SAPE   H9X17153   3.942   3.618   7.560 -2.2023 -0.8408  1.0065
  154SAPE   H9Y17154   3.801   3.723   7.601 -1.3404 -1.5646 -0.3029
  154SAPE  C31017155   3.933   3.672   7.766  0.3401  0.2185 -0.3526
  154SAPE  H10X17156   3.891   3.754   7.829 -1.6292  1.7915 -3.4754
  154SAPE  H10Y17157   4.042   3.670   7.787  0.3956  3.7617  0.2650
  154SAPE  C31117158   3.868   3.539   7.802  0.6282  1.6082  0.2298
  154SAPE  H11X17159   3.935   3.454   7.779  0.3385  1.4412 -0.0000
  154SAPE  H11Y17160   3.778   3.522   7.740  1.3598  2.7709 -1.2184
  154SAPE  C31217161   3.839   3.526   7.956 -0.1938 -0.8529  0.2924
  154SAPE  H12X17162   3.795   3.428   7.983 -1.5715  0.1131  1.8034
  154SAPE  H12Y17163   3.760   3.603   7.973  0.4000  0.0450 -0.8988
  154SAPE  C31317164   3.956   3.569   8.053 -0.0765  0.2800  0.0572
  154SAPE  H13X17165   3.980   3.675   8.028 -1.6880  1.0339  1.4442
  154SAPE  H13Y17166   4.044   3.504   8.038  1.0105  1.0152  2.6672
  154SAPE  C31417167   3.922   3.549   8.200  0.0782 -0.4145 -0.5041
  154SAPE  H14X17168   3.907   3.439   8.209 -0.9446 -0.2259  0.2194
  154SAPE  H14Y17169   3.832   3.605   8.231  0.7856  0.9612 -0.8466
  154SAPE  C31517170   4.032   3.588   8.305  0.0275  0.1010  0.7912
  154SAPE  H15X17171   4.061   3.693   8.284  2.1948 -0.6479 -0.3484
  154SAPE  H15Y17172   4.128   3.545   8.268  0.9140  0.3450  2.6871
  154SAPE  C31617173   4.017   3.575   8.456  0.5474 -1.2080  0.3309
  154SAPE  H16X17174   3.972   3.474   8.460 -0.8813 -0.6233 -0.4862
  154SAPE  H16Y17175   3.947   3.654   8.489  1.9863  0.8444 -1.2085
  154SAPE  C31717176   4.153   3.586   8.526  0.0450  0.1704 -0.1720
  154SAPE  H17X17177   4.170   3.690   8.562 -0.8206  0.0490  0.6202
  154SAPE  H17Y17178   4.235   3.567   8.452 -0.8848  1.5522 -1.6179
  154SAPE  C31817179   4.173   3.478   8.634 -0.0919  0.4146  0.1180
  154SAPE  H18X17180   4.278   3.489   8.669 -0.2354 -0.4719  0.8610
  154SAPE  H18Y17181   4.177   3.379   8.582  1.6148  0.3687  0.2725
  154SAPE  H18Z17182   4.094   3.487   8.711 -0.5059 -0.8787 -0.1249
  155SAPE     N17183   5.772   4.278   5.946 -0.1084  0.0181  0.6747
  155SAPE   HN117184   5.674   4.250   5.923 -0.1015 -0.7901  1.5613
  155SAPE   HN217185   5.806   4.332   5.863 -1.3087  1.7859  1.2684
  155SAPE   HN317186   5.821   4.187   5.955 -2.6337 -1.5188  0.0958
  155SAPE   C1217187   5.798   4.369   6.060 -0.1159  0.0605  0.3327
  155SAPE  H12A17188   5.734   4.459   6.045  0.3709  0.7781  2.3274
  155SAPE  H12B17189   5.909   4.376   6.062 -0.0116 -1.3337  0.5713
  155SAPE   C1117190   5.765   4.305   6.195 -0.1998 -0.1762 -0.6662
  155SAPE  H11A17191   5.788   4.386   6.269  0.7847 -1.1396  0.1103
  155SAPE  H11B17192   5.845   4.232   6.217 -0.7563 -1.3008 -2.2384
  155SAPE     P17193   5.556   4.228   6.351 -0.0643 -0.3485  0.5673
  155SAPE   O1317194   5.410   4.238   6.323 -0.1924 -0.4636  0.5466
  155SAPE   O1417195   5.605   4.098   6.398  0.6897 -0.2194 -0.0020
  155SAPE   O1217196   5.632   4.257   6.211 -0.5226 -0.0541 -0.0888
  155SAPE   O1117197   5.614   4.338   6.453 -0.0316  0.3697  0.3439
  155SAPE    C117198   5.582   4.473   6.468  0.8233 -0.6764 -0.9572
  155SAPE    HA17199   5.645   4.538   6.405 -0.7229  0.5559 -1.2916
  155SAPE    HB17200   5.476   4.492   6.440  0.4135 -1.6037 -0.1223
  155SAPE    C217201   5.604   4.538   6.615  0.4372  0.5345 -0.1972
  155SAPE    HS17202   5.586   4.647   6.604  3.1371  1.0540 -0.1706
  155SAPE   O2117203   5.741   4.524   6.656 -0.0650  0.1560 -0.1268
  155SAPE   C2117204   5.827   4.606   6.609  0.2408  0.3188 -0.0587
  155SAPE   O2217205   5.812   4.703   6.538 -0.2319 -0.2795  0.1954
  155SAPE   C2217206   5.966   4.547   6.643  0.3670 -0.0859  0.2295
  155SAPE   H2R17207   5.959   4.459   6.711 -0.9880 -0.8418 -0.8260
  155SAPE   H2S17208   6.005   4.516   6.544  1.7011 -2.0371  1.2833
  155SAPE    C317209   5.516   4.464   6.719  0.2437  0.0063 -0.5723
  155SAPE    HX17210   5.516   4.355   6.695  2.7738 -0.5711  1.5230
  155SAPE    HY17211   5.409   4.492   6.706 -0.5166 -2.2739  0.2455
  155SAPE   O3117212   5.562   4.479   6.858 -0.0648 -0.2703  0.4578
  155SAPE   C3117213   5.496   4.585   6.917  0.1631 -0.0244  0.2969
  155SAPE   O3217214   5.415   4.655   6.862  0.3087  0.3103  0.3688
  155SAPE   C3217215   5.549   4.583   7.062 -0.2622 -0.6267  0.3215
  155SAPE   H2X17216   5.660   4.595   7.055 -0.1044  0.4582  3.2703
  155SAPE   H2Y17217   5.512   4.487   7.103 -0.9582 -1.0209 -1.1558
  155SAPE   C2317218   6.051   4.660   6.709  0.5265  0.0993 -0.3532
  155SAPE   H3R17219   6.055   4.744   6.637  1.5934  0.1349 -0.2664
  155SAPE   H3S17220   6.149   4.607   6.707  0.3652 -0.2263  0.2275
  155SAPE   C2417221   6.004   4.686   6.852 -0.3143 -0.4911 -0.5223
  155SAPE   H4R17222   6.007   4.592   6.911 -1.7801 -0.3158 -0.1379
  155SAPE   H4S17223   5.896   4.712   6.858  0.0047  1.5483 -2.4493
  155SAPE   C2517224   6.090   4.802   6.900 -0.1289  0.2303  0.1798
  155SAPE   H5R17225   6.121   4.881   6.830  0.0303  1.4674  1.6070
  155SAPE   C2617226   6.128   4.817   7.024  0.2687 -0.0011 -0.0702
  155SAPE   H6R17227   6.170   4.917   7.045 -2.0152  1.0735 -0.2720
  155SAPE   C2717228   6.093   4.729   7.141 -1.0651  0.1677 -0.0763
  155SAPE   H7R17229   6.074   4.628   7.099  2.4677 -1.6520  2.2053
  155SAPE   H7S17230   6.010   4.766   7.204 -1.9739  0.7848 -1.5711
  155SAPE   C2817231   6.217   4.708   7.225 -0.5070 -0.4712  0.5766
  155SAPE   H8R17232   6.273   4.623   7.182  0.2115  0.4938 -0.4336
  155SAPE   C2917233   6.254   4.782   7.332  0.4817 -0.8220 -0.1366
  155SAPE   H9R17234   6.345   4.752   7.385 -0.9796 -0.2404  2.8820
  155SAPE  C21017235   6.178   4.902   7.386  0.2166 -0.3623 -0.3508
  155SAPE  H10R17236   6.124   4.948   7.301  1.5939 -0.1153 -1.1253
  155SAPE  H10S17237   6.252   4.971   7.431 -1.1202  0.6405  0.3750
  155SAPE  C21117238   6.081   4.857   7.496 -0.2015 -0.1151  0.1371
  155SAPE  H11R17239   5.990   4.811   7.454  0.1659  1.3859 -2.5696
  155SAPE  C21217240   6.107   4.854   7.631 -0.3046 -0.4581 -0.0135
  155SAPE  H12R17241   6.028   4.818   7.698  0.0419  0.0469  0.6676
  155SAPE  C21317242   6.231   4.902   7.713 -0.3152 -0.1773 -0.2801
  155SAPE  H13R17243   6.306   4.949   7.646  1.5234 -0.4932  1.4542
  155SAPE  H13S17244   6.277   4.806   7.746 -0.9920 -0.2250  0.5721
  155SAPE  C21417245   6.194   5.003   7.816 -0.1210  0.2666 -0.1381
  155SAPE  H14R17246   6.181   5.106   7.780  0.5471  1.2461  2.2328
  155SAPE  C21517247   6.180   4.975   7.945  0.3761 -0.2458  0.1284
  155SAPE  H15R17248   6.148   5.056   8.013 -2.9809 -0.8614 -0.5028
  155SAPE  C21617249   6.196   4.834   8.009 -0.4273  0.1479  0.7922
  155SAPE  H16R17250   6.253   4.844   8.103  1.1371 -0.3014 -0.0597
  155SAPE  H16S17251   6.260   4.768   7.945  0.5096 -0.0642  1.9178
  155SAPE  C21717252   6.061   4.756   8.025  0.5513 -0.7208 -0.4851
  155SAPE  H17R17253   6.022   4.704   7.935 -2.2819  2.2919 -1.2034
  155SAPE  H17S17254   5.986   4.836   8.043 -1.1740 -1.9069 -2.0125
  155SAPE  C21817255   6.065   4.671   8.155 -0.4380  0.4110 -0.0078
  155SAPE  H18R17256   6.104   4.731   8.240 -1.0788  0.9233 -0.0689
  155SAPE  H18S17257   6.135   4.586   8.140 -3.6429 -2.2979 -0.8855
  155SAPE  C21917258   5.932   4.619   8.202  0.0215  0.0462 -0.2978
  155SAPE  H19R17259   5.903   4.533   8.138  2.0801  0.4079 -1.8255
  155SAPE  H19S17260   5.858   4.701   8.189  0.1478  0.2225  0.0579
  155SAPE  C22017261   5.929   4.586   8.353 -0.5174 -0.5874  0.4985
  155SAPE  H20R17262   6.003   4.506   8.377  0.8034  0.7569  1.0212
  155SAPE  H20S17263   5.834   4.540   8.388  0.1329 -0.0220  3.2400
  155SAPE  H20T17264   5.952   4.669   8.423  1.9490 -1.2138  0.5004
  155SAPE   C3317265   5.508   4.704   7.154 -0.0709  0.0327  0.8295
  155SAPE   H3X17266   5.398   4.708   7.168  0.0045 -0.3779  1.6192
  155SAPE   H3Y17267   5.540   4.797   7.102 -2.7384 -0.0419 -1.1572
  155SAPE   C3417268   5.570   4.709   7.298 -0.2037  0.5897  0.2155
  155SAPE   H4X17269   5.523   4.802   7.335 -2.4930  0.2556 -1.6509
  155SAPE   H4Y17270   5.680   4.717   7.286 -0.3924  1.0097 -1.3730
  155SAPE   C3517271   5.525   4.598   7.394 -0.0990  0.0395  0.3971
  155SAPE   H5X17272   5.532   4.506   7.332 -0.0761  0.1003  0.3094
  155SAPE   H5Y17273   5.421   4.615   7.428 -0.4678 -0.8208 -0.2598
  155SAPE   C3617274   5.621   4.590   7.515  0.9470 -0.4642  0.0864
  155SAPE   H6X17275   5.725   4.578   7.478  0.7400 -0.7951 -0.4050
  155SAPE   H6Y17276   5.610   4.495   7.572  1.9133  0.7848  2.4833
  155SAPE   C3717277   5.612   4.710   7.605  0.0747  1.4688 -0.1405
  155SAPE   H7X17278   5.505   4.723   7.631  0.1487 -0.5617  1.4380
  155SAPE   H7Y17279   5.647   4.806   7.561  3.3998 -1.2464 -4.2189
  155SAPE   C3817280   5.675   4.688   7.737 -0.2574  0.5179 -0.2328
  155SAPE   H8X17281   5.679   4.776   7.805  0.5156 -0.7007  1.3765
  155SAPE   H8Y17282   5.783   4.663   7.731 -0.7223 -2.1821  0.8989
  155SAPE   C3917283   5.604   4.579   7.825 -0.5773  0.0360  0.1873
  155SAPE   H9X17284   5.600   4.478   7.778  0.9757 -0.5875  1.2949
  155SAPE   H9Y17285   5.499   4.611   7.842  0.2068  2.2741  1.2622
  155SAPE  C31017286   5.676   4.547   7.964 -1.1097 -0.2130 -0.3244
  155SAPE  H10X17287   5.687   4.644   8.017 -0.6670 -0.8894  0.8555
  155SAPE  H10Y17288   5.770   4.493   7.941 -0.2281  1.2280 -0.1720
  155SAPE  C31117289   5.592   4.464   8.065  0.6229  0.0742  0.2089
  155SAPE  H11X17290   5.489   4.501   8.084  0.5973  1.0101 -1.5117
  155SAPE  H11Y17291   5.643   4.477   8.163 -0.2726  2.1208  0.4701
  155SAPE  C31217292   5.571   4.314   8.035 -0.0675 -0.4605 -0.2765
  155SAPE  H12X17293   5.672   4.269   8.021  0.3044 -0.2239  1.3969
  155SAPE  H12Y17294   5.508   4.318   7.943 -2.8561 -0.5088  1.5130
  155SAPE  C31317295   5.497   4.229   8.137 -0.3438 -0.2010  0.2001
  155SAPE  H13X17296   5.478   4.123   8.111  1.3468 -0.2096 -1.1731
  155SAPE  H13Y17297   5.395   4.274   8.136  0.2591  1.2349 -1.2127
  155SAPE  C31417298   5.574   4.225   8.270 -1.1190  0.0410  0.6618
  155SAPE  H14X17299   5.635   4.316   8.288  1.3834 -1.5343  0.5325
  155SAPE  H14Y17300   5.650   4.147   8.252 -3.3866 -1.7626 -2.0229
  155SAPE  C31517301   5.496   4.188   8.388  0.2631  0.0832  0.1871
  155SAPE  H15X17302   5.492   4.077   8.389 -0.8395  0.1221  1.3018
  155SAPE  H15Y17303   5.393   4.226   8.371  0.8053  1.8842  0.6326
  155SAPE  C31617304   5.541   4.257   8.516  0.4713 -0.4073  0.4250
  155SAPE  H16X17305   5.652   4.254   8.519  0.5347 -0.0170 -0.9730
  155SAPE  H16Y17306   5.507   4.195   8.601 -2.0040  1.0651  0.6026
  155SAPE  C31717307   5.494   4.402   8.551 -0.0280 -0.2351  0.0907
  155SAPE  H17X17308   5.383   4.396   8.559 -0.0199 -0.1656  0.2664
  155SAPE  H17Y17309   5.532   4.474   8.476  2.3823 -0.6430  0.8266
  155SAPE  C31817310   5.560   4.450   8.684 -0.1147  0.4384 -0.1720
  155SAPE  H18X17311   5.670   4.445   8.670 -0.2307 -3.8257 -0.9575
  155SAPE  H18Y17312   5.523   4.374   8.756  1.5408 -1.6140 -1.3563
  155SAPE  H18Z17313   5.528   4.551   8.716 -0.4918  0.1289  0.4493
  156SAPE     N17314   2.847   5.095   6.660  0.0673  0.1749  0.3623
  156SAPE   HN117315   2.768   5.160   6.643 -1.4227 -2.0176 -1.7246
  156SAPE   HN217316   2.827   5.009   6.606 -0.8601  0.9706 -0.6007
  156SAPE   HN317317   2.833   5.064   6.758 -0.2947 -1.4183 -0.1629
  156SAPE   C1217318   2.977   5.148   6.617 -0.6557  0.2230  0.3954
  156SAPE  H12A17319   3.049   5.070   6.650  0.9381  1.8122  0.8070
  156SAPE  H12B17320   3.005   5.235   6.680  1.2232 -0.3401  0.4059
  156SAPE   C1117321   2.977   5.161   6.469  0.4076 -0.5506  0.0538
  156SAPE  H11A17322   2.930   5.073   6.419  0.8183  1.0449 -3.4927
  156SAPE  H11B17323   3.077   5.154   6.421 -0.0535 -3.0526 -0.6997
  156SAPE     P17324   2.754   5.282   6.381 -0.3444  0.3760 -0.0476
  156SAPE   O1317325   2.759   5.264   6.231  0.5582  0.1021 -0.5433
  156SAPE   O1417326   2.674   5.180   6.451  0.0977 -0.4012  0.6807
  156SAPE   O1217327   2.898   5.282   6.438 -0.7642  0.5102  0.0815
  156SAPE   O1117328   2.692   5.422   6.411  0.4786 -0.1906  0.4960
  156SAPE    C117329   2.758   5.534   6.464 -0.0132  0.1562 -0.0630
  156SAPE    HA17330   2.848   5.547   6.400  1.3054  1.6512  1.9919
  156SAPE    HB17331   2.696   5.625   6.453  0.4496  0.4095 -0.6602
  156SAPE    C217332   2.801   5.528   6.612 -0.4192 -0.0779 -0.3166
  156SAPE    HS17333   2.849   5.431   6.636 -1.1038 -0.1025  1.0724
  156SAPE   O2117334   2.688   5.548   6.695  0.0383 -0.2352  0.1028
  156SAPE   C2117335   2.639   5.447   6.744 -0.1095  0.6405  0.4335
  156SAPE   O2217336   2.676   5.328   6.737  0.0056 -0.5877 -0.3597
  156SAPE   C2217337   2.512   5.488   6.810  0.6645 -0.7189 -0.4374
  156SAPE   H2R17338   2.453   5.558   6.747  1.4558  0.1007 -0.2875
  156SAPE   H2S17339   2.453   5.395   6.827 -1.0534  0.1982 -1.1555
  156SAPE    C317340   2.909   5.630   6.652  0.1103 -0.0339  0.1092
  156SAPE    HX17341   2.854   5.726   6.649 -2.6783 -1.4858  0.9924
  156SAPE    HY17342   2.985   5.624   6.572 -1.0429 -2.3415 -0.9217
  156SAPE   O3117343   2.955   5.616   6.785 -0.4975  0.8640  0.1779
  156SAPE   C3117344   3.068   5.534   6.802  0.6214 -0.6619 -0.5764
  156SAPE   O3217345   3.123   5.471   6.718 -0.8602 -0.1597 -0.6098
  156SAPE   C3217346   3.111   5.535   6.952 -0.6102 -0.8170 -1.0063
  156SAPE   H2X17347   3.101   5.639   6.987  1.9401 -0.7568 -0.2636
  156SAPE   H2Y17348   3.215   5.497   6.952 -0.1653  0.3637 -0.9047
  156SAPE   C2317349   2.534   5.561   6.950  0.0736 -0.0349 -0.1102
  156SAPE   H3R17350   2.538   5.670   6.933 -0.8700 -0.1799 -1.4070
  156SAPE   H3S17351   2.629   5.524   6.994 -0.7649  0.0555  1.8699
  156SAPE   C2417352   2.425   5.523   7.054 -0.1825 -0.2512 -0.3962
  156SAPE   H4R17353   2.470   5.557   7.150 -2.3365  2.8666 -0.3569
  156SAPE   H4S17354   2.405   5.415   7.067 -0.0113 -0.1863  0.4705
  156SAPE   C2517355   2.295   5.601   7.037 -0.6473  0.2311 -0.1822
  156SAPE   H5R17356   2.310   5.701   6.995  0.8798  1.1297  2.2827
  156SAPE   C2617357   2.173   5.550   7.083  0.2987 -0.0089  0.4852
  156SAPE   H6R17358   2.081   5.602   7.050 -0.0341 -0.3220  0.9117
  156SAPE   C2717359   2.163   5.417   7.152 -0.0010  0.1668 -0.0414
  156SAPE   H7R17360   2.215   5.340   7.091 -0.8126  0.9515 -1.7955
  156SAPE   H7S17361   2.062   5.370   7.151  1.0422 -2.2439 -1.0745
  156SAPE   C2817362   2.232   5.408   7.285 -0.2453  0.5378  0.2775
  156SAPE   H8R17363   2.334   5.365   7.281  0.3478  1.8579  0.6837
  156SAPE   C2917364   2.188   5.457   7.403  0.1334  0.9014 -0.3844
  156SAPE   H9R17365   2.270   5.466   7.476  1.5605 -0.1786 -1.7858
  156SAPE  C21017366   2.057   5.530   7.420  0.2064  0.2129  0.0919
  156SAPE  H10R17367   1.989   5.468   7.483  2.1780 -1.4289  0.7183
  156SAPE  H10S17368   1.981   5.536   7.339  0.4019 -0.7367 -0.1751
  156SAPE  C21117369   2.075   5.668   7.488  0.4446 -0.1263 -0.0224
  156SAPE  H11R17370   2.142   5.732   7.430 -1.1359  0.9789 -0.6620
  156SAPE  C21217371   2.019   5.720   7.600 -0.0930  0.3166 -0.5462
  156SAPE  H12R17372   2.039   5.827   7.618  1.7609  0.0731 -0.8928
  156SAPE  C21317373   1.917   5.649   7.690  0.3604 -0.6381 -0.0615
  156SAPE  H13R17374   1.925   5.685   7.795 -0.4891 -2.2787  0.6010
  156SAPE  H13S17375   1.934   5.540   7.705 -1.0455 -0.9023 -0.2436
  156SAPE  C21417376   1.773   5.674   7.658  0.3562 -0.0276 -0.2042
  156SAPE  H14R17377   1.754   5.725   7.562 -0.3854 -1.0856 -0.6364
  156SAPE  C21517378   1.660   5.655   7.731  0.3566 -0.6244  0.2119
  156SAPE  H15R17379   1.560   5.683   7.695  0.6149  0.0039 -0.0318
  156SAPE  C21617380   1.656   5.599   7.870 -0.0446 -0.3774  0.3530
  156SAPE  H16R17381   1.735   5.520   7.876  3.4561  2.5082 -2.8920
  156SAPE  H16S17382   1.554   5.557   7.876 -0.7974  1.3636  0.2581
  156SAPE  C21717383   1.679   5.705   7.976  0.2286  0.1879 -0.0170
  156SAPE  H17R17384   1.620   5.794   7.945  3.0483  1.8495 -0.9938
  156SAPE  H17S17385   1.783   5.742   7.968  1.2523 -2.4517 -0.0210
  156SAPE  C21817386   1.645   5.663   8.127 -0.7140 -0.2899  0.1600
  156SAPE  H18R17387   1.540   5.628   8.128 -1.5960  2.2131  1.8409
  156SAPE  H18S17388   1.652   5.754   8.190 -0.9454 -0.0910 -0.1011
  156SAPE  C21917389   1.747   5.555   8.169  0.9093 -0.3685  0.0434
  156SAPE  H19R17390   1.849   5.595   8.152 -0.1735  1.3330 -3.4450
  156SAPE  H19S17391   1.739   5.467   8.101 -1.6958  0.4054 -0.7561
  156SAPE  C22017392   1.704   5.509   8.310 -0.1163  0.4966  0.5794
  156SAPE  H20R17393   1.770   5.553   8.387 -0.1834  1.0091  0.3533
  156SAPE  H20S17394   1.707   5.398   8.304 -0.6354  0.5138 -0.1977
  156SAPE  H20T17395   1.602   5.544   8.336  0.1382  1.3457  0.4814
  156SAPE   C3317396   3.015   5.446   7.039  0.0898 -0.0096  0.0698
  156SAPE   H3X17397   3.050   5.342   7.026  0.6398  0.2819 -0.8549
  156SAPE   H3Y17398   2.916   5.440   6.988 -0.1924  0.5006  0.5373
  156SAPE   C3417399   3.007   5.478   7.187  0.2698 -0.3730  0.0786
  156SAPE   H4X17400   3.002   5.589   7.200  1.3395  0.1797 -3.2575
  156SAPE   H4Y17401   3.097   5.440   7.239  0.0819 -2.0306 -0.7615
  156SAPE   C3517402   2.888   5.410   7.260  0.4350  0.4442 -0.2493
  156SAPE   H5X17403   2.888   5.301   7.243 -0.1527  0.3338  0.3975
  156SAPE   H5Y17404   2.795   5.447   7.210  0.6904  0.8681 -0.4193
  156SAPE   C3617405   2.885   5.440   7.404 -0.0216 -0.0371 -0.2954
  156SAPE   H6X17406   2.848   5.545   7.403  0.2427  0.0559 -0.4143
  156SAPE   H6Y17407   2.987   5.427   7.445  0.3535 -1.4292 -1.5704
  156SAPE   C3717408   2.780   5.359   7.474  0.3700  0.2586 -0.0358
  156SAPE   H7X17409   2.821   5.256   7.472  2.1522  0.9441 -1.0232
  156SAPE   H7Y17410   2.687   5.359   7.413 -0.8336 -1.1165  1.6705
  156SAPE   C3817411   2.750   5.396   7.619 -0.3258 -0.0753  0.0445
  156SAPE   H8X17412   2.696   5.493   7.623 -0.9810 -0.3539 -1.4259
  156SAPE   H8Y17413   2.847   5.399   7.672  0.0922 -0.3429 -0.7056
  156SAPE   C3917414   2.655   5.291   7.690  0.1909  1.1129 -0.4426
  156SAPE   H9X17415   2.704   5.192   7.691  0.1805  1.1041 -0.8173
  156SAPE   H9Y17416   2.565   5.266   7.630  0.8121  1.7613 -1.6657
  156SAPE  C31017417   2.621   5.329   7.835 -0.0600 -0.6835 -0.4451
  156SAPE  H10X17418   2.689   5.410   7.870 -0.5571 -0.8683  1.0296
  156SAPE  H10Y17419   2.649   5.238   7.894 -1.8080 -1.0589 -0.1400
  156SAPE  C31117420   2.477   5.358   7.855 -0.2350 -0.3014 -0.7469
  156SAPE  H11X17421   2.412   5.272   7.825 -2.4216  0.9316  0.2065
  156SAPE  H11Y17422   2.428   5.434   7.790 -3.9178  0.9818  3.0766
  156SAPE  C31217423   2.456   5.396   7.998 -0.1140 -0.0714 -0.2628
  156SAPE  H12X17424   2.517   5.487   8.019 -0.1350 -0.0845 -0.1467
  156SAPE  H12Y17425   2.508   5.322   8.062 -1.1641 -0.9471 -0.3990
  156SAPE  C31317426   2.308   5.419   8.037 -0.2171  0.3601  0.0201
  156SAPE  H13X17427   2.257   5.324   8.011  2.3899 -0.6494 -1.8529
  156SAPE  H13Y17428   2.273   5.498   7.967  0.2165 -0.5659 -1.3032
  156SAPE  C31417429   2.284   5.464   8.186 -0.5364  0.5960 -0.1666
  156SAPE  H14X17430   2.355   5.547   8.208 -0.9110  0.6221  1.0357
  156SAPE  H14Y17431   2.320   5.377   8.246 -1.8164  0.1820  0.0392
  156SAPE  C31517432   2.132   5.488   8.224 -0.9931  0.3363  0.0602
  156SAPE  H15X17433   2.087   5.386   8.226 -0.3998 -0.0620 -2.6391
  156SAPE  H15Y17434   2.082   5.547   8.144 -0.2296  0.4719 -0.3236
  156SAPE  C31617435   2.099   5.546   8.367 -0.8310  0.3719 -0.1633
  156SAPE  H16X17436   1.991   5.551   8.394 -0.4388  0.3148  1.5260
  156SAPE  H16Y17437   2.133   5.652   8.373  0.9254 -0.1748  0.0021
  156SAPE  C31717438   2.177   5.473   8.481  0.1220 -0.3330 -0.0922
  156SAPE  H17X17439   2.168   5.529   8.576  1.7443  0.4403 -0.3512
  156SAPE  H17Y17440   2.286   5.465   8.464  0.1988 -0.5660  0.5006
  156SAPE  C31817441   2.134   5.330   8.501  0.4745  0.0245  0.1371
  156SAPE  H18X17442   2.030   5.335   8.539  1.5297  1.3673  3.1992
  156SAPE  H18Y17443   2.181   5.273   8.584 -1.6083 -3.0944 -0.6268
  156SAPE  H18Z17444   2.140   5.266   8.410  3.9040  1.8144 -1.0553
  157SAPE     N17445   0.721   6.206   5.790 -0.8993  0.1837  0.5184
  157SAPE   HN117446   0.695   6.288   5.732 -1.2480 -0.8574 -0.8705
  157SAPE   HN217447   0.822   6.188   5.774 -0.3012  3.7575 -0.5906
  157SAPE   HN317448   0.675   6.115   5.768  1.5294 -1.4799  1.7783
  157SAPE   C1217449   0.676   6.240   5.929  0.4148  0.1444  0.1162
  157SAPE  H12A17450   0.637   6.147   5.974  1.7866 -0.0750  0.9038
  157SAPE  H12B17451   0.601   6.322   5.920  1.7776  1.5602  1.2082
  157SAPE   C1117452   0.800   6.293   6.008  0.1111 -0.2787 -0.1145
  157SAPE  H11A17453   0.888   6.225   6.004  3.0649  3.2447 -0.5853
  157SAPE  H11B17454   0.770   6.300   6.115  1.4286  0.0259  0.2514
  157SAPE     P17455   0.797   6.558   6.004 -0.0995  0.1738 -0.7189
  157SAPE   O1317456   0.854   6.667   5.912 -0.3331 -0.6410 -0.0045
  157SAPE   O1417457   0.649   6.556   6.013 -0.0687 -0.9669 -0.0493
  157SAPE   O1217458   0.845   6.418   5.947  0.1284 -0.0432  0.9336
  157SAPE   O1117459   0.858   6.562   6.148 -0.0248 -0.6462 -0.4164
  157SAPE    C117460   0.998   6.552   6.159 -0.2342 -0.4797  0.6262
  157SAPE    HA17461   1.038   6.452   6.135  1.3779  0.2151  0.2860
  157SAPE    HB17462   1.051   6.627   6.096  1.3437  0.2554  2.7136
  157SAPE    C217463   1.037   6.599   6.296  0.6929  0.1275  0.3142
  157SAPE    HS17464   1.078   6.702   6.295  0.2819  0.3085  1.0718
  157SAPE   O2117465   1.144   6.517   6.342 -0.4722 -0.4778 -0.7755
  157SAPE   C2117466   1.256   6.523   6.273 -0.5277 -0.3597  0.7906
  157SAPE   O2217467   1.281   6.602   6.180  0.4151  0.2712 -0.1597
  157SAPE   C2217468   1.359   6.430   6.339 -0.3678 -0.5336  0.2801
  157SAPE   H2R17469   1.311   6.395   6.433 -1.6572  0.2612 -0.0482
  157SAPE   H2S17470   1.390   6.355   6.264  1.5107  0.3860  0.0939
  157SAPE    C317471   0.932   6.595   6.410 -0.2399  0.5546  0.1944
  157SAPE    HX17472   0.901   6.489   6.421  2.9189 -0.6580 -1.1363
  157SAPE    HY17473   0.852   6.661   6.372  0.7156  0.8747 -1.3767
  157SAPE   O3117474   0.982   6.644   6.533 -0.0871 -0.1929 -0.4891
  157SAPE   C3117475   0.976   6.773   6.538  0.3169  0.0965  0.7310
  157SAPE   O3217476   0.960   6.847   6.444 -0.7100  0.9551  0.4641
  157SAPE   C3217477   1.021   6.820   6.677  0.9165 -0.2280  0.0087
  157SAPE   H2X17478   1.004   6.930   6.684 -0.8779 -0.1785 -3.0428
  157SAPE   H2Y17479   1.130   6.805   6.691  0.6130 -1.6405  1.0371
  157SAPE   C2317480   1.484   6.504   6.384  0.5709  0.1722 -0.8242
  157SAPE   H3R17481   1.506   6.587   6.314  0.5140  0.2557 -0.7431
  157SAPE   H3S17482   1.569   6.432   6.385 -0.7821 -1.5201 -1.0418
  157SAPE   C2417483   1.472   6.577   6.526  0.2003  0.6506  0.6966
  157SAPE   H4R17484   1.381   6.642   6.526  1.3714  2.3632  0.1828
  157SAPE   H4S17485   1.554   6.652   6.518  0.4426  0.1827 -2.5601
  157SAPE   C2517486   1.485   6.481   6.637 -0.0620  0.7145  0.2613
  157SAPE   H5R17487   1.577   6.421   6.629  0.5636  1.4590  1.5853
  157SAPE   C2617488   1.407   6.462   6.743 -0.2054  0.6131 -0.2958
  157SAPE   H6R17489   1.449   6.394   6.819  1.2473  2.0652  0.2546
  157SAPE   C2717490   1.280   6.540   6.770  0.2406 -0.1481 -0.8877
  157SAPE   H7R17491   1.236   6.577   6.675 -0.5977  0.0666 -0.4157
  157SAPE   H7S17492   1.296   6.636   6.822 -2.1101  1.0232 -2.1774
  157SAPE   C2817493   1.182   6.464   6.853  0.4981 -0.4986  0.9079
  157SAPE   H8R17494   1.090   6.433   6.802 -0.0005  1.9250  0.1948
  157SAPE   C2917495   1.189   6.431   6.982 -0.2553 -0.0949  1.0165
  157SAPE   H9R17496   1.102   6.380   7.027 -0.0308 -0.3010  1.2272
  157SAPE  C21017497   1.300   6.472   7.074 -0.5876 -0.2615 -1.1133
  157SAPE  H10R17498   1.262   6.541   7.153  2.0534  0.7535 -0.6475
  157SAPE  H10S17499   1.383   6.527   7.026 -1.1563  0.7272 -0.9941
  157SAPE  C21117500   1.356   6.350   7.149 -0.0253  1.0636 -0.7852
  157SAPE  H11R17501   1.417   6.281   7.088  2.3505  1.6464  0.7657
  157SAPE  C21217502   1.333   6.308   7.276 -0.2365  0.3126  0.4356
  157SAPE  H12R17503   1.384   6.218   7.312  0.3888 -0.1953 -1.6248
  157SAPE  C21317504   1.252   6.387   7.375  0.0302 -0.2583  0.4810
  157SAPE  H13R17505   1.192   6.317   7.436 -1.5756  0.8398  0.2185
  157SAPE  H13S17506   1.173   6.441   7.318  0.6076  0.4165  0.3112
  157SAPE  C21417507   1.324   6.492   7.466  0.5576  0.9459 -0.9162
  157SAPE  H14R17508   1.434   6.485   7.472  0.3943 -1.6822  1.4088
  157SAPE  C21517509   1.261   6.570   7.553  0.0772 -0.5401 -0.0025
  157SAPE  H15R17510   1.309   6.656   7.601 -0.6137 -1.0833  1.7589
  157SAPE  C21617511   1.112   6.577   7.574 -1.5905  0.3736 -0.6783
  157SAPE  H16R17512   1.072   6.516   7.490  2.7487 -0.5423 -2.3767
  157SAPE  H16S17513   1.067   6.678   7.560  0.0804  1.5273  1.7022
  157SAPE  C21717514   1.059   6.518   7.712 -0.0357 -0.3104 -0.1810
  157SAPE  H17R17515   1.107   6.420   7.730  0.1839 -0.1114  0.3229
  157SAPE  H17S17516   0.953   6.508   7.682  0.4856 -0.4069 -2.1412
  157SAPE  C21817517   1.071   6.609   7.828 -0.1969 -0.2520  0.1374
  157SAPE  H18R17518   1.009   6.696   7.800 -1.0705 -1.6339 -2.5583
  157SAPE  H18S17519   1.175   6.647   7.839 -0.3106  0.3652 -0.8786
  157SAPE  C21917520   1.027   6.539   7.961 -0.1344 -0.4649 -0.6620
  157SAPE  H19R17521   0.918   6.516   7.954 -0.4563  1.1305 -1.1237
  157SAPE  H19S17522   1.039   6.615   8.041 -0.1343 -3.3334  2.2901
  157SAPE  C22017523   1.109   6.415   7.993  0.5727  0.4214 -0.0590
  157SAPE  H20R17524   1.082   6.382   8.095  0.2848  2.7312  0.6593
  157SAPE  H20S17525   1.219   6.430   8.004  0.2972  1.0203  2.4529
  157SAPE  H20T17526   1.078   6.333   7.924 -1.1310 -0.4308  1.6436
  157SAPE   C3317527   0.973   6.749   6.811 -0.1409  0.1053  0.0806
  157SAPE   H3X17528   0.973   6.638   6.815  1.0069  0.0795 -0.4316
  157SAPE   H3Y17529   0.870   6.786   6.828  0.6147  1.6455  1.5280
  157SAPE   C3417530   1.054   6.807   6.932 -0.2185 -0.2643  0.3002
  157SAPE   H4X17531   1.057   6.917   6.919 -3.2176 -0.1963 -0.5823
  157SAPE   H4Y17532   1.158   6.770   6.944  0.1551  0.3781 -0.7508
  157SAPE   C3517533   0.983   6.779   7.066  0.4299 -0.1941  0.3300
  157SAPE   H5X17534   0.971   6.670   7.080  0.2664 -0.4914 -1.7186
  157SAPE   H5Y17535   0.876   6.805   7.049  0.5780  0.5595  0.5207
  157SAPE   C3617536   1.020   6.852   7.200  0.7562  0.1017 -0.0072
  157SAPE   H6X17537   1.011   6.962   7.191 -2.1447  0.0983  1.6930
  157SAPE   H6Y17538   1.122   6.812   7.218  0.2533 -1.7769 -1.0189
  157SAPE   C3717539   0.917   6.818   7.310 -0.0485  0.5915  1.1697
  157SAPE   H7X17540   0.916   6.708   7.322 -1.0809  0.5568  0.8347
  157SAPE   H7Y17541   0.821   6.843   7.261  0.4794 -0.3777 -0.4350
  157SAPE   C3817542   0.940   6.900   7.433 -1.2457 -0.3188  0.2133
  157SAPE   H8X17543   0.929   7.008   7.409 -0.7322 -0.3129  0.0096
  157SAPE   H8Y17544   1.043   6.882   7.469 -0.2699  2.4539 -0.8752
  157SAPE   C3917545   0.849   6.866   7.548  0.7361  0.6226 -0.5975
  157SAPE   H9X17546   0.831   6.757   7.557 -0.4422  0.8763  0.3439
  157SAPE   H9Y17547   0.750   6.906   7.519  1.2828  1.7307 -0.9948
  157SAPE  C31017548   0.898   6.930   7.679 -0.5468 -0.0029 -0.1689
  157SAPE  H10X17549   0.933   7.034   7.660 -2.1809  0.5374 -0.3784
  157SAPE  H10Y17550   0.991   6.875   7.704 -1.4712 -0.9109  1.4760
  157SAPE  C31117551   0.797   6.914   7.797 -0.5778  0.1632 -0.3207
  157SAPE  H11X17552   0.789   6.810   7.836  1.9149 -0.2844 -0.7921
  157SAPE  H11Y17553   0.698   6.937   7.752 -0.5790  0.0234 -0.3909
  157SAPE  C31217554   0.831   7.002   7.926  0.1155  0.2606  0.2441
  157SAPE  H12X17555   0.781   6.956   8.014 -2.5686  0.3040 -1.1491
  157SAPE  H12Y17556   0.774   7.096   7.908  1.0969  1.0343  1.0713
  157SAPE  C31317557   0.981   7.009   7.959 -0.0775  0.5173  0.2282
  157SAPE  H13X17558   1.041   7.043   7.872  2.0093 -1.6754  0.7094
  157SAPE  H13Y17559   1.013   6.904   7.977 -0.8229  0.5236  1.7763
  157SAPE  C31417560   1.014   7.113   8.079  0.1482  0.3296  0.0122
  157SAPE  H14X17561   0.978   7.207   8.033  2.5890  2.1125  1.5257
  157SAPE  H14Y17562   1.124   7.106   8.090  0.1537  0.2715 -0.0751
  157SAPE  C31517563   0.938   7.085   8.208 -1.2103 -0.0811  0.2169
  157SAPE  H15X17564   0.955   6.978   8.231  0.4405  0.0448 -0.2774
  157SAPE  H15Y17565   0.828   7.095   8.196 -0.8352  2.4005 -2.3810
  157SAPE  C31617566   0.984   7.175   8.326  0.6313  0.0762  0.3664
  157SAPE  H16X17567   0.911   7.158   8.408 -0.1623 -2.8161 -0.8149
  157SAPE  H16Y17568   1.004   7.280   8.295 -2.3795 -0.0370 -2.4948
  157SAPE  C31717569   1.122   7.110   8.376 -0.2723 -0.2044 -0.3633
  157SAPE  H17X17570   1.190   7.129   8.289  0.0764 -0.3420 -0.1219
  157SAPE  H17Y17571   1.108   7.001   8.394  0.9930  0.0717  2.9908
  157SAPE  C31817572   1.162   7.182   8.505 -0.2064  0.2321  0.1180
  157SAPE  H18X17573   1.086   7.168   8.584 -0.9065 -0.1325 -0.6012
  157SAPE  H18Y17574   1.185   7.287   8.476  0.6706  0.0231  0.0384
  157SAPE  H18Z17575   1.256   7.137   8.542  0.1289  1.0503  0.2603
  158SAPE     N17576   1.695   5.559   6.042 -0.5326  0.0652  0.1167
  158SAPE   HN117577   1.638   5.579   5.957 -1.9234 -0.8706  0.7890
  158SAPE   HN217578   1.654   5.475   6.089  0.1677  0.2466  1.0630
  158SAPE   HN317579   1.697   5.641   6.105  2.6890 -1.1426  1.7703
  158SAPE   C1217580   1.827   5.510   5.986  0.3621 -0.6487 -0.7476
  158SAPE  H12A17581   1.866   5.576   5.905  0.5256  1.7443  1.1532
  158SAPE  H12B17582   1.809   5.411   5.940 -1.3690 -1.3094  1.1875
  158SAPE   C1117583   1.917   5.486   6.104 -0.9699 -0.3301  0.2415
  158SAPE  H11A17584   2.012   5.439   6.073 -0.6378  1.6140 -1.9664
  158SAPE  H11B17585   1.885   5.415   6.183  0.6506 -1.0883  0.2511
  158SAPE     P17586   2.055   5.719   6.126  0.4679  0.1124  0.0253
  158SAPE   O1317587   2.028   5.784   5.994  0.0324 -0.7366 -0.2853
  158SAPE   O1417588   2.078   5.805   6.245 -0.1564  0.4095 -0.3911
  158SAPE   O1217589   1.936   5.617   6.161  0.3533 -0.0124 -0.7796
  158SAPE   O1117590   2.173   5.611   6.107  0.4251  0.1507  0.0779
  158SAPE    C117591   2.266   5.566   6.205 -0.0798 -0.2947  0.3762
  158SAPE    HA17592   2.213   5.540   6.299 -0.2986 -1.7938 -0.1401
  158SAPE    HB17593   2.311   5.468   6.181 -0.9419 -0.3679 -1.0654
  158SAPE    C217594   2.381   5.664   6.231  0.1295 -0.4534 -0.8154
  158SAPE    HS17595   2.463   5.602   6.273 -0.1321  0.0445  0.4989
  158SAPE   O2117596   2.355   5.768   6.319  0.3092 -0.2088 -0.3167
  158SAPE   C2117597   2.344   5.741   6.449  0.4354 -0.4034  0.1565
  158SAPE   O2217598   2.358   5.631   6.498  0.1036  0.3495 -0.1873
  158SAPE   C2217599   2.308   5.866   6.526 -0.6186  0.1222  0.3732
  158SAPE   H2R17600   2.395   5.881   6.595 -0.0984  1.0933 -0.4569
  158SAPE   H2S17601   2.307   5.955   6.460  1.7693  1.1302  1.5430
  158SAPE    C317602   2.437   5.728   6.103  0.0866  0.2613  0.2875
  158SAPE    HX17603   2.370   5.794   6.043 -1.2812 -1.2656  0.0620
  158SAPE    HY17604   2.436   5.643   6.031  0.7357 -1.0917  1.8095
  158SAPE   O3117605   2.575   5.782   6.132 -0.4006 -0.2383 -0.0349
  158SAPE   C3117606   2.576   5.914   6.162  0.4440 -0.3104  0.2036
  158SAPE   O3217607   2.483   5.989   6.163 -0.5116 -0.0132  0.7626
  158SAPE   C3217608   2.723   5.960   6.173 -0.3452 -0.1229  0.1598
  158SAPE   H2X17609   2.742   6.029   6.088  1.8892 -0.8960 -0.0587
  158SAPE   H2Y17610   2.786   5.868   6.163 -0.8173 -0.3172 -1.2419
  158SAPE   C2317611   2.185   5.833   6.614  0.2626  0.2741  0.1518
  158SAPE   H3R17612   2.198   5.747   6.682  0.6157 -0.1536 -0.4462
  158SAPE   H3S17613   2.097   5.809   6.551  0.9643  0.9660 -1.1551
  158SAPE   C2417614   2.141   5.953   6.697  0.7181  0.2576  0.8177
  158SAPE   H4R17615   2.085   6.022   6.630  1.5353  2.6827  2.4676
  158SAPE   H4S17616   2.229   6.014   6.725  1.7600 -0.2203 -1.2242
  158SAPE   C2517617   2.048   5.934   6.819  0.3926  0.4342  0.0982
  158SAPE   H5R17618   1.948   5.888   6.811  0.7937 -0.1536 -2.9410
  158SAPE   C2617619   2.073   5.976   6.947 -0.1449  0.7828  0.0485
  158SAPE   H6R17620   1.997   5.953   7.023 -1.1561 -1.4082 -1.5300
  158SAPE   C2717621   2.193   6.063   6.997 -0.0429 -0.0393  0.2394
  158SAPE   H7R17622   2.160   6.108   7.092 -3.3700 -1.3361 -0.1678
  158SAPE   H7S17623   2.213   6.149   6.929  0.5960 -1.2053 -1.1057
  158SAPE   C2817624   2.324   5.988   7.004 -0.6878  0.0667 -0.3117
  158SAPE   H8R17625   2.375   5.974   6.908 -0.3451 -0.4014 -0.0681
  158SAPE   C2917626   2.391   5.958   7.117 -0.0937 -0.4632 -0.2128
  158SAPE   H9R17627   2.489   5.912   7.101  0.6236  1.1758 -0.7734
  158SAPE  C21017628   2.351   5.984   7.263 -0.3714 -0.3428 -0.4466
  158SAPE  H10R17629   2.242   6.005   7.253 -0.4045 -1.0564 -1.8067
  158SAPE  H10S17630   2.411   6.068   7.302 -1.5408  0.2159  0.1963
  158SAPE  C21117631   2.366   5.867   7.356 -0.2716  0.6040  0.8261
  158SAPE  H11R17632   2.322   5.777   7.310 -0.5241 -0.3400  2.7771
  158SAPE  C21217633   2.400   5.857   7.488  0.0566  0.1045  0.1132
  158SAPE  H12R17634   2.404   5.755   7.527  1.4860 -0.4753 -1.4439
  158SAPE  C21317635   2.441   5.968   7.583  0.3484 -0.0741 -0.0810
  158SAPE  H13R17636   2.427   6.066   7.532 -3.6204  0.0431  0.9110
  158SAPE  H13S17637   2.544   5.946   7.618 -0.3611 -0.5027  1.8637
  158SAPE  C21417638   2.337   5.945   7.684  0.0466  0.5242  1.0090
  158SAPE  H14R17639   2.240   5.996   7.670  0.0003 -0.2086 -2.1030
  158SAPE  C21517640   2.353   5.881   7.803 -0.1586 -1.1170  0.3725
  158SAPE  H15R17641   2.264   5.872   7.868 -0.9141 -1.3462 -0.6730
  158SAPE  C21617642   2.474   5.817   7.864 -0.8261  0.0662  0.3116
  158SAPE  H16R17643   2.574   5.830   7.817 -0.5393 -1.1169  0.5526
  158SAPE  H16S17644   2.469   5.706   7.858 -0.3042 -0.1512  2.7850
  158SAPE  C21717645   2.504   5.850   8.013 -0.2823  0.6931  0.6054
  158SAPE  H17R17646   2.578   5.775   8.048  0.8985  1.1959 -0.6991
  158SAPE  H17S17647   2.411   5.843   8.073 -1.7315 -2.5447 -1.7281
  158SAPE  C21817648   2.560   5.998   8.017  0.0619 -0.5074  0.3631
  158SAPE  H18R17649   2.609   6.022   7.920 -0.0053  0.1885  0.5012
  158SAPE  H18S17650   2.642   6.011   8.091  1.3557  1.3985 -1.2833
  158SAPE  C21917651   2.446   6.099   8.048 -0.2944  0.5946 -0.2082
  158SAPE  H19R17652   2.353   6.055   8.007  0.4689 -1.6742  0.3398
  158SAPE  H19S17653   2.471   6.191   7.991 -1.5741  0.9937 -0.1667
  158SAPE  C22017654   2.441   6.133   8.197 -0.3545  0.3567  0.0689
  158SAPE  H20R17655   2.368   6.216   8.207  0.2575  1.0725 -1.2030
  158SAPE  H20S17656   2.532   6.186   8.231  1.2750 -1.5289 -1.1470
  158SAPE  H20T17657   2.415   6.047   8.262  0.3463 -0.1565 -0.3182
  158SAPE   C3317658   2.754   6.030   6.313  0.0210  0.3699  0.0473
  158SAPE   H3X17659   2.677   6.110   6.314 -0.9270 -0.5022  1.6902
  158SAPE   H3Y17660   2.852   6.080   6.302  0.4583 -0.2483  0.9510
  158SAPE   C3417661   2.738   5.939   6.438  0.1863 -0.7037  0.7270
  158SAPE   H4X17662   2.812   5.856   6.439  0.1688 -0.7151  1.4647
  158SAPE   H4Y17663   2.631   5.909   6.439  0.5300 -2.4138 -2.0253
  158SAPE   C3517664   2.761   6.015   6.575 -0.5161  0.3299 -0.0676
  158SAPE   H5X17665   2.721   6.119   6.572 -0.5100  0.3291 -2.2085
  158SAPE   H5Y17666   2.871   6.033   6.574 -0.2646 -1.1158 -0.6729
  158SAPE   C3617667   2.694   5.948   6.694 -0.3064 -0.1294  0.6958
  158SAPE   H6X17668   2.680   5.839   6.677  1.0531 -0.3936  1.0972
  158SAPE   H6Y17669   2.591   5.989   6.701 -0.2097  0.1700  0.4256
  158SAPE   C3717670   2.770   5.975   6.829 -0.0287  0.4005  0.3498
  158SAPE   H7X17671   2.879   5.977   6.810 -0.3159  0.3631 -1.4876
  158SAPE   H7Y17672   2.745   6.075   6.871  0.4537  0.0640  1.4716
  158SAPE   C3817673   2.729   5.868   6.932  0.6067 -0.7153  0.1018
  158SAPE   H8X17674   2.761   5.767   6.902  3.2450 -0.2051  0.9627
  158SAPE   H8Y17675   2.618   5.876   6.939  0.7550  1.1953  1.0506
  158SAPE   C3917676   2.789   5.904   7.070 -0.2672 -0.3695 -0.1107
  158SAPE   H9X17677   2.749   5.994   7.120 -1.9971 -1.1996  0.0760
  158SAPE   H9Y17678   2.899   5.909   7.057 -0.1787  0.6300  0.9247
  158SAPE  C31017679   2.759   5.788   7.175  0.3099 -0.0942 -0.1465
  158SAPE  H10X17680   2.814   5.694   7.151 -0.0795 -0.4496  0.3174
  158SAPE  H10Y17681   2.654   5.751   7.168  1.0467 -2.4839  0.2549
  158SAPE  C31117682   2.780   5.825   7.321  0.1360  0.2887 -0.4099
  158SAPE  H11X17683   2.742   5.749   7.392  0.4897  0.6541  0.1781
  158SAPE  H11Y17684   2.722   5.916   7.346  0.3706  0.3239  0.0044
  158SAPE  C31217685   2.922   5.855   7.361  1.2400 -0.3857  0.7719
  158SAPE  H12X17686   2.958   5.938   7.298  0.4640 -0.5672  0.0650
  158SAPE  H12Y17687   2.989   5.772   7.331  1.2297  0.4598 -1.8375
  158SAPE  C31317688   2.941   5.893   7.507  0.4589 -0.5317 -0.1056
  158SAPE  H13X17689   2.888   5.984   7.541 -0.8791 -1.6708  1.0121
  158SAPE  H13Y17690   3.048   5.918   7.522  0.2721  0.0310  0.2954
  158SAPE  C31417691   2.926   5.774   7.595  0.3541 -0.7887 -0.3768
  158SAPE  H14X17692   2.987   5.685   7.566 -1.6321 -1.8455 -1.5053
  158SAPE  H14Y17693   2.824   5.732   7.592 -0.3177  0.8162 -1.2949
  158SAPE  C31517694   2.930   5.823   7.746  0.1214 -0.1755 -0.1102
  158SAPE  H15X17695   2.871   5.915   7.767  1.8516  0.4719  2.2082
  158SAPE  H15Y17696   3.033   5.857   7.767  0.4245  1.0690 -3.0163
  158SAPE  C31617697   2.892   5.708   7.843 -0.3070 -0.0763  0.0409
  158SAPE  H16X17698   2.973   5.632   7.849  0.3516  0.6590  0.7176
  158SAPE  H16Y17699   2.799   5.666   7.800 -1.2215  0.5901  1.3236
  158SAPE  C31717700   2.876   5.763   7.983  0.9243 -0.9661  0.0723
  158SAPE  H17X17701   2.804   5.847   7.978  2.5373  0.4432 -0.9399
  158SAPE  H17Y17702   2.968   5.807   8.027  1.3543 -1.9256  0.1644
  158SAPE  C31817703   2.823   5.662   8.081 -0.0659 -0.7876  0.4775
  158SAPE  H18X17704   2.753   5.589   8.035  0.8832 -0.8851 -0.8702
  158SAPE  H18Y17705   2.781   5.721   8.165  0.9125  1.6052 -0.6307
  158SAPE  H18Z17706   2.911   5.606   8.120  1.3749 -0.2344 -1.8042
  159SAPE     N17707   1.976   0.496   5.872  0.4803 -0.0128  0.5838
  159SAPE   HN117708   1.979   0.393   5.853  0.5309  0.0889  0.0159
  159SAPE   HN217709   1.951   0.550   5.787  0.0597  0.0439  0.7383
  159SAPE   HN317710   2.074   0.513   5.903  0.9706  0.8030 -1.2796
  159SAPE   C1217711   1.890   0.524   5.989 -0.6681 -0.2875  0.7896
  159SAPE  H12A17712   1.784   0.497   5.975 -0.6341 -0.1224  0.1921
  159SAPE  H12B17713   1.897   0.635   5.994  0.6072 -0.2608 -0.6575
  159SAPE   C1117714   1.947   0.443   6.114  0.0639  0.4331  0.7197
  159SAPE  H11A17715   1.872   0.463   6.193  0.3543  3.2072  0.4012
  159SAPE  H11B17716   2.041   0.481   6.159  0.0684  0.5034  0.6502
  159SAPE     P17717   1.857   0.199   6.109  0.2431  0.0952 -0.2971
  159SAPE   O1317718   1.750   0.213   6.006 -0.0346 -0.2391 -0.3464
  159SAPE   O1417719   1.926   0.071   6.115  0.0494  0.1610 -0.1923
  159SAPE   O1217720   1.964   0.306   6.082  0.4128 -0.2839 -0.9002
  159SAPE   O1117721   1.815   0.237   6.258 -0.0202 -0.2812  0.1092
  159SAPE    C117722   1.708   0.157   6.324  0.3095 -0.1941  0.5479
  159SAPE    HA17723   1.695   0.054   6.285  1.8537 -1.3336  2.7942
  159SAPE    HB17724   1.745   0.138   6.427  0.5148  1.5749  0.8270
  159SAPE    C217725   1.585   0.249   6.326  0.2483  0.0822  0.9433
  159SAPE    HS17726   1.575   0.265   6.217 -0.4093 -2.0574  0.6478
  159SAPE   O2117727   1.627   0.378   6.379  0.2251 -0.2312  0.1242
  159SAPE   C2117728   1.548   0.480   6.343  0.5311  0.2406  0.3235
  159SAPE   O2217729   1.458   0.474   6.263 -0.0293  0.0690  0.5576
  159SAPE   C2217730   1.583   0.608   6.419 -0.1028  0.4316 -0.4653
  159SAPE   H2R17731   1.688   0.604   6.456 -1.2851 -2.2051  3.1630
  159SAPE   H2S17732   1.562   0.684   6.341 -0.7989  0.4678 -0.2474
  159SAPE    C317733   1.459   0.196   6.390 -0.0276  1.1874 -0.5943
  159SAPE    HX17734   1.416   0.111   6.334 -1.1798  0.4506  1.3011
  159SAPE    HY17735   1.388   0.278   6.413 -3.0125 -0.5929 -2.9044
  159SAPE   O3117736   1.496   0.126   6.516  0.4844  0.3829 -0.1292
  159SAPE   C3117737   1.396   0.079   6.587 -0.2445 -0.3689  0.3605
  159SAPE   O3217738   1.279   0.074   6.547 -0.0544 -0.3658 -0.3073
  159SAPE   C3217739   1.453   0.003   6.714  0.5618  0.6996  0.1429
  159SAPE   H2X17740   1.563  -0.004   6.696  0.6746 -1.1081  1.3316
  159SAPE   H2Y17741   1.419  -0.102   6.724 -0.1722  1.0327  1.3425
  159SAPE   C2317742   1.493   0.621   6.544  0.0418 -0.6022 -0.2490
  159SAPE   H3R17743   1.396   0.598   6.496 -0.2790  0.5222 -0.1666
  159SAPE   H3S17744   1.480   0.722   6.588 -2.1243 -1.3224  0.9080
  159SAPE   C2417745   1.514   0.522   6.658  0.1145  0.5863 -0.2440
  159SAPE   H4R17746   1.515   0.422   6.609 -0.7236  0.6008 -0.3006
  159SAPE   H4S17747   1.425   0.540   6.721  0.4770  3.7000 -0.4553
  159SAPE   C2517748   1.641   0.554   6.730  0.3757  0.0782 -0.0024
  159SAPE   H5R17749   1.726   0.552   6.661 -0.2126  1.2092 -0.7799
  159SAPE   C2617750   1.665   0.593   6.860  0.6169 -0.4746 -0.1679
  159SAPE   H6R17751   1.762   0.622   6.902 -0.1567 -0.2673  1.5649
  159SAPE   C2717752   1.555   0.611   6.961 -0.0307  0.1017 -0.3458
  159SAPE   H7R17753   1.457   0.617   6.910  1.2893  3.7178 -2.8469
  159SAPE   H7S17754   1.554   0.716   6.999  0.7827  0.2569 -0.7432
  159SAPE   C2817755   1.568   0.499   7.067  0.0536  0.3544 -0.1857
  159SAPE   H8R17756   1.572   0.399   7.021  1.5189  0.8117 -1.1147
  159SAPE   C2917757   1.581   0.517   7.199 -0.3810 -0.6918 -0.6303
  159SAPE   H9R17758   1.582   0.428   7.264 -0.1799 -1.0578 -1.1246
  159SAPE  C21017759   1.592   0.646   7.276 -0.2549 -0.1759  0.6252
  159SAPE  H10R17760   1.601   0.728   7.202 -2.1656 -1.3235 -0.9773
  159SAPE  H10S17761   1.688   0.654   7.330 -0.0520  0.5173  0.1717
  159SAPE  C21117762   1.481   0.665   7.374  0.3473 -0.2000 -0.3795
  159SAPE  H11R17763   1.389   0.616   7.337  0.5261  0.1615 -1.3314
  159SAPE  C21217764   1.477   0.726   7.495 -0.3409  0.1116  0.0236
  159SAPE  H12R17765   1.382   0.725   7.550 -0.0381 -0.3255  0.5546
  159SAPE  C21317766   1.597   0.794   7.560  0.3293 -0.4455 -0.1046
  159SAPE  H13R17767   1.586   0.904   7.555  1.0480 -0.4268 -2.8802
  159SAPE  H13S17768   1.688   0.785   7.496  0.4880 -1.0606  0.2002
  159SAPE  C21417769   1.624   0.740   7.696 -0.5239  0.6543 -0.2254
  159SAPE  H14R17770   1.669   0.640   7.691 -2.5086 -0.2380 -1.9361
  159SAPE  C21517771   1.601   0.798   7.819 -0.1247  0.3656  0.3222
  159SAPE  H15R17772   1.613   0.729   7.904 -0.2909 -2.2894 -1.6682
  159SAPE  C21617773   1.555   0.940   7.834  0.2828  0.2622  0.0450
  159SAPE  H16R17774   1.466   0.941   7.900  2.1206  3.1336  2.7759
  159SAPE  H16S17775   1.528   0.973   7.732 -1.3743 -4.5773 -1.3759
  159SAPE  C21717776   1.665   1.028   7.894  0.3050 -0.4275 -0.6569
  159SAPE  H17R17777   1.645   1.135   7.870 -2.5339 -0.8823 -0.7365
  159SAPE  H17S17778   1.763   1.000   7.850  1.0395 -1.6681  1.6206
  159SAPE  C21817779   1.666   1.014   8.046 -0.3857 -0.2801 -0.6158
  159SAPE  H18R17780   1.684   0.908   8.074  0.1939  0.2938  1.3516
  159SAPE  H18S17781   1.568   1.045   8.088  0.2668  1.6934 -0.4578
  159SAPE  C21917782   1.765   1.105   8.114 -0.1335 -0.1323 -0.4159
  159SAPE  H19R17783   1.859   1.113   8.054 -0.3968  1.2534 -0.6805
  159SAPE  H19S17784   1.772   1.067   8.218 -0.7508 -1.5985 -0.8886
  159SAPE  C22017785   1.712   1.250   8.128 -0.1630 -0.0323 -0.0936
  159SAPE  H20R17786   1.681   1.292   8.030 -1.0117 -0.4371 -0.0115
  159SAPE  H20S17787   1.787   1.317   8.175 -0.1734  0.2070 -0.4115
  159SAPE  H20T17788   1.618   1.254   8.187 -1.5340 -1.4261 -2.0469
  159SAPE   C3317789   1.420   0.078   6.844 -0.0176  0.2777 -0.5346
  159SAPE   H3X17790   1.313   0.108   6.849 -0.0116  0.6184 -2.1213
  159SAPE   H3Y17791   1.481   0.170   6.844  1.0588 -0.4175  0.4589
  159SAPE   C3417792   1.440  -0.001   6.970 -0.8807  0.3270 -0.1043
  159SAPE   H4X17793   1.544  -0.034   6.991 -0.8720 -1.4902 -2.5987
  159SAPE   H4Y17794   1.384  -0.096   6.960  0.7405 -0.5329 -1.4480
  159SAPE   C3517795   1.384   0.079   7.092  0.0445  0.1528 -0.0702
  159SAPE   H5X17796   1.275   0.099   7.085 -0.3904  0.4866  4.3790
  159SAPE   H5Y17797   1.431   0.179   7.086 -0.3967  0.3745  0.1070
  159SAPE   C3617798   1.405   0.020   7.231 -0.3736 -0.4130  0.3467
  159SAPE   H6X17799   1.515   0.002   7.237 -0.4546 -1.8316 -1.5651
  159SAPE   H6Y17800   1.356  -0.079   7.245  0.9145 -1.2213 -0.5608
  159SAPE   C3717801   1.347   0.115   7.339  0.1074  0.0050  1.1801
  159SAPE   H7X17802   1.237   0.125   7.326  0.4725  1.5318 -1.3804
  159SAPE   H7Y17803   1.397   0.214   7.336  0.0566  0.0015 -0.2355
  159SAPE   C3817804   1.391   0.064   7.477  0.4540  0.0079 -0.1361
  159SAPE   H8X17805   1.500   0.078   7.490  0.1701  0.5558  2.1110
  159SAPE   H8Y17806   1.377  -0.046   7.483  3.3301 -0.3738  1.2828
  159SAPE   C3917807   1.326   0.134   7.600  0.4946 -0.0938  0.1535
  159SAPE   H9X17808   1.217   0.157   7.602  0.7195  1.0936 -0.1982
  159SAPE   H9Y17809   1.366   0.238   7.605  0.2668 -0.0300  0.7145
  159SAPE  C31017810   1.368   0.064   7.731  0.2057  0.1136  0.5101
  159SAPE  H10X17811   1.466   0.017   7.710  0.8222  1.1764  0.9503
  159SAPE  H10Y17812   1.295  -0.013   7.765 -1.8474  0.8173 -1.9566
  159SAPE  C31117813   1.387   0.163   7.843  0.7457 -0.0079 -0.1562
  159SAPE  H11X17814   1.293   0.214   7.871  1.0410 -0.1993  1.2779
  159SAPE  H11Y17815   1.456   0.246   7.817  0.3415  0.0427 -1.0950
  159SAPE  C31217816   1.450   0.094   7.970  0.0192 -0.5416  0.1210
  159SAPE  H12X17817   1.469   0.171   8.048  2.1963 -0.5470 -0.3428
  159SAPE  H12Y17818   1.546   0.047   7.941  1.1862  1.3063  0.7996
  159SAPE  C31317819   1.367  -0.028   8.026  0.3045 -0.3709 -0.2629
  159SAPE  H13X17820   1.366  -0.106   7.947 -2.0670 -0.0542 -0.6258
  159SAPE  H13Y17821   1.262   0.008   8.028  0.9115  1.6590 -1.4573
  159SAPE  C31417822   1.421  -0.091   8.151 -0.3922 -0.5049  0.5570
  159SAPE  H14X17823   1.416  -0.015   8.232  1.2471  1.1631 -0.8046
  159SAPE  H14Y17824   1.527  -0.124   8.140  0.4717  2.0205  0.7640
  159SAPE  C31517825   1.328  -0.202   8.198 -0.2100 -0.1023 -0.6288
  159SAPE  H15X17826   1.330  -0.284   8.123  2.1349  0.8892 -1.7722
  159SAPE  H15Y17827   1.223  -0.168   8.206 -0.6880 -1.5295 -0.5237
  159SAPE  C31617828   1.370  -0.247   8.340  0.3561 -0.5416 -0.2004
  159SAPE  H16X17829   1.359  -0.162   8.410 -0.5771  0.2146 -1.2338
  159SAPE  H16Y17830   1.478  -0.274   8.338  0.3447 -0.6661  0.5353
  159SAPE  C31717831   1.291  -0.367   8.388 -0.0201 -0.2583 -0.2880
  159SAPE  H17X17832   1.181  -0.353   8.383 -0.1037 -0.9540 -0.6145
  159SAPE  H17Y17833   1.311  -0.370   8.497  0.9636 -0.3530 -0.4605
  159SAPE  C31817834   1.325  -0.497   8.324  0.0914  0.1975 -0.5367
  159SAPE  H18X17835   1.418  -0.528   8.376 -1.7954 -0.7904  2.4685
  159SAPE  H18Y17836   1.354  -0.487   8.217  0.7157  3.8445 -0.1431
  159SAPE  H18Z17837   1.248  -0.577   8.334  1.7650 -1.5164 -0.7514
  160SAPE     N17838   2.822   6.540   6.121  0.2463  0.1053  0.0876
  160SAPE   HN117839   2.920   6.518   6.093  0.4308 -1.3763  1.6876
  160SAPE   HN217840   2.803   6.484   6.207  2.6018 -2.5655 -0.9592
  160SAPE   HN317841   2.745   6.514   6.056  0.5715  2.0768 -1.1837
  160SAPE   C1217842   2.801   6.684   6.145 -0.7556 -0.4299 -0.2076
  160SAPE  H12A17843   2.823   6.738   6.050 -1.6613  1.4831  0.6179
  160SAPE  H12B17844   2.881   6.702   6.219 -1.9467  2.1690  0.5627
  160SAPE   C1117845   2.668   6.713   6.214  0.0772 -0.3473  0.4670
  160SAPE  H11A17846   2.656   6.823   6.210  0.4170 -0.3237 -0.0008
  160SAPE  H11B17847   2.663   6.677   6.318  0.5097 -0.3240  0.4967
  160SAPE     P17848   2.419   6.653   6.168 -0.0588 -0.1079 -0.4722
  160SAPE   O1317849   2.389   6.793   6.195  0.7400 -0.1073  0.1387
  160SAPE   O1417850   2.336   6.593   6.056 -0.1918 -0.1684 -0.5791
  160SAPE   O1217851   2.568   6.657   6.128 -0.3091 -0.4916  0.0435
  160SAPE   O1117852   2.405   6.571   6.304 -0.4874 -0.3617 -0.1372
  160SAPE    C117853   2.409   6.431   6.299 -0.1828  0.1186  0.0200
  160SAPE    HA17854   2.322   6.401   6.236 -1.1782  0.6820  1.0727
  160SAPE    HB17855   2.492   6.380   6.246  0.2753 -1.5331  2.1951
  160SAPE    C217856   2.383   6.373   6.440  0.0307 -0.4790  0.2960
  160SAPE    HS17857   2.347   6.269   6.428 -3.7764  0.6089  1.0990
  160SAPE   O2117858   2.296   6.450   6.520  0.1370  0.0833  0.3109
  160SAPE   C2117859   2.163   6.450   6.488 -1.0776  0.4030 -0.0088
  160SAPE   O2217860   2.113   6.395   6.392 -0.2756  0.5925 -0.2037
  160SAPE   C2217861   2.090   6.522   6.595 -0.3326  0.1051 -0.5561
  160SAPE   H2R17862   2.149   6.616   6.612  1.4728 -0.9671 -0.6415
  160SAPE   H2S17863   1.989   6.545   6.556 -0.6457 -0.1434  0.0987
  160SAPE    C317864   2.519   6.376   6.523  0.7371  0.2183 -0.4787
  160SAPE    HX17865   2.565   6.477   6.520 -0.2871  0.7614  0.7517
  160SAPE    HY17866   2.587   6.304   6.473  1.6181  0.9399 -0.3530
  160SAPE   O3117867   2.492   6.336   6.661 -0.0332 -0.0944  0.1757
  160SAPE   C3117868   2.479   6.431   6.746 -0.2029  0.8468  0.2209
  160SAPE   O3217869   2.472   6.550   6.725  0.7628  0.0024  1.1469
  160SAPE   C3217870   2.475   6.360   6.884  0.1110  0.4195 -0.5611
  160SAPE   H2X17871   2.573   6.312   6.901 -0.8685 -1.0789  1.2241
  160SAPE   H2Y17872   2.394   6.287   6.864  2.2977 -1.8795 -1.3998
  160SAPE   C2317873   2.098   6.438   6.726 -0.9731 -0.5430  0.1214
  160SAPE   H3R17874   2.200   6.400   6.747  0.3429  2.7234  0.1651
  160SAPE   H3S17875   2.032   6.350   6.707  0.2134 -1.3637 -0.2882
  160SAPE   C2417876   2.048   6.517   6.851 -0.5525 -0.5405 -0.3320
  160SAPE   H4R17877   2.108   6.610   6.849  3.0165 -2.6642 -0.5185
  160SAPE   H4S17878   2.065   6.465   6.948  0.1644 -0.8721 -0.6278
  160SAPE   C2517879   1.898   6.558   6.844 -0.1788  0.4695  0.2418
  160SAPE   H5R17880   1.861   6.571   6.741  0.3836  0.9326  0.0892
  160SAPE   C2617881   1.809   6.580   6.947  0.1601  0.1331  0.0007
  160SAPE   H6R17882   1.709   6.609   6.913  0.5650  3.1534  0.9948
  160SAPE   C2717883   1.841   6.577   7.093 -0.0988 -0.4208  0.5003
  160SAPE   H7R17884   1.899   6.668   7.118  0.9388 -1.1230  0.7392
  160SAPE   H7S17885   1.890   6.480   7.116  1.6632  0.5946  1.1768
  160SAPE   C2817886   1.708   6.592   7.161 -0.2869  0.1086 -0.0014
  160SAPE   H8R17887   1.620   6.580   7.097  0.7212 -1.8343 -1.1244
  160SAPE   C2917888   1.681   6.596   7.288  0.9608 -0.2156 -0.0116
  160SAPE   H9R17889   1.574   6.609   7.310  0.3308 -3.2743 -0.8027
  160SAPE  C21017890   1.770   6.597   7.413  0.0199 -0.3312 -0.4295
  160SAPE  H10R17891   1.876   6.619   7.389 -0.1888  0.0243 -1.0421
  160SAPE  H10S17892   1.764   6.500   7.468 -0.6776  0.4665  0.9456
  160SAPE  C21117893   1.715   6.702   7.511  0.0523  0.5709 -0.6499
  160SAPE  H11R17894   1.701   6.804   7.474 -0.2063  0.3465 -1.1779
  160SAPE  C21217895   1.674   6.683   7.638 -1.0948 -0.7519 -0.0241
  160SAPE  H12R17896   1.637   6.773   7.689 -0.9700 -0.2839 -0.7481
  160SAPE  C21317897   1.691   6.566   7.734  0.2758 -0.1705  0.0271
  160SAPE  H13R17898   1.643   6.475   7.692 -0.2591 -1.3714  2.9910
  160SAPE  H13S17899   1.631   6.582   7.826  2.1018  0.1348  1.2024
  160SAPE  C21417900   1.835   6.532   7.775  0.9807  0.6130 -0.8190
  160SAPE  H14R17901   1.909   6.565   7.700 -0.2499  0.3452 -2.1922
  160SAPE  C21517902   1.871   6.459   7.888  0.0734  0.6308  0.0463
  160SAPE  H15R17903   1.977   6.443   7.911 -0.1815  0.1062  0.8956
  160SAPE  C21617904   1.782   6.406   8.004 -0.5859  0.6933  0.1082
  160SAPE  H16R17905   1.823   6.310   8.042 -0.3669  1.1312  1.0011
  160SAPE  H16S17906   1.680   6.386   7.963 -0.9596 -0.9479  1.7122
  160SAPE  C21717907   1.766   6.482   8.137 -0.0422 -0.4313  0.8771
  160SAPE  H17R17908   1.712   6.415   8.207 -1.8377 -0.5725 -0.5495
  160SAPE  H17S17909   1.706   6.575   8.125  2.5897  1.7254  3.1765
  160SAPE  C21817910   1.903   6.533   8.197  1.1692  0.9932 -0.2588
  160SAPE  H18R17911   1.893   6.602   8.283  1.2171 -0.4863  0.9799
  160SAPE  H18S17912   1.948   6.589   8.112 -1.6065 -0.9343 -3.2515
  160SAPE  C21917913   2.000   6.418   8.248  0.1329  0.1148  0.5854
  160SAPE  H19R17914   2.000   6.332   8.178 -1.0239 -1.0831  1.9675
  160SAPE  H19S17915   1.954   6.383   8.344  0.7281  0.2316  0.9170
  160SAPE  C22017916   2.138   6.473   8.273 -0.2530  0.8999  0.2094
  160SAPE  H20R17917   2.204   6.389   8.303  0.7618  0.5047 -2.7699
  160SAPE  H20S17918   2.140   6.557   8.345  2.2289  1.0341  0.1028
  160SAPE  H20T17919   2.182   6.498   8.174 -0.5141 -2.3598 -0.8615
  160SAPE   C3317920   2.430   6.454   6.999 -0.4728 -0.3747 -0.6247
  160SAPE   H3X17921   2.332   6.498   6.970 -0.9277  0.4334  1.9242
  160SAPE   H3Y17922   2.504   6.537   7.009  0.7575 -1.5635  0.4752
  160SAPE   C3417923   2.404   6.384   7.128  0.3115  0.1018 -0.2027
  160SAPE   H4X17924   2.502   6.367   7.177 -0.5590 -0.2517  1.4987
  160SAPE   H4Y17925   2.351   6.288   7.109  1.0225  0.0745 -2.3127
  160SAPE   C3517926   2.306   6.456   7.216  0.1304  0.1903 -0.3154
  160SAPE   H5X17927   2.210   6.467   7.161  0.7201 -2.6403 -2.0815
  160SAPE   H5Y17928   2.348   6.556   7.241 -1.3406  1.4412 -2.4723
  160SAPE   C3617929   2.281   6.367   7.348 -0.2636 -0.3913  1.2515
  160SAPE   H6X17930   2.376   6.390   7.401  0.9152  1.6930 -1.5243
  160SAPE   H6Y17931   2.282   6.261   7.314 -2.0824  0.5422 -2.1164
  160SAPE   C3717932   2.147   6.393   7.416  0.1265 -0.0580  0.0928
  160SAPE   H7X17933   2.125   6.307   7.483  1.1127 -0.7209 -0.4183
  160SAPE   H7Y17934   2.076   6.417   7.334 -0.0990  3.3278  1.1196
  160SAPE   C3817935   2.157   6.528   7.492 -0.4480  0.4468 -0.2680
  160SAPE   H8X17936   2.060   6.580   7.502 -0.6383 -0.0667  0.6862
  160SAPE   H8Y17937   2.225   6.590   7.430  0.0929 -1.4840 -1.7030
  160SAPE   C3917938   2.222   6.495   7.632 -0.0143 -0.1386 -0.6486
  160SAPE   H9X17939   2.301   6.417   7.635  1.6607  1.5105  0.6849
  160SAPE   H9Y17940   2.131   6.464   7.688 -1.1529  1.9453 -1.2469
  160SAPE  C31017941   2.280   6.616   7.701 -0.5291  0.1762 -0.5937
  160SAPE  H10X17942   2.362   6.662   7.641  0.4958  1.1863  1.4852
  160SAPE  H10Y17943   2.332   6.566   7.785 -1.1998  2.5509  1.3430
  160SAPE  C31117944   2.171   6.709   7.759  0.0812  0.2656  0.8722
  160SAPE  H11X17945   2.103   6.639   7.812  1.1035 -1.3893  0.0737
  160SAPE  H11Y17946   2.106   6.755   7.681  0.4502  2.3576  1.7361
  160SAPE  C31217947   2.220   6.808   7.864  0.5329  0.5098 -0.0412
  160SAPE  H12X17948   2.151   6.894   7.881  1.6460  1.3640  0.2343
  160SAPE  H12Y17949   2.308   6.850   7.812  2.2726 -2.1625  0.5434
  160SAPE  C31317950   2.250   6.748   8.004 -0.2942  0.0110 -0.3448
  160SAPE  H13X17951   2.320   6.663   8.013 -1.5404 -1.0452 -0.2813
  160SAPE  H13Y17952   2.157   6.713   8.054 -0.2284  1.3569  0.7711
  160SAPE  C31417953   2.314   6.857   8.094 -0.3469  0.2888 -0.5694
  160SAPE  H14X17954   2.260   6.954   8.089  1.6993  1.4698 -0.9458
  160SAPE  H14Y17955   2.420   6.884   8.076 -0.0292  1.3156  2.2602
  160SAPE  C31517956   2.312   6.818   8.244  0.4991  0.0654 -0.6516
  160SAPE  H15X17957   2.384   6.734   8.255  0.9812  0.5218 -0.2622
  160SAPE  H15Y17958   2.210   6.789   8.278  0.3086  0.6833 -0.6880
  160SAPE  C31617959   2.362   6.933   8.336 -0.3061 -0.0155 -0.1776
  160SAPE  H16X17960   2.376   7.032   8.288  1.3384 -1.1870 -2.2995
  160SAPE  H16Y17961   2.464   6.906   8.371 -0.7321 -1.7626 -0.2057
  160SAPE  C31717962   2.260   6.954   8.459 -0.2193  0.2993 -0.7017
  160SAPE  H17X17963   2.182   7.020   8.415 -0.2499 -0.2320 -1.4753
  160SAPE  H17Y17964   2.311   7.019   8.533 -0.8357 -0.0914  0.0770
  160SAPE  C31817965   2.208   6.844   8.548 -1.1237  0.3183  0.0513
  160SAPE  H18X17966   2.205   6.883   8.651 -2.0362 -0.7549  0.4516
  160SAPE  H18Y17967   2.287   6.765   8.546  0.3173  1.7159 -0.5515
  160SAPE  H18Z17968   2.105   6.812   8.523 -1.2346  0.5241  0.2536
  161SOPE     N17969   1.201   6.513  10.771  0.0824 -0.3059 -0.4689
  161SOPE   HN117970   1.300   6.482  10.757 -0.0241 -0.6326 -0.5103
  161SOPE   HN217971   1.201   6.614  10.748  0.6089 -0.6724 -2.2510
  161SOPE   HN317972   1.168   6.494  10.868  1.0271 -1.0753 -0.2764
  161SOPE   C1217973   1.126   6.445  10.664 -0.3855 -0.0587 -0.6691
  161SOPE  H12A17974   1.058   6.377  10.720  2.0482 -0.6818  1.7929
  161SOPE  H12B17975   1.198   6.389  10.601 -1.5385 -1.0480 -1.1435
  161SOPE   C1117976   1.039   6.541  10.580  0.1474  0.9173  0.3218
  161SOPE  H11A17977   0.984   6.478  10.508  0.7551  1.0670 -0.2834
  161SOPE  H11B17978   1.102   6.603  10.514  0.9602  0.3024  0.4913
  161SOPE     P17979   0.803   6.591  10.694 -0.1753  0.1116  0.0924
  161SOPE   O1317980   0.744   6.684  10.794 -0.3386  0.3581 -0.1393
  161SOPE   O1417981   0.791   6.447  10.718 -0.0716 -0.2792  0.3022
  161SOPE   O1217982   0.956   6.620  10.671 -0.5729  0.2980  0.3930
  161SOPE   O1117983   0.743   6.633  10.558 -0.3650  0.3953  0.2365
  161SOPE    C117984   0.773   6.755  10.496 -0.9338 -0.0154  0.1455
  161SOPE    HA17985   0.880   6.765  10.466 -1.6213  1.7998 -1.9446
  161SOPE    HB17986   0.744   6.847  10.551 -0.8375  0.9162 -1.3079
  161SOPE    C217987   0.675   6.767  10.374  0.2213 -0.1692 -0.3686
  161SOPE    HS17988   0.620   6.670  10.378  0.7400 -0.5027 -0.9470
  161SOPE   O2117989   0.734   6.763  10.249 -0.0834 -0.4825  0.3142
  161SOPE   C2117990   0.808   6.869  10.196  0.2298 -0.5372  0.4453
  161SOPE   O2217991   0.834   6.979  10.243  0.3647  0.5798  0.3956
  161SOPE   C2217992   0.875   6.835  10.062  0.3119  0.2241 -0.3012
  161SOPE   H2R17993   0.822   6.753  10.010  0.3679 -1.0358  1.5315
  161SOPE   H2S17994   0.979   6.796  10.075  1.2270  2.1501 -1.3073
  161SOPE    C317995   0.574   6.884  10.398  0.5077 -0.5472 -0.6032
  161SOPE    HX17996   0.623   6.980  10.423 -0.8927 -0.1333  0.7165
  161SOPE    HY17997   0.521   6.853  10.491 -0.5706  1.0555 -0.6511
  161SOPE   O3117998   0.471   6.890  10.297 -0.3279  0.1446  0.1783
  161SOPE   C3117999   0.486   6.980  10.202  0.3374 -0.3622 -0.6884
  161SOPE   O3218000   0.560   7.079  10.209  0.0706  0.1317 -0.4351
  161SOPE   C3218001   0.401   6.941  10.081 -0.0066  0.1145 -0.1101
  161SOPE   H2X18002   0.351   7.038  10.060  0.4880  0.5330  0.5902
  161SOPE   H2Y18003   0.327   6.862  10.107 -0.6492  0.0653 -1.9634
  161SOPE   C2318004   0.878   6.951   9.956  1.3721  0.2692 -0.1457
  161SOPE   H3R18005   0.944   7.036   9.984  2.0914 -0.2989 -0.0889
  161SOPE   H3S18006   0.770   6.978   9.945  0.7521 -1.4792  1.1676
  161SOPE   C2418007   0.936   6.898   9.830 -0.3028 -0.6510 -0.2861
  161SOPE   H4R18008   1.031   6.854   9.867  0.6788  1.6860  0.1419
  161SOPE   H4S18009   0.864   6.827   9.784 -1.0477 -1.8161  2.4524
  161SOPE   C2518010   0.980   7.008   9.739 -0.4975  0.2406  0.4678
  161SOPE   H5R18011   0.886   7.059   9.707  0.4240  3.5161  2.5566
  161SOPE   H5S18012   1.049   7.079   9.788  1.7260 -1.7398  0.3909
  161SOPE   C2618013   1.053   6.949   9.621  0.2614 -0.0104 -0.2758
  161SOPE   H6R18014   1.151   6.907   9.653  1.5150  0.9392 -2.6216
  161SOPE   H6S18015   0.982   6.870   9.587 -1.7023  1.7380 -0.3785
  161SOPE   C2718016   1.093   7.047   9.509 -0.0583 -0.1452  0.4566
  161SOPE   H7R18017   1.004   7.089   9.457  1.3958  1.8169 -0.5810
  161SOPE   H7S18018   1.149   7.137   9.542 -0.3041  0.2717 -0.2375
  161SOPE   C2818019   1.171   6.966   9.406 -0.1714  0.2349 -0.4226
  161SOPE   H8R18020   1.187   7.042   9.326 -2.7926  0.1052 -1.1614
  161SOPE   H8S18021   1.270   6.932   9.446 -0.2537  1.7595  1.2125
  161SOPE   C2918022   1.092   6.853   9.357  0.1794 -0.0868 -0.5017
  161SOPE   H9118023   1.068   6.777   9.433 -1.2535  0.1852 -0.6513
  161SOPE  C21018024   1.058   6.827   9.226 -0.1076  0.1257  0.2896
  161SOPE  H10118025   0.983   6.749   9.206 -0.7615  0.7131  0.4062
  161SOPE  C21118026   1.092   6.912   9.105 -0.2343  0.2561  0.0237
  161SOPE  H11R18027   1.201   6.929   9.118 -0.1189  0.3295 -0.9478
  161SOPE  H11S18028   1.047   7.014   9.101  1.4564  1.1449  1.9347
  161SOPE  C21218029   1.045   6.823   8.980  0.1683 -0.9186  0.2017
  161SOPE  H12R18030   0.936   6.816   8.964  0.0493  0.9997 -0.1639
  161SOPE  H12S18031   1.097   6.726   8.991  0.2233 -0.9711 -0.4579
  161SOPE  C21318032   1.104   6.886   8.852  0.6206 -0.1911  0.4353
  161SOPE  H13R18033   1.201   6.926   8.888  1.3639 -1.5389  0.0117
  161SOPE  H13S18034   1.032   6.964   8.821  0.8119 -0.1140  0.1798
  161SOPE  C21418035   1.118   6.805   8.718  0.6637 -0.2144  0.7690
  161SOPE  H14R18036   1.183   6.716   8.729 -0.4610 -1.1489  0.1265
  161SOPE  H14S18037   1.162   6.861   8.633  0.0559 -2.9119 -1.4478
  161SOPE  C21518038   0.983   6.748   8.667 -0.0058  0.2590  0.7394
  161SOPE  H15R18039   0.910   6.830   8.651 -0.0364  0.0140 -0.5040
  161SOPE  H15S18040   0.932   6.696   8.752 -0.6034  0.4103  0.4802
  161SOPE  C21618041   1.005   6.660   8.544  0.2656  0.8222  0.5948
  161SOPE  H16R18042   1.066   6.570   8.568 -0.3314  0.3274  0.2923
  161SOPE  H16S18043   1.062   6.707   8.460 -1.5616 -1.1088 -1.8986
  161SOPE  C21718044   0.873   6.597   8.485 -0.6861  0.2375  0.2014
  161SOPE  H17R18045   0.809   6.678   8.444 -1.3843 -0.8049 -0.8577
  161SOPE  H17S18046   0.815   6.558   8.572 -0.5364  1.5744  0.9312
  161SOPE  C21818047   0.893   6.496   8.375  0.5477  0.3490 -0.2392
  161SOPE  H18R18048   0.964   6.422   8.418  0.3362  1.6326  2.5810
  161SOPE  H18S18049   0.951   6.538   8.290 -0.5650 -1.6416 -2.0965
  161SOPE  H18T18050   0.799   6.452   8.334  1.3687 -1.1158 -0.6362
  161SOPE   C3318051   0.496   6.901   9.972 -0.1533  0.7491  0.3981
  161SOPE   H3X18052   0.535   6.797   9.963  0.0052  0.7871  0.6454
  161SOPE   H3Y18053   0.579   6.973   9.960 -0.9484  1.2924 -2.6916
  161SOPE   C3418054   0.431   6.934   9.827 -1.2869  0.4928  0.0037
  161SOPE   H4X18055   0.418   7.044   9.834 -1.0673  0.4092  5.2325
  161SOPE   H4Y18056   0.326   6.898   9.823 -1.3578  0.5547  1.0496
  161SOPE   C3518057   0.521   6.893   9.708 -0.2174  0.1825  0.1746
  161SOPE   H5X18058   0.556   6.788   9.715  0.6046  0.0126 -3.8215
  161SOPE   H5Y18059   0.609   6.961   9.707 -0.2932  0.3384  1.6544
  161SOPE   C3618060   0.463   6.906   9.568  0.3881 -0.2934  0.4662
  161SOPE   H6X18061   0.458   7.015   9.546  1.0922 -0.2046  0.7089
  161SOPE   H6Y18062   0.359   6.870   9.554 -0.3846  0.8999  2.5831
  161SOPE   C3718063   0.545   6.849   9.454 -0.3597 -0.2319 -0.2364
  161SOPE   H7X18064   0.555   6.739   9.468  2.0208  0.0327  0.6224
  161SOPE   H7Y18065   0.652   6.879   9.461  0.2851 -0.1697 -5.8977
  161SOPE   C3818066   0.502   6.897   9.317  0.1307 -0.7406  0.3996
  161SOPE   H8X18067   0.486   7.007   9.313 -1.1588 -0.9386 -2.0789
  161SOPE   H8Y18068   0.399   6.854   9.310 -0.9163  1.6119  0.4712
  161SOPE   C3918069   0.576   6.850   9.195 -0.1951 -0.3635  0.0006
  161SOPE   H9X18070   0.583   6.739   9.190 -2.6405 -0.5971  0.4844
  161SOPE   H9Y18071   0.678   6.895   9.200  0.7009 -2.0914 -1.3106
  161SOPE  C31018072   0.514   6.898   9.061 -0.5577 -0.3287 -0.2031
  161SOPE  H10X18073   0.562   6.869   8.965 -0.3323  0.4972 -0.3460
  161SOPE  H10Y18074   0.518   7.009   9.066  1.2792 -0.3295 -1.1204
  161SOPE  C31118075   0.375   6.845   9.035 -0.0482 -0.2463  0.3476
  161SOPE  H11X18076   0.315   6.885   9.119  3.2951  0.9050  2.4150
  161SOPE  H11Y18077   0.372   6.735   9.044  0.0572 -0.1541  1.7944
  161SOPE  C31218078   0.313   6.875   8.903 -0.2588  0.3504  1.3499
  161SOPE  H12X18079   0.346   6.809   8.820  1.7413 -0.4506  2.7021
  161SOPE  H12Y18080   0.327   6.979   8.866 -4.2425  1.0581  1.3687
  161SOPE  C31318081   0.164   6.835   8.901 -0.7393 -1.0704  0.0895
  161SOPE  H13X18082   0.108   6.873   8.989  0.6768 -0.3370  0.7019
  161SOPE  H13Y18083   0.173   6.727   8.924 -1.3376 -1.1675 -0.1083
  161SOPE  C31418084   0.105   6.884   8.774  0.4043  0.3466  0.0467
  161SOPE  H14X18085   0.178   6.855   8.695 -1.5449 -1.8015 -1.0997
  161SOPE  H14Y18086   0.071   6.989   8.785 -1.2858 -0.1851  0.2627
  161SOPE  C31518087  -0.017   6.793   8.732  0.3176  0.6094 -0.3041
  161SOPE  H15X18088  -0.091   6.797   8.814 -0.7705  0.6063 -1.2578
  161SOPE  H15Y18089   0.024   6.690   8.730 -1.0855  0.0084  0.3998
  161SOPE  C31618090  -0.082   6.821   8.599 -0.0161  0.2118 -0.2352
  161SOPE  H16X18091  -0.160   6.896   8.626  0.4404  0.9605 -0.9364
  161SOPE  H16Y18092  -0.142   6.734   8.564 -0.7388  0.4134  0.4731
  161SOPE  C31718093   0.019   6.868   8.490  0.3381  0.1436 -0.2855
  161SOPE  H17X18094   0.085   6.785   8.459  2.5086  2.5050 -2.5520
  161SOPE  H17Y18095   0.084   6.954   8.518  0.9588 -0.2131 -0.6128
  161SOPE  C31818096  -0.056   6.898   8.355  0.0611 -0.8336  0.5314
  161SOPE  H18X18097  -0.135   6.974   8.375  2.2452  1.1389  2.2261
  161SOPE  H18Y18098  -0.116   6.814   8.315 -0.3530  0.1119 -0.9313
  161SOPE  H18Z18099   0.014   6.919   8.271 -1.6786 -0.8685 -0.9896
  162SOPE     N18100   4.364   6.295  10.985  0.2034 -0.0186 -0.3503
  162SOPE   HN118101   4.344   6.194  10.975 -0.2770  0.1047 -0.7078
  162SOPE   HN218102   4.391   6.310  11.084  0.9732  2.0320 -0.8223
  162SOPE   HN318103   4.276   6.347  10.961 -0.2139 -1.0901 -1.2090
  162SOPE   C1218104   4.470   6.339  10.892  0.1558  0.2598  0.1966
  162SOPE  H12A18105   4.474   6.450  10.902 -2.6464  0.3920  0.7088
  162SOPE  H12B18106   4.436   6.322  10.787  2.4525  1.0451 -0.7415
  162SOPE   C1118107   4.606   6.276  10.935  0.3825  0.0573 -0.0134
  162SOPE  H11A18108   4.609   6.171  10.970 -1.8498 -0.4034 -1.0587
  162SOPE  H11B18109   4.631   6.322  11.034  1.5919 -3.9701  1.7436
  162SOPE     P18110   4.741   6.204  10.736 -0.0550  0.0795  0.4142
  162SOPE   O1318111   4.608   6.140  10.698 -0.5969  0.4996 -0.2474
  162SOPE   O1418112   4.846   6.119  10.786 -0.0205  0.1812  0.8138
  162SOPE   O1218113   4.712   6.313  10.846  0.0043 -0.2980 -0.2996
  162SOPE   O1118114   4.793   6.301  10.625 -0.9323  0.2823  0.0474
  162SOPE    C118115   4.745   6.431  10.604  0.0420 -0.0925 -0.2980
  162SOPE    HA18116   4.799   6.503  10.669 -4.1140  1.8961  1.3524
  162SOPE    HB18117   4.635   6.441  10.615  0.0154  3.7894 -2.2562
  162SOPE    C218118   4.771   6.485  10.457  0.2394  0.6357 -0.6705
  162SOPE    HS18119   4.677   6.534  10.423 -0.1506 -1.2837 -2.6022
  162SOPE   O2118120   4.788   6.365  10.369  0.1360  0.1631  0.6621
  162SOPE   C2118121   4.675   6.315  10.332  0.1074 -0.0749 -0.5141
  162SOPE   O2218122   4.563   6.352  10.363 -0.3370  0.0090 -0.1545
  162SOPE   C2218123   4.698   6.188  10.255 -0.0560  0.1470 -0.2539
  162SOPE   H2R18124   4.606   6.128  10.242  0.0823 -0.3390  0.9565
  162SOPE   H2S18125   4.758   6.127  10.325 -1.5493 -0.6859  0.3282
  162SOPE    C318126   4.895   6.579  10.443  0.3052  0.2564 -0.2227
  162SOPE    HX18127   4.991   6.535  10.477 -0.4623 -2.3375 -1.1860
  162SOPE    HY18128   4.876   6.668  10.507  1.1581 -0.6064  1.2947
  162SOPE   O3118129   4.906   6.625  10.310  0.0659  0.4194 -0.1805
  162SOPE   C3118130   4.975   6.547  10.223  0.7127  0.3210  0.2418
  162SOPE   O3218131   5.026   6.445  10.258 -0.3765 -0.2072  0.5330
  162SOPE   C3218132   4.974   6.609  10.081  0.0775  0.3599 -0.4918
  162SOPE   H2X18133   4.999   6.716  10.099 -1.6354  0.5596  1.1141
  162SOPE   H2Y18134   4.873   6.597  10.037  0.7314 -0.7130 -1.7559
  162SOPE   C2318135   4.767   6.207  10.119 -0.0258  0.2527  0.5508
  162SOPE   H3R18136   4.800   6.104  10.091  0.2402 -0.1724  2.3105
  162SOPE   H3S18137   4.855   6.272  10.135 -0.6325  1.0074  0.8414
  162SOPE   C2418138   4.681   6.263  10.005 -0.6257 -0.8749 -0.5206
  162SOPE   H4R18139   4.592   6.197  10.005 -0.2484 -1.3933  0.4976
  162SOPE   H4S18140   4.645   6.365  10.030  0.6328 -0.1090 -1.7119
  162SOPE   C2518141   4.745   6.280   9.866  0.8579  0.1590 -0.3865
  162SOPE   H5R18142   4.833   6.347   9.878 -0.9864  2.7001 -0.1524
  162SOPE   H5S18143   4.774   6.176   9.842 -0.3679  0.2941 -2.8276
  162SOPE   C2618144   4.658   6.349   9.763 -0.9508 -0.8671 -0.6987
  162SOPE   H6R18145   4.608   6.440   9.804  0.1279 -0.1416 -0.9578
  162SOPE   H6S18146   4.724   6.379   9.678 -0.0832 -1.1809 -0.1491
  162SOPE   C2718147   4.537   6.255   9.720  0.4777 -0.9471  0.2652
  162SOPE   H7R18148   4.588   6.158   9.700  1.8763  0.0964 -1.5096
  162SOPE   H7S18149   4.468   6.246   9.806 -1.2341  1.2956 -0.7666
  162SOPE   C2818150   4.461   6.317   9.604 -0.0535 -0.4198  0.0494
  162SOPE   H8R18151   4.422   6.414   9.640  0.3187 -0.3217  0.1937
  162SOPE   H8S18152   4.530   6.339   9.520  1.0980 -4.0017 -0.0975
  162SOPE   C2918153   4.351   6.229   9.555  0.4164  0.4900 -0.0247
  162SOPE   H9118154   4.250   6.271   9.558  0.2630  0.1333 -0.2185
  162SOPE  C21018155   4.372   6.103   9.501  0.3352  0.4734  0.1598
  162SOPE  H10118156   4.297   6.059   9.433 -0.7716 -0.5248  1.9583
  162SOPE  C21118157   4.499   6.032   9.474 -0.5185 -0.6102 -0.6405
  162SOPE  H11R18158   4.521   5.945   9.539  0.0183 -0.8357 -1.1043
  162SOPE  H11S18159   4.576   6.110   9.491  1.3910 -1.8776 -2.8111
  162SOPE  C21218160   4.499   6.006   9.324 -0.6633 -0.6460  0.0289
  162SOPE  H12R18161   4.602   5.993   9.284 -0.2971 -1.6111  1.2351
  162SOPE  H12S18162   4.448   6.085   9.265 -0.1743 -1.2399 -1.2123
  162SOPE  C21318163   4.427   5.870   9.275 -0.1798  0.3407 -0.0722
  162SOPE  H13R18164   4.321   5.901   9.274 -0.2595  0.0653 -0.2651
  162SOPE  H13S18165   4.443   5.798   9.358 -1.9720  0.5054  0.4509
  162SOPE  C21418166   4.484   5.816   9.143 -0.2099 -1.0275  0.0086
  162SOPE  H14R18167   4.403   5.752   9.103 -1.6127  1.2496 -0.9846
  162SOPE  H14S18168   4.577   5.756   9.154  0.0015 -1.0191 -1.5227
  162SOPE  C21518169   4.510   5.923   9.033 -0.3506 -0.1306 -0.3722
  162SOPE  H15R18170   4.555   5.888   8.938  0.1699 -2.9674  0.8186
  162SOPE  H15S18171   4.580   5.997   9.076  1.1401  0.0865 -2.9657
  162SOPE  C21618172   4.375   6.002   8.993 -0.4471 -0.0718  0.1427
  162SOPE  H16R18173   4.323   6.051   9.078  2.2042  1.5614  0.9661
  162SOPE  H16S18174   4.312   5.930   8.935 -0.4946  0.4891 -0.5205
  162SOPE  C21718175   4.411   6.121   8.904 -0.1266  0.1648 -0.3232
  162SOPE  H17R18176   4.444   6.064   8.815  0.8916  1.3523 -0.7415
  162SOPE  H17S18177   4.495   6.180   8.947 -0.8177 -0.0360  1.3984
  162SOPE  C21818178   4.298   6.217   8.868 -0.6951  0.2343 -0.2044
  162SOPE  H18R18179   4.220   6.165   8.809 -1.9040  2.9988 -1.2455
  162SOPE  H18S18180   4.347   6.288   8.798  3.2599 -1.6270  0.4227
  162SOPE  H18T18181   4.243   6.252   8.959 -0.6208 -0.5151  0.1294
  162SOPE   C3318182   5.080   6.546   9.983  0.1948 -0.4382 -0.2080
  162SOPE   H3X18183   5.066   6.436   9.994  0.1090 -0.3676  0.4271
  162SOPE   H3Y18184   5.183   6.568  10.018  0.0631  0.7792 -0.5417
  162SOPE   C3418185   5.055   6.585   9.840 -0.2109 -0.7701  0.1226
  162SOPE   H4X18186   4.948   6.565   9.816 -0.0792 -1.5395  0.1518
  162SOPE   H4Y18187   5.104   6.503   9.783 -1.9757 -0.8149 -1.4401
  162SOPE   C3518188   5.091   6.728   9.797 -0.0131  0.0901 -0.1237
  162SOPE   H5X18189   5.202   6.740   9.799 -0.0536  0.9448  2.8695
  162SOPE   H5Y18190   5.062   6.809   9.868  3.0479  1.2271  0.0226
  162SOPE   C3618191   5.045   6.761   9.658 -0.2384 -0.2393  0.0318
  162SOPE   H6X18192   4.938   6.792   9.654 -0.1935  0.1235  1.1430
  162SOPE   H6Y18193   5.044   6.668   9.599 -0.5608 -1.1562  1.4280
  162SOPE   C3718194   5.144   6.852   9.582  0.2412  0.3465  0.6571
  162SOPE   H7X18195   5.246   6.822   9.617  1.0730  0.9046 -1.1588
  162SOPE   H7Y18196   5.134   6.959   9.611 -1.3273  0.7067 -1.0527
  162SOPE   C3818197   5.151   6.841   9.422 -0.5784 -0.4010  0.1282
  162SOPE   H8X18198   5.053   6.879   9.386 -0.2692 -0.1294 -0.4283
  162SOPE   H8Y18199   5.161   6.731   9.409 -0.7412 -0.7401  2.4482
  162SOPE   C3918200   5.273   6.908   9.357 -0.2441 -0.4081 -0.5960
  162SOPE   H9X18201   5.364   6.854   9.392  0.3213  1.8388  1.7063
  162SOPE   H9Y18202   5.280   7.014   9.390  0.0048 -0.1883 -1.3562
  162SOPE  C31018203   5.274   6.888   9.204  0.2433 -0.1959 -0.1752
  162SOPE  H10X18204   5.211   6.971   9.165  0.2945  0.7653  1.6699
  162SOPE  H10Y18205   5.232   6.791   9.168 -2.0295  1.0417 -1.0581
  162SOPE  C31118206   5.412   6.900   9.144 -0.0228 -0.1973  0.1997
  162SOPE  H11X18207   5.458   6.803   9.174 -0.2806 -1.1055 -2.1422
  162SOPE  H11Y18208   5.463   6.985   9.194  0.8837  1.5340 -3.3727
  162SOPE  C31218209   5.431   6.906   8.992 -0.1155 -0.1518 -0.1692
  162SOPE  H12X18210   5.383   6.998   8.951  3.6072  2.8861  1.5807
  162SOPE  H12Y18211   5.386   6.818   8.941  2.6612 -2.5718  1.2659
  162SOPE  C31318212   5.575   6.917   8.946 -0.8231  0.5230  0.0653
  162SOPE  H13X18213   5.636   6.831   8.981  2.0046  2.1785 -0.4551
  162SOPE  H13Y18214   5.618   7.014   8.981 -0.5947  0.5276 -0.2266
  162SOPE  C31418215   5.586   6.914   8.797  0.3625 -0.0959 -0.0219
  162SOPE  H14X18216   5.528   6.989   8.738 -0.3248 -0.8940 -0.3924
  162SOPE  H14Y18217   5.546   6.820   8.753 -1.1171  0.1531  0.7298
  162SOPE  C31518218   5.728   6.911   8.745 -0.4959 -0.5236 -0.0774
  162SOPE  H15X18219   5.729   6.853   8.651 -0.6776 -3.0364  1.3871
  162SOPE  H15Y18220   5.786   6.839   8.807 -1.3852 -1.9146 -0.8243
  162SOPE  C31618221   5.786   7.050   8.732  0.0057 -0.2817  0.5810
  162SOPE  H16X18222   5.771   7.109   8.825  1.3782  0.4823  0.3576
  162SOPE  H16Y18223   5.740   7.109   8.650  0.3109 -1.0914 -0.1924
  162SOPE  C31718224   5.933   7.018   8.691  0.4715 -0.5775 -0.0725
  162SOPE  H17X18225   5.944   6.950   8.604  0.6387 -0.9038  0.1993
  162SOPE  H17Y18226   5.969   6.959   8.778 -1.1337 -0.6549  0.5745
  162SOPE  C31818227   6.030   7.132   8.664 -0.4594  0.4149 -0.9930
  162SOPE  H18X18228   6.052   7.176   8.763  1.2473 -1.1559 -0.6287
  162SOPE  H18Y18229   5.981   7.210   8.601 -1.2997 -0.0908 -0.9889
  162SOPE  H18Z18230   6.123   7.095   8.616 -0.1146  0.8390 -0.6603
  163SOPE     N18231   5.047   2.516  10.488 -0.2462  0.1821 -0.0256
  163SOPE   HN118232   4.985   2.563  10.557 -0.4786  0.2369 -0.2703
  163SOPE   HN218233   5.000   2.443  10.430  0.3797 -0.9440  0.8288
  163SOPE   HN318234   5.136   2.484  10.531 -0.1606 -1.9344 -1.5991
  163SOPE   C1218235   5.088   2.610  10.381 -0.1127 -0.5278  0.7630
  163SOPE  H12A18236   4.997   2.629  10.320 -0.0026  1.5655  1.1866
  163SOPE  H12B18237   5.158   2.557  10.314  1.4211  0.2816  1.6686
  163SOPE   C1118238   5.158   2.722  10.443 -0.1738  0.3145 -0.1808
  163SOPE  H11A18239   5.088   2.793  10.494  1.7854  2.7997 -0.7575
  163SOPE  H11B18240   5.200   2.789  10.364  0.9155  0.4411  0.4930
  163SOPE     P18241   5.347   2.776  10.619  0.2067  0.2035 -0.0098
  163SOPE   O1318242   5.457   2.705  10.683  0.0825  0.2701  0.1409
  163SOPE   O1418243   5.249   2.841  10.710 -0.1412 -0.0452  0.2818
  163SOPE   O1218244   5.267   2.678  10.527  0.1913  0.0993 -0.0303
  163SOPE   O1118245   5.412   2.884  10.517  0.3470  0.1639  0.0418
  163SOPE    C118246   5.482   2.847  10.399  0.2074  0.5462 -0.2218
  163SOPE    HA18247   5.416   2.780  10.340  0.6098  1.7368 -2.0936
  163SOPE    HB18248   5.566   2.782  10.433  0.3768  1.7948  1.9051
  163SOPE    C218249   5.542   2.964  10.315  0.3418 -0.4444 -0.5967
  163SOPE    HS18250   5.613   3.012  10.386  0.1404  0.0203 -0.7064
  163SOPE   O2118251   5.433   3.055  10.274  0.5990  0.0943  0.1207
  163SOPE   C2118252   5.452   3.183  10.264 -0.0405  0.3137  0.5960
  163SOPE   O2218253   5.553   3.242  10.294 -0.0758 -0.1614 -0.3324
  163SOPE   C2218254   5.328   3.246  10.200  0.0099  1.2091 -0.1525
  163SOPE   H2R18255   5.282   3.331  10.256 -0.1588  0.8912  0.1912
  163SOPE   H2S18256   5.245   3.172  10.202  0.2161  0.7616 -3.1994
  163SOPE    C318257   5.610   2.910  10.186 -0.0665 -0.1541  0.2037
  163SOPE    HX18258   5.531   2.876  10.115 -0.6508  0.0474  0.7417
  163SOPE    HY18259   5.684   2.828  10.199  0.4447 -0.0006 -1.5053
  163SOPE   O3118260   5.675   3.023  10.108 -0.2270  0.5229  0.3114
  163SOPE   C3118261   5.772   3.097  10.177  0.4050 -0.4695 -0.1792
  163SOPE   O3218262   5.835   3.053  10.271  0.3296 -0.2363 -0.5104
  163SOPE   C3218263   5.804   3.236  10.121  0.0719  0.6015  0.4781
  163SOPE   H2X18264   5.796   3.307  10.207 -0.9706  3.3683 -1.7462
  163SOPE   H2Y18265   5.724   3.256  10.046 -1.4096 -1.8137  1.3027
  163SOPE   C2318266   5.354   3.310  10.061  0.0821 -0.3013 -0.1373
  163SOPE   H3R18267   5.427   3.388  10.091 -2.8792  2.0177  1.7209
  163SOPE   H3S18268   5.268   3.377  10.037  1.4185  0.8718 -1.8786
  163SOPE   C2418269   5.390   3.215   9.949  0.3412 -0.1511  0.3102
  163SOPE   H4R18270   5.471   3.141   9.967  0.4028 -0.2785 -0.4444
  163SOPE   H4S18271   5.296   3.160   9.925  0.4015 -0.7904  1.4370
  163SOPE   C2518272   5.433   3.291   9.827 -0.1994 -0.2919  0.6156
  163SOPE   H5R18273   5.368   3.378   9.801  1.1366  0.0035 -2.0416
  163SOPE   H5S18274   5.528   3.346   9.845 -1.3167  0.7894  4.0312
  163SOPE   C2618275   5.451   3.218   9.697 -0.7199 -0.5991 -0.1021
  163SOPE   H6R18276   5.527   3.137   9.709 -0.8535 -0.5854  0.9470
  163SOPE   H6S18277   5.354   3.185   9.655 -0.3738 -1.9005  0.0621
  163SOPE   C2718278   5.516   3.312   9.593  0.1443  0.4245  0.0140
  163SOPE   H7R18279   5.450   3.399   9.576 -0.2143  0.5247  1.7277
  163SOPE   H7S18280   5.617   3.339   9.631  1.1746  0.1306 -2.3102
  163SOPE   C2818281   5.540   3.242   9.456  0.4835 -0.2872 -0.0346
  163SOPE   H8R18282   5.593   3.145   9.472 -1.1447 -1.0207  1.1591
  163SOPE   H8S18283   5.444   3.217   9.406  0.6368  1.8359 -1.4911
  163SOPE   C2918284   5.622   3.333   9.382 -0.3560 -0.6734  0.5545
  163SOPE   H9118285   5.730   3.329   9.402  0.1980  3.6342 -0.6668
  163SOPE  C21018286   5.592   3.410   9.271  0.2975 -0.1675  0.7688
  163SOPE  H10118287   5.672   3.476   9.235  1.4039 -1.6789  0.3714
  163SOPE  C21118288   5.457   3.418   9.202 -0.8652  0.2191 -0.2335
  163SOPE  H11R18289   5.449   3.514   9.148  2.4508 -0.3291 -1.9562
  163SOPE  H11S18290   5.378   3.425   9.281 -0.2793  4.9397  0.1916
  163SOPE  C21218291   5.427   3.280   9.123 -0.6197 -0.1387  0.3026
  163SOPE  H12R18292   5.318   3.276   9.101 -0.2260 -0.9377 -1.6748
  163SOPE  H12S18293   5.449   3.193   9.188  0.6332  0.2610  0.4480
  163SOPE  C21318294   5.501   3.254   8.991 -0.2843 -1.0838 -0.3338
  163SOPE  H13R18295   5.468   3.163   8.937 -0.5094 -1.2383  0.0592
  163SOPE  H13S18296   5.609   3.245   9.016  0.0759 -0.5677 -1.6243
  163SOPE  C21418297   5.507   3.371   8.890 -0.1421  0.0699  0.2949
  163SOPE  H14R18298   5.579   3.331   8.814 -0.0487  0.6356  0.0770
  163SOPE  H14S18299   5.548   3.466   8.931 -0.6285  0.8398 -0.9420
  163SOPE  C21518300   5.374   3.394   8.819 -0.4929  0.1521 -0.0107
  163SOPE  H15R18301   5.331   3.491   8.853 -1.8759 -0.5216  0.2077
  163SOPE  H15S18302   5.309   3.307   8.837  2.3983 -1.6240  3.1453
  163SOPE  C21618303   5.389   3.403   8.664  0.0135 -0.6509 -0.4290
  163SOPE  H16R18304   5.290   3.393   8.614  0.0867  0.4671 -0.8282
  163SOPE  H16S18305   5.461   3.323   8.635  0.3990  0.0841 -1.5832
  163SOPE  C21718306   5.465   3.534   8.617  0.9276  0.9071 -0.5318
  163SOPE  H17R18307   5.563   3.547   8.669  0.8673  1.4070 -0.5369
  163SOPE  H17S18308   5.403   3.618   8.654 -1.5249 -1.8828  2.3080
  163SOPE  C21818309   5.487   3.547   8.471  0.2453 -0.6822 -0.1612
  163SOPE  H18R18310   5.389   3.548   8.418 -0.1437  1.6545  0.4951
  163SOPE  H18S18311   5.561   3.471   8.438  0.3829 -0.1855 -1.0289
  163SOPE  H18T18312   5.538   3.644   8.452 -1.4771  0.1622 -0.7158
  163SOPE   C3318313   5.938   3.242  10.050  0.4308 -0.3758  0.4331
  163SOPE   H3X18314   6.008   3.183  10.113 -0.4830 -0.3503  1.5086
  163SOPE   H3Y18315   5.957   3.351  10.050 -0.1419 -0.1868 -2.5806
  163SOPE   C3418316   5.938   3.208   9.903 -0.3005  1.0697  0.1437
  163SOPE   H4X18317   5.892   3.111   9.873  0.6093  0.4416  0.7185
  163SOPE   H4Y18318   6.042   3.190   9.870  0.1748  3.4392  0.1457
  163SOPE   C3518319   5.893   3.320   9.811 -0.1287 -0.1151  0.0748
  163SOPE   H5X18320   5.969   3.400   9.818  0.8580 -1.1147  1.1220
  163SOPE   H5Y18321   5.789   3.351   9.837 -0.5943 -0.6228 -1.1031
  163SOPE   C3618322   5.896   3.276   9.668  0.4003  0.2944  0.6550
  163SOPE   H6X18323   5.861   3.360   9.604 -2.8255 -1.4284 -0.0223
  163SOPE   H6Y18324   5.807   3.212   9.654 -0.2749  1.4819 -0.8368
  163SOPE   C3718325   6.017   3.211   9.621  0.4879 -0.0723  0.5258
  163SOPE   H7X18326   6.026   3.107   9.658 -2.5377 -0.2183  1.1191
  163SOPE   H7Y18327   6.103   3.270   9.658  0.9771 -1.6300  1.9450
  163SOPE   C3818328   6.025   3.202   9.469  0.8154  0.1495 -0.0797
  163SOPE   H8X18329   6.127   3.179   9.432  1.8156  4.2533 -0.3915
  163SOPE   H8Y18330   6.006   3.301   9.424  3.0801 -0.2061 -2.0248
  163SOPE   C3918331   5.924   3.093   9.422 -0.2919 -0.2510 -0.1391
  163SOPE   H9X18332   5.821   3.127   9.443 -0.0037  0.4541  0.1636
  163SOPE   H9Y18333   5.940   3.002   9.483  1.8757  1.6922  2.4672
  163SOPE  C31018334   5.914   3.084   9.265 -0.4257  0.4330 -1.0840
  163SOPE  H10X18335   6.017   3.052   9.240 -0.1419  0.3630  0.0937
  163SOPE  H10Y18336   5.896   3.189   9.234  0.7410  0.6039 -1.2304
  163SOPE  C31118337   5.810   2.981   9.213  0.1704 -0.4429 -0.6582
  163SOPE  H11X18338   5.706   3.018   9.223  0.4524  0.3049 -0.3797
  163SOPE  H11Y18339   5.818   2.883   9.264  1.4657 -0.0104  0.0227
  163SOPE  C31218340   5.837   2.962   9.061  0.4799 -0.2684 -0.3092
  163SOPE  H12X18341   5.937   2.914   9.051  1.0609  1.1144 -1.6158
  163SOPE  H12Y18342   5.855   3.066   9.027  0.8823  0.0528  0.8355
  163SOPE  C31318343   5.727   2.893   8.989  0.1453  0.3935 -0.7303
  163SOPE  H13X18344   5.640   2.956   8.962  0.7475  1.8108  0.4400
  163SOPE  H13Y18345   5.688   2.817   9.060 -0.2732  0.7428 -0.5863
  163SOPE  C31418346   5.771   2.827   8.865 -0.1903  0.3857 -0.8728
  163SOPE  H14X18347   5.832   2.894   8.802 -1.7070  0.7040 -2.0704
  163SOPE  H14Y18348   5.687   2.806   8.794 -1.8435  2.0980  0.4803
  163SOPE  C31518349   5.842   2.688   8.886  0.1955 -0.2184  0.1771
  163SOPE  H15X18350   5.769   2.604   8.892  1.6969 -1.5586  0.5044
  163SOPE  H15Y18351   5.896   2.699   8.982  0.9011 -1.3802 -0.0619
  163SOPE  C31618352   5.953   2.663   8.781  0.1978  0.3384 -0.5826
  163SOPE  H16X18353   5.910   2.663   8.679 -0.5196 -1.0267 -0.3104
  163SOPE  H16Y18354   5.990   2.559   8.797 -1.5897 -0.1963  0.3930
  163SOPE  C31718355   6.072   2.756   8.785 -0.5939  0.7765  0.6948
  163SOPE  H17X18356   6.101   2.775   8.890  0.2602 -0.8165  0.7694
  163SOPE  H17Y18357   6.035   2.855   8.750  1.9340  1.7585  0.5862
  163SOPE  C31818358   6.186   2.697   8.706 -0.2963 -0.0880 -0.2877
  163SOPE  H18X18359   6.278   2.759   8.707  0.1818 -0.5168 -4.0855
  163SOPE  H18Y18360   6.154   2.693   8.599 -1.8335  0.7125  0.1081
  163SOPE  H18Z18361   6.206   2.593   8.740  1.4322  0.3169  0.0015
  164SOPE     N18362   2.150   1.497  10.635 -0.0037  0.4379 -0.3749
  164SOPE   HN118363   2.212   1.580  10.643  2.6562 -1.3821 -0.7145
  164SOPE   HN218364   2.113   1.473  10.729 -0.1184 -0.2352 -0.5845
  164SOPE   HN318365   2.219   1.426  10.603 -0.8947 -0.5008 -0.2653
  164SOPE   C1218366   2.050   1.523  10.530  0.5627  0.3289 -0.0002
  164SOPE  H12A18367   1.955   1.552  10.582  0.0969 -0.7146 -0.2473
  164SOPE  H12B18368   2.038   1.429  10.472 -0.8836  0.4492  0.0601
  164SOPE   C1118369   2.096   1.631  10.431 -1.1942 -0.2661 -0.4457
  164SOPE  H11A18370   2.023   1.675  10.360 -0.2768  1.2182 -0.5005
  164SOPE  H11B18371   2.163   1.581  10.358  0.6672  2.0255 -0.4417
  164SOPE     P18372   2.148   1.883  10.513 -0.2278  0.1974 -0.2443
  164SOPE   O1318373   2.279   1.936  10.577  0.0217 -0.0751 -0.4563
  164SOPE   O1418374   2.020   1.912  10.576  0.6692  0.2459 -0.9332
  164SOPE   O1218375   2.169   1.733  10.503  0.5408  0.0988  0.7063
  164SOPE   O1118376   2.149   1.927  10.363  0.6572 -0.5061  0.3570
  164SOPE    C118377   2.266   1.942  10.284  0.7075  0.4369  0.1234
  164SOPE    HA18378   2.337   1.857  10.298 -0.5934 -0.4749  1.5579
  164SOPE    HB18379   2.324   2.031  10.318  1.0131 -1.1791  4.5094
  164SOPE    C218380   2.224   1.964  10.133  0.0621  0.4408  0.2902
  164SOPE    HS18381   2.315   2.008  10.087  2.0043 -0.7239  2.8248
  164SOPE   O2118382   2.110   2.046  10.126 -0.1367 -0.2814 -0.2269
  164SOPE   C2118383   2.143   2.169  10.154  0.1507 -0.6146  1.0925
  164SOPE   O2218384   2.260   2.215  10.155  0.4322  0.4734 -0.2000
  164SOPE   C2218385   2.017   2.254  10.177  0.2661 -0.6968 -0.7482
  164SOPE   H2R18386   1.993   2.264  10.285 -0.1357  1.0583 -0.9747
  164SOPE   H2S18387   1.934   2.190  10.139  0.3766 -0.7808 -0.8507
  164SOPE    C318388   2.188   1.831  10.064 -0.2326 -0.2906 -0.1516
  164SOPE    HX18389   2.108   1.777  10.118 -0.5100  0.0746 -0.1929
  164SOPE    HY18390   2.279   1.768  10.076  0.6584  1.0394  0.2772
  164SOPE   O3118391   2.165   1.843   9.925 -0.0379  0.0818 -0.1259
  164SOPE   C3118392   2.035   1.848   9.888 -0.0531  0.5024 -0.2277
  164SOPE   O3218393   1.942   1.825   9.960  0.3647 -0.1636  0.3649
  164SOPE   C3218394   2.014   1.878   9.738  0.3470  0.3660 -0.0451
  164SOPE   H2X18395   2.025   1.986   9.713  0.5052 -0.0057 -1.6927
  164SOPE   H2Y18396   1.906   1.864   9.719  0.3780 -0.7876  0.5655
  164SOPE   C2318397   1.996   2.382  10.090 -0.0396 -0.0724  0.7806
  164SOPE   H3R18398   2.095   2.430  10.097 -0.7933  1.7175 -0.2183
  164SOPE   H3S18399   1.925   2.443  10.150  0.6550  0.1203  1.4156
  164SOPE   C2418400   1.936   2.372   9.945 -1.0712  0.3148  0.6991
  164SOPE   H4R18401   1.842   2.314   9.937 -0.8231  0.1259 -1.4915
  164SOPE   H4S18402   1.910   2.473   9.907  1.6094  0.9402  0.3121
  164SOPE   C2518403   2.039   2.297   9.847  0.2727  0.3558 -0.1464
  164SOPE   H5R18404   2.136   2.337   9.881  0.5204 -2.1897  2.6426
  164SOPE   H5S18405   2.034   2.187   9.865  0.1223 -0.1239 -2.8015
  164SOPE   C2618406   1.996   2.318   9.699 -0.1222  0.3617  0.1721
  164SOPE   H6R18407   1.953   2.231   9.644 -1.2384  1.3245 -0.5154
  164SOPE   H6S18408   1.901   2.374   9.701  0.4787  1.4260 -0.3310
  164SOPE   C2718409   2.102   2.371   9.606 -1.0387 -1.0842 -0.2779
  164SOPE   H7R18410   2.134   2.471   9.643 -1.1822 -0.3218 -2.1028
  164SOPE   H7S18411   2.194   2.308   9.600 -0.2021  0.1485 -0.9088
  164SOPE   C2818412   2.049   2.398   9.461 -0.1332  0.9049 -0.1402
  164SOPE   H8R18413   1.952   2.450   9.478 -0.7573 -0.3470  0.2557
  164SOPE   H8S18414   2.116   2.472   9.411  0.4904 -0.4925 -1.4402
  164SOPE   C2918415   2.030   2.272   9.378  0.1982 -0.0358 -0.7825
  164SOPE   H9118416   2.055   2.182   9.437  1.1825  0.4184 -0.4882
  164SOPE  C21018417   1.976   2.257   9.259  1.0559  0.3907 -0.2213
  164SOPE  H10118418   1.979   2.155   9.218 -0.6298 -1.3818  3.5228
  164SOPE  C21118419   1.915   2.361   9.165 -0.3574 -0.2061  0.2788
  164SOPE  H11R18420   1.878   2.451   9.219  2.9827  0.5295  1.6121
  164SOPE  H11S18421   1.827   2.329   9.105  0.7160 -3.3627  0.1935
  164SOPE  C21218422   2.017   2.405   9.057  0.2737 -0.7963 -0.6934
  164SOPE  H12R18423   2.050   2.312   9.004  2.9014 -0.3114 -0.0546
  164SOPE  H12S18424   2.111   2.454   9.089  0.3257  0.1258 -2.1555
  164SOPE  C21318425   1.957   2.507   8.958 -0.3150 -0.4167  0.0314
  164SOPE  H13R18426   1.929   2.605   9.001 -1.9213 -0.4231 -0.9143
  164SOPE  H13S18427   1.864   2.458   8.921 -0.0104 -0.2695 -0.9639
  164SOPE  C21418428   2.042   2.519   8.828 -0.2774  0.1209 -0.2247
  164SOPE  H14R18429   2.069   2.418   8.792  2.0778  0.6803 -0.2106
  164SOPE  H14S18430   2.137   2.574   8.847 -0.4264  1.0361 -1.8916
  164SOPE  C21518431   1.968   2.606   8.730 -0.0899  0.2819 -0.4100
  164SOPE  H15R18432   1.937   2.694   8.790 -0.8710  0.0313 -0.4378
  164SOPE  H15S18433   1.875   2.562   8.689  0.5037 -1.7435  0.2679
  164SOPE  C21618434   2.056   2.641   8.613  0.0307 -0.5247 -0.3014
  164SOPE  H16R18435   1.992   2.675   8.529  1.4995  3.7080  0.0384
  164SOPE  H16S18436   2.104   2.544   8.586  0.6513 -0.2140 -0.3518
  164SOPE  C21718437   2.155   2.754   8.645 -0.1153 -0.0851 -0.0571
  164SOPE  H17R18438   2.206   2.751   8.744 -1.9458 -0.4328  0.9103
  164SOPE  H17S18439   2.079   2.833   8.659  1.5883  1.5537  0.4014
  164SOPE  C21818440   2.241   2.802   8.533 -0.9506 -0.6173 -0.1915
  164SOPE  H18R18441   2.254   2.912   8.540  1.9357 -0.8910  0.0300
  164SOPE  H18S18442   2.190   2.774   8.437  0.4824  0.3479 -1.2725
  164SOPE  H18T18443   2.343   2.757   8.534 -0.3949  0.6248  0.5136
  164SOPE   C3318444   2.100   1.802   9.639 -0.0775  0.8413 -0.0734
  164SOPE   H3X18445   2.056   1.701   9.657  0.4443  0.3464 -1.4198
  164SOPE   H3Y18446   2.206   1.811   9.671 -0.6917  1.3385  1.9425
  164SOPE   C3418447   2.067   1.828   9.495 -0.6269 -0.0496  0.1234
  164SOPE   H4X18448   2.095   1.933   9.472 -1.3690 -0.1757 -1.4816
  164SOPE   H4Y18449   1.962   1.802   9.470 -0.5416  0.0067 -0.3006
  164SOPE   C3518450   2.152   1.750   9.396 -0.3869 -0.0313  0.5293
  164SOPE   H5X18451   2.128   1.643   9.411  1.4329 -0.3747  1.2351
  164SOPE   H5Y18452   2.261   1.764   9.412  0.2763  1.4539 -3.9709
  164SOPE   C3618453   2.147   1.802   9.251 -0.4368  0.8283 -0.3001
  164SOPE   H6X18454   2.041   1.815   9.222 -0.4780 -0.5277 -0.8374
  164SOPE   H6Y18455   2.181   1.715   9.190 -0.5780  0.5090  0.0703
  164SOPE   C3718456   2.223   1.928   9.225 -0.2145  0.5307  0.4902
  164SOPE   H7X18457   2.333   1.924   9.240  0.0814  0.3748 -1.4602
  164SOPE   H7Y18458   2.188   2.006   9.295 -1.3283  2.0094 -1.6017
  164SOPE   C3818459   2.209   1.976   9.079 -0.2670  0.3173 -0.0388
  164SOPE   H8X18460   2.260   2.073   9.062  1.5894 -0.7823 -1.1191
  164SOPE   H8Y18461   2.102   1.986   9.051  0.4118  0.5225 -2.8860
  164SOPE   C3918462   2.261   1.868   8.982  0.7546 -0.1006  0.8861
  164SOPE   H9X18463   2.191   1.782   8.989  0.4228  0.1360  0.4949
  164SOPE   H9Y18464   2.357   1.822   9.013  1.0647 -1.1945 -1.5224
  164SOPE  C31018465   2.255   1.909   8.840 -0.6217 -0.2551  0.6354
  164SOPE  H10X18466   2.304   1.829   8.780 -0.7669 -0.6029  0.9833
  164SOPE  H10Y18467   2.314   2.002   8.823  0.8128 -0.8362  2.1218
  164SOPE  C31118468   2.116   1.932   8.784 -0.1962 -0.5708  0.6646
  164SOPE  H11X18469   2.067   2.008   8.848  1.2371 -0.0080  1.1445
  164SOPE  H11Y18470   2.049   1.844   8.795 -1.7426  0.0054 -2.7906
  164SOPE  C31218471   2.104   1.955   8.630  0.0228 -0.0897 -1.0851
  164SOPE  H12X18472   1.996   1.967   8.608 -0.8143 -1.0614  1.9941
  164SOPE  H12Y18473   2.153   1.866   8.584  1.5332 -0.3226  0.8230
  164SOPE  C31318474   2.164   2.090   8.590 -0.5937 -0.1113 -0.3751
  164SOPE  H13X18475   2.273   2.074   8.577 -0.0778  1.3605  1.5753
  164SOPE  H13Y18476   2.144   2.169   8.666  1.1784 -1.2803  1.4085
  164SOPE  C31418477   2.128   2.134   8.447 -0.1341  0.2819 -0.7738
  164SOPE  H14X18478   2.018   2.123   8.430 -0.1201 -1.0623 -0.1555
  164SOPE  H14Y18479   2.183   2.068   8.377  1.9957 -0.0781  1.1238
  164SOPE  C31518480   2.159   2.289   8.434 -0.3717  0.0642  0.3936
  164SOPE  H15X18481   2.234   2.339   8.498  1.1080 -0.4021 -0.8968
  164SOPE  H15Y18482   2.063   2.343   8.449 -0.4578  0.0359 -0.0238
  164SOPE  C31618483   2.187   2.321   8.282 -0.6698  0.3398 -0.5953
  164SOPE  H16X18484   2.109   2.276   8.216 -1.7156 -0.4867  1.1326
  164SOPE  H16Y18485   2.286   2.286   8.246 -1.1163 -0.5809 -0.9632
  164SOPE  C31718486   2.185   2.474   8.268  0.7285 -0.0660 -0.0281
  164SOPE  H17X18487   2.265   2.523   8.325 -1.2880 -0.5575  3.5289
  164SOPE  H17Y18488   2.087   2.514   8.303  0.4998  0.7982 -1.5822
  164SOPE  C31818489   2.197   2.508   8.122 -0.7697 -0.0830  0.2343
  164SOPE  H18X18490   2.103   2.487   8.066 -1.3346  1.0579  0.7229
  164SOPE  H18Y18491   2.277   2.446   8.078 -0.1627  0.2774  0.8175
  164SOPE  H18Z18492   2.231   2.613   8.112 -3.7624  1.0413  0.7292
  165SOPE     N18493   1.608   3.618  10.861 -0.3018  0.2104  0.4453
  165SOPE   HN118494   1.656   3.651  10.775 -1.6575  1.9114  0.2905
  165SOPE   HN218495   1.660   3.548  10.917  0.7944  0.8475  0.2506
  165SOPE   HN318496   1.524   3.567  10.826 -0.0421  0.3653 -0.4313
  165SOPE   C1218497   1.590   3.736  10.946  0.0173 -0.0156  0.4823
  165SOPE  H12A18498   1.685   3.788  10.972  1.3379 -1.3440 -1.3507
  165SOPE  H12B18499   1.537   3.699  11.036 -1.6932  2.0876  0.4336
  165SOPE   C1118500   1.520   3.853  10.881  0.4318 -0.0970  0.2208
  165SOPE  H11A18501   1.501   3.922  10.965 -0.2704  0.3686 -0.3037
  165SOPE  H11B18502   1.419   3.822  10.846  0.6076 -2.0866  1.3402
  165SOPE     P18503   1.560   4.034  10.702 -0.1992  0.1675  0.0952
  165SOPE   O1318504   1.657   4.064  10.593 -0.4516 -0.3364 -0.1993
  165SOPE   O1418505   1.532   4.141  10.797  0.5067  0.5093 -0.2479
  165SOPE   O1218506   1.603   3.906  10.787  0.2091  0.4337  0.4264
  165SOPE   O1118507   1.421   3.989  10.638  0.1491  0.7675 -0.4848
  165SOPE    C118508   1.403   3.860  10.582  0.0821  0.3948  0.2694
  165SOPE    HA18509   1.304   3.815  10.606 -0.6917  2.0513  0.3087
  165SOPE    HB18510   1.469   3.777  10.616 -0.9988 -1.9283 -2.8424
  165SOPE    C218511   1.413   3.874  10.429 -0.4106 -0.9972  0.0446
  165SOPE    HS18512   1.495   3.944  10.403 -2.8855  1.6842 -1.1503
  165SOPE   O2118513   1.299   3.921  10.355  0.2617  0.0893  0.6677
  165SOPE   C2118514   1.267   4.043  10.365  0.0777 -0.1927 -0.5608
  165SOPE   O2218515   1.329   4.131  10.422  0.6008 -0.2383  0.3292
  165SOPE   C2218516   1.134   4.054  10.292 -0.1344 -0.3475  0.0163
  165SOPE   H2R18517   1.054   3.997  10.345  0.0947 -1.7508 -1.0852
  165SOPE   H2S18518   1.153   4.005  10.194  1.6030 -1.0061  0.6538
  165SOPE    C318519   1.464   3.740  10.359  0.2230 -0.4793 -0.0982
  165SOPE    HX18520   1.392   3.658  10.379  0.4385 -0.6312  0.0502
  165SOPE    HY18521   1.566   3.720  10.398  0.2531 -0.3868 -0.1281
  165SOPE   O3118522   1.459   3.752  10.215 -0.3840  0.0985  0.2285
  165SOPE   C3118523   1.563   3.812  10.156  0.1254  0.3594  0.1375
  165SOPE   O3218524   1.656   3.859  10.221 -0.0222 -0.1323  0.4025
  165SOPE   C3218525   1.545   3.813  10.000  0.8597 -0.6867 -0.5509
  165SOPE   H2X18526   1.602   3.902   9.968 -1.8461  0.7684 -1.6985
  165SOPE   H2Y18527   1.441   3.846   9.977  1.4850  1.4274 -0.4891
  165SOPE   C2318528   1.078   4.197  10.274  0.1758 -0.3349 -0.4338
  165SOPE   H3R18529   1.159   4.257  10.228  0.3954  0.7174  1.2322
  165SOPE   H3S18530   1.057   4.250  10.370 -2.5715 -0.1759 -1.0391
  165SOPE   C2418531   0.947   4.202  10.189 -0.0446  0.2840  0.3112
  165SOPE   H4R18532   0.873   4.168  10.265  1.9815 -0.5388  1.9995
  165SOPE   H4S18533   0.909   4.305  10.172 -2.4392 -0.7802 -1.4143
  165SOPE   C2518534   0.949   4.122  10.054 -0.0875  0.4921 -1.3388
  165SOPE   H5R18535   1.049   4.139  10.010  0.6345 -1.6254 -0.6542
  165SOPE   H5S18536   0.939   4.013  10.074 -1.2217  0.6454 -0.9746
  165SOPE   C2618537   0.829   4.171   9.971  0.3675  0.3376  0.2960
  165SOPE   H6R18538   0.740   4.186  10.036  0.1571  0.3222  0.0093
  165SOPE   H6S18539   0.876   4.265   9.936 -1.1874  0.8492 -0.5215
  165SOPE   C2718540   0.795   4.082   9.854 -0.1558  0.4543 -0.6997
  165SOPE   H7R18541   0.878   4.073   9.781 -1.8551 -0.9868 -2.6064
  165SOPE   H7S18542   0.769   3.979   9.887  0.9271  0.1746 -0.6746
  165SOPE   C2818543   0.672   4.130   9.775 -0.5144  0.0090 -0.2465
  165SOPE   H8R18544   0.630   4.036   9.734 -2.6730  0.5772  0.5116
  165SOPE   H8S18545   0.590   4.163   9.843 -0.6762 -0.0356 -0.4194
  165SOPE   C2918546   0.728   4.220   9.662 -0.1869 -0.5001 -0.2069
  165SOPE   H9118547   0.786   4.304   9.705 -0.9661 -0.0793  0.0456
  165SOPE  C21018548   0.714   4.211   9.532 -0.3848  0.1168 -0.0136
  165SOPE  H10118549   0.766   4.268   9.453  0.2302 -1.3194 -0.6796
  165SOPE  C21118550   0.630   4.109   9.465  0.5228 -0.1959  0.2512
  165SOPE  H11R18551   0.545   4.155   9.412  0.0807  0.2692  1.3395
  165SOPE  H11S18552   0.598   4.031   9.538  3.3517  0.9146  2.8949
  165SOPE  C21218553   0.713   4.037   9.353  0.1374  0.1407 -0.4441
  165SOPE  H12R18554   0.652   3.955   9.311 -1.2641  1.2106 -0.5868
  165SOPE  H12S18555   0.808   4.009   9.403  0.8337  1.6015 -0.8692
  165SOPE  C21318556   0.747   4.128   9.229 -0.0033  0.3182 -0.8536
  165SOPE  H13R18557   0.810   4.067   9.161 -2.1567  0.0307 -2.7031
  165SOPE  H13S18558   0.808   4.218   9.251  0.0321  0.6670 -2.3020
  165SOPE  C21418559   0.637   4.194   9.155  0.5112 -0.1469  0.2835
  165SOPE  H14R18560   0.587   4.275   9.212  0.4733 -0.9520  1.4314
  165SOPE  H14S18561   0.563   4.114   9.133 -1.3621  1.6188 -0.1364
  165SOPE  C21518562   0.686   4.257   9.023  0.4497  0.2872 -0.1482
  165SOPE  H15R18563   0.744   4.181   8.966  1.0240  0.8339 -0.3021
  165SOPE  H15S18564   0.761   4.337   9.038  1.3013 -0.4503 -0.3870
  165SOPE  C21618565   0.564   4.303   8.946  1.1275  0.1725 -0.5216
  165SOPE  H16R18566   0.525   4.386   9.009  0.8576 -0.3213 -0.0288
  165SOPE  H16S18567   0.484   4.227   8.955  0.5487  0.9217  1.1161
  165SOPE  C21718568   0.598   4.338   8.800  0.6721  0.1884  0.0739
  165SOPE  H17R18569   0.631   4.245   8.751  0.6265  1.4016 -2.3991
  165SOPE  H17S18570   0.675   4.417   8.794 -1.2121  2.1370  0.2279
  165SOPE  C21818571   0.470   4.386   8.731  0.0346 -0.4265 -0.0965
  165SOPE  H18R18572   0.492   4.364   8.624  0.0497 -1.5243  0.1203
  165SOPE  H18S18573   0.449   4.494   8.741  0.7105 -0.1790 -1.1534
  165SOPE  H18T18574   0.390   4.319   8.768 -1.2867  1.5618  0.7909
  165SOPE   C3318575   1.584   3.678   9.941  0.5104 -0.2372  0.6990
  165SOPE   H3X18576   1.492   3.616   9.947 -0.9323  1.7752  0.4113
  165SOPE   H3Y18577   1.664   3.631  10.003  1.2277  0.8299  0.6143
  165SOPE   C3418578   1.628   3.681   9.788 -0.2596 -0.0392 -0.6488
  165SOPE   H4X18579   1.644   3.579   9.749 -0.1508  0.4755 -1.9901
  165SOPE   H4Y18580   1.726   3.732   9.780  0.2947 -1.2318 -1.7256
  165SOPE   C3518581   1.526   3.755   9.699  0.4044  0.3278  0.2937
  165SOPE   H5X18582   1.566   3.856   9.676  1.0106  0.7970  3.0500
  165SOPE   H5Y18583   1.432   3.780   9.753 -0.9939  0.0770 -1.8651
  165SOPE   C3618584   1.498   3.680   9.569 -0.5928  0.5357  0.3351
  165SOPE   H6X18585   1.409   3.727   9.523  0.1613  1.5543 -0.1125
  165SOPE   H6Y18586   1.473   3.573   9.586 -1.0929  0.4796 -0.6825
  165SOPE   C3718587   1.619   3.694   9.468 -0.2805 -0.0717 -0.0724
  165SOPE   H7X18588   1.709   3.650   9.518 -0.0953 -1.0720 -1.2515
  165SOPE   H7Y18589   1.623   3.802   9.442 -0.9584 -0.2816 -1.1031
  165SOPE   C3818590   1.605   3.620   9.331  0.1232  0.1038 -0.1177
  165SOPE   H8X18591   1.588   3.511   9.344 -1.1355  0.2605 -0.2665
  165SOPE   H8Y18592   1.700   3.629   9.274  0.5116 -0.4049  0.4371
  165SOPE   C3918593   1.500   3.678   9.233 -0.3350 -0.2435 -0.9265
  165SOPE   H9X18594   1.519   3.784   9.208 -2.8058  0.5347  0.1429
  165SOPE   H9Y18595   1.403   3.660   9.285 -1.6779 -0.8456 -3.4958
  165SOPE  C31018596   1.484   3.604   9.104  0.9015 -0.1153  0.1425
  165SOPE  H10X18597   1.490   3.495   9.123 -0.7282 -0.2380  0.1314
  165SOPE  H10Y18598   1.568   3.641   9.042  1.6462  2.6759  2.5710
  165SOPE  C31118599   1.358   3.626   9.024 -0.5340  0.2000  0.2927
  165SOPE  H11X18600   1.267   3.627   9.088 -1.2063 -3.4077 -0.3698
  165SOPE  H11Y18601   1.326   3.531   8.974 -1.6216 -0.1691  1.6362
  165SOPE  C31218602   1.365   3.746   8.929 -0.1330  0.3540  0.1096
  165SOPE  H12X18603   1.448   3.735   8.856 -0.1775  0.3158  0.0655
  165SOPE  H12Y18604   1.352   3.835   8.994 -3.3766  0.1231 -0.0254
  165SOPE  C31318605   1.247   3.762   8.833  0.7686  0.4730  0.5737
  165SOPE  H13X18606   1.156   3.784   8.893 -0.3245 -1.5515 -0.2276
  165SOPE  H13Y18607   1.228   3.669   8.774  0.4568  0.4699  0.6749
  165SOPE  C31418608   1.259   3.879   8.735 -0.2012 -0.7225  0.2510
  165SOPE  H14X18609   1.329   3.857   8.652 -0.6887 -0.8238 -0.1398
  165SOPE  H14Y18610   1.292   3.968   8.793 -3.8333  0.1730  1.1949
  165SOPE  C31518611   1.122   3.915   8.678 -0.0475 -0.7335 -0.4106
  165SOPE  H15X18612   1.061   3.954   8.761 -0.8623 -2.1068 -0.3257
  165SOPE  H15Y18613   1.091   3.813   8.646  0.5284 -1.6779  1.8409
  165SOPE  C31618614   1.117   4.012   8.566  0.5395 -0.7801  0.3647
  165SOPE  H16X18615   1.143   3.954   8.475 -1.5003 -5.7443  2.5495
  165SOPE  H16Y18616   1.186   4.097   8.583 -0.4934 -0.1477  1.6729
  165SOPE  C31718617   0.971   4.066   8.553  0.0719 -0.7930  0.2377
  165SOPE  H17X18618   0.941   4.106   8.652  0.4438  0.3320 -0.0960
  165SOPE  H17Y18619   0.909   3.975   8.535  1.0890 -1.3864 -0.3699
  165SOPE  C31818620   0.943   4.160   8.436  0.2783  0.2601  0.4328
  165SOPE  H18X18621   0.843   4.204   8.456  0.8670  2.1874 -0.6155
  165SOPE  H18Y18622   0.942   4.099   8.343 -0.5671 -1.2479  1.3930
  165SOPE  H18Z18623   1.014   4.245   8.425 -0.4875  0.9406  0.6012
  166SOPE     N18624   3.561   2.796  10.847  0.3293  0.0835 -0.2916
  166SOPE   HN118625   3.490   2.787  10.923 -0.8792  0.4211 -1.3464
  166SOPE   HN218626   3.536   2.736  10.766 -0.1188  2.1853 -1.8054
  166SOPE   HN318627   3.650   2.760  10.885 -0.7900 -2.1328  0.3605
  166SOPE   C1218628   3.578   2.941  10.792 -0.2252 -0.1884 -0.2980
  166SOPE  H12A18629   3.687   2.943  10.772 -0.4727 -1.0375 -1.9047
  166SOPE  H12B18630   3.557   3.010  10.876 -0.9646  1.2627 -1.6306
  166SOPE   C1118631   3.473   2.967  10.686 -0.5304 -0.2576  0.0179
  166SOPE  H11A18632   3.489   2.907  10.593  0.5029  0.7203 -0.4533
  166SOPE  H11B18633   3.491   3.072  10.654 -0.2965  0.3075  1.9247
  166SOPE     P18634   3.253   3.042  10.831 -0.1851 -0.4257  0.3258
  166SOPE   O1318635   3.312   3.053  10.968  0.3012  0.8318 -0.0920
  166SOPE   O1418636   3.114   2.992  10.824 -0.5672  0.0640  0.0617
  166SOPE   O1218637   3.339   2.946  10.735 -0.2198  0.0651 -0.7868
  166SOPE   O1118638   3.269   3.180  10.760  0.3151 -0.8847 -0.7624
  166SOPE    C118639   3.169   3.241  10.672 -0.1513  0.4241  0.2196
  166SOPE    HA18640   3.148   3.347  10.697 -0.7369  0.4091 -0.2083
  166SOPE    HB18641   3.079   3.178  10.687  1.8238 -2.2862  1.6505
  166SOPE    C218642   3.216   3.245  10.521 -0.2202 -0.2122  0.3465
  166SOPE    HS18643   3.230   3.140  10.485  1.9582 -0.1697  0.9115
  166SOPE   O2118644   3.339   3.321  10.502 -0.4174 -0.3216 -0.2124
  166SOPE   C2118645   3.418   3.275  10.398  0.1875 -0.2647  0.4236
  166SOPE   O2218646   3.410   3.162  10.348  0.3141  0.0244  0.3704
  166SOPE   C2218647   3.532   3.376  10.365  1.1167  0.1722 -0.0489
  166SOPE   H2R18648   3.612   3.366  10.441 -0.7501 -0.7100  1.9241
  166SOPE   H2S18649   3.477   3.471  10.380 -0.7773 -0.9148  0.2693
  166SOPE    C318650   3.098   3.305  10.443  0.6495  0.0125  0.4225
  166SOPE    HX18651   3.064   3.401  10.486  1.3632  0.6486 -0.3939
  166SOPE    HY18652   3.014   3.235  10.467  1.3304 -0.9628  0.0434
  166SOPE   O3118653   3.126   3.320  10.296 -0.0258  0.2924 -0.6377
  166SOPE   C3118654   3.100   3.205  10.228  0.4204  0.0295  0.2727
  166SOPE   O3218655   3.071   3.100  10.283 -0.6875 -0.3041 -0.0744
  166SOPE   C3218656   3.129   3.229  10.080  0.3543  0.3700  0.1245
  166SOPE   H2X18657   3.180   3.327  10.071 -2.8775  2.4807  2.2122
  166SOPE   H2Y18658   3.033   3.235  10.024  0.0703  2.1369  0.7560
  166SOPE   C2318659   3.587   3.361  10.225  0.2519 -0.6074  0.5054
  166SOPE   H3R18660   3.626   3.257  10.217  1.0696 -0.4123  1.7751
  166SOPE   H3S18661   3.674   3.428  10.208 -0.5120  0.4692  0.7524
  166SOPE   C2418662   3.482   3.398  10.125  1.1660  0.3857 -0.1319
  166SOPE   H4R18663   3.382   3.355  10.147 -1.4941  3.6731 -4.2237
  166SOPE   H4S18664   3.464   3.506  10.142 -0.4539 -0.1012  1.5948
  166SOPE   C2518665   3.531   3.384   9.981  0.5382 -0.7865  0.4087
  166SOPE   H5R18666   3.630   3.429   9.960 -0.1511  1.2359  1.2390
  166SOPE   H5S18667   3.534   3.275   9.962 -0.3251 -1.3034  2.8371
  166SOPE   C2618668   3.439   3.444   9.875  0.0549  0.4097  0.0415
  166SOPE   H6R18669   3.331   3.436   9.899  0.5960  0.7978  3.0047
  166SOPE   H6S18670   3.457   3.554   9.866  1.1740  0.1209 -1.8802
  166SOPE   C2718671   3.459   3.404   9.726  1.9275 -0.2826 -0.6548
  166SOPE   H7R18672   3.428   3.299   9.709 -2.0284  0.4087  1.1276
  166SOPE   H7S18673   3.396   3.463   9.656  0.1755  0.5225  1.4761
  166SOPE   C2818674   3.606   3.411   9.683 -0.0218  0.6696  0.1127
  166SOPE   H8R18675   3.634   3.518   9.677  0.6030  0.4673 -0.7881
  166SOPE   H8S18676   3.668   3.363   9.761  0.4753 -0.1154 -0.7487
  166SOPE   C2918677   3.637   3.333   9.549  0.5095  0.1528  0.2562
  166SOPE   H9118678   3.676   3.231   9.558  0.3892  0.2715  2.8690
  166SOPE  C21018679   3.605   3.382   9.428  0.3149  0.6060 -0.1123
  166SOPE  H10118680   3.639   3.328   9.339  1.2959  0.0948  0.5453
  166SOPE  C21118681   3.540   3.516   9.399 -0.0077 -0.7523  0.6727
  166SOPE  H11R18682   3.498   3.566   9.489 -0.5317  2.0616 -1.0419
  166SOPE  H11S18683   3.466   3.485   9.322  3.0724 -0.4167 -2.6276
  166SOPE  C21218684   3.641   3.616   9.329 -0.1160 -0.1292 -0.4726
  166SOPE  H12R18685   3.660   3.573   9.228  1.2330 -0.8608  0.0652
  166SOPE  H12S18686   3.736   3.626   9.385 -0.7087  1.4496  0.3194
  166SOPE  C21318687   3.581   3.752   9.310 -0.1546  0.4341 -0.0877
  166SOPE  H13R18688   3.664   3.817   9.274  1.5774 -1.3214  0.5646
  166SOPE  H13S18689   3.541   3.797   9.403  1.1283  2.1033 -0.2862
  166SOPE  C21418690   3.471   3.756   9.197 -0.4967 -0.5458  0.3116
  166SOPE  H14R18691   3.381   3.698   9.225 -0.4598 -0.3156  0.9399
  166SOPE  H14S18692   3.518   3.715   9.105  1.0294  1.3638  0.1801
  166SOPE  C21518693   3.443   3.896   9.142  0.0047  0.2163  1.1077
  166SOPE  H15R18694   3.363   3.880   9.067  1.6160 -1.1284 -0.4251
  166SOPE  H15S18695   3.533   3.932   9.087 -0.2980  1.7975  1.5934
  166SOPE  C21618696   3.397   3.992   9.250  0.5322  0.1333  0.5324
  166SOPE  H16R18697   3.485   4.037   9.300  0.2222  0.3814  0.8616
  166SOPE  H16S18698   3.339   3.941   9.330  0.3933 -0.3027  0.1619
  166SOPE  C21718699   3.307   4.112   9.200 -0.1821 -0.0148  0.2886
  166SOPE  H17R18700   3.242   4.145   9.284 -1.4476 -0.9986 -0.2586
  166SOPE  H17S18701   3.244   4.087   9.112 -1.4813  0.8006  0.9620
  166SOPE  C21818702   3.404   4.225   9.174  0.4452 -0.7906  0.1674
  166SOPE  H18R18703   3.476   4.190   9.096 -1.2953 -0.3207 -1.7458
  166SOPE  H18S18704   3.449   4.262   9.268  0.9074  0.6034 -0.5829
  166SOPE  H18T18705   3.352   4.311   9.127  0.0254 -1.8836 -1.4486
  166SOPE   C3318706   3.214   3.115  10.011  0.2266 -0.1656 -0.2212
  166SOPE   H3X18707   3.171   3.015  10.033  2.5013 -1.1225  0.1232
  166SOPE   H3Y18708   3.317   3.116  10.053  0.0992  1.6482  0.1350
  166SOPE   C3418709   3.221   3.133   9.861 -0.7205 -0.3678  0.1168
  166SOPE   H4X18710   3.304   3.062   9.842 -1.7488 -1.1960 -1.4800
  166SOPE   H4Y18711   3.245   3.238   9.831 -0.0848  0.8291  4.1140
  166SOPE   C3518712   3.092   3.085   9.794  0.5577  0.3886 -0.1930
  166SOPE   H5X18713   3.007   3.157   9.796  0.1477 -0.0888  1.4545
  166SOPE   H5Y18714   3.052   2.991   9.838 -1.4080  1.1714 -0.1989
  166SOPE   C3618715   3.106   3.066   9.643  0.3037  0.4544  0.0031
  166SOPE   H6X18716   3.034   2.991   9.602  2.6989 -2.1064  0.1624
  166SOPE   H6Y18717   3.201   3.008   9.641  1.1618  1.8140  0.2464
  166SOPE   C3718718   3.117   3.190   9.558  0.5167  0.1402  0.0837
  166SOPE   H7X18719   3.199   3.250   9.603  0.8757 -0.5923  0.4308
  166SOPE   H7Y18720   3.021   3.245   9.563  0.4396 -0.1028  2.0760
  166SOPE   C3818721   3.159   3.185   9.408  0.7921  0.1663 -0.6948
  166SOPE   H8X18722   3.086   3.119   9.356  0.9619 -0.2240 -0.4416
  166SOPE   H8Y18723   3.252   3.124   9.402  0.4990 -0.8295  2.8620
  166SOPE   C3918724   3.167   3.322   9.337 -0.8955 -0.6667 -0.4888
  166SOPE   H9X18725   3.226   3.397   9.394 -0.9932 -1.0757  0.1530
  166SOPE   H9Y18726   3.060   3.348   9.323 -0.5003  1.4405 -0.0005
  166SOPE  C31018727   3.248   3.323   9.205 -0.5837 -0.0758  0.3761
  166SOPE  H10X18728   3.214   3.242   9.136 -1.3506 -0.3809  1.1020
  166SOPE  H10Y18729   3.355   3.319   9.236 -0.2364 -0.8452 -0.8488
  166SOPE  C31118730   3.237   3.455   9.129  0.0732 -0.1182  0.3769
  166SOPE  H11X18731   3.252   3.543   9.195 -0.6149  0.7477 -0.5931
  166SOPE  H11Y18732   3.131   3.473   9.099  0.7082  0.3170 -1.7847
  166SOPE  C31218733   3.329   3.468   9.005 -0.6406  0.1069 -0.0928
  166SOPE  H12X18734   3.306   3.373   8.953 -1.3660 -0.1189  0.6316
  166SOPE  H12Y18735   3.432   3.476   9.047  0.0586 -0.0976 -1.6934
  166SOPE  C31318736   3.300   3.592   8.923  0.1200 -0.0426  0.2744
  166SOPE  H13X18737   3.352   3.679   8.969 -1.0091  0.5117  0.5498
  166SOPE  H13Y18738   3.191   3.609   8.930 -0.0183 -1.1498  1.1422
  166SOPE  C31418739   3.342   3.586   8.775  0.8566  0.0985 -0.2416
  166SOPE  H14X18740   3.282   3.502   8.733  1.3459 -1.8047  2.5376
  166SOPE  H14Y18741   3.448   3.552   8.775  0.5607 -0.8734 -0.0074
  166SOPE  C31518742   3.318   3.715   8.693 -0.4053 -0.4257  0.1423
  166SOPE  H15X18743   3.220   3.760   8.717 -0.9492 -1.9805  1.0235
  166SOPE  H15Y18744   3.331   3.692   8.585  1.2321  1.9416 -0.2342
  166SOPE  C31618745   3.417   3.827   8.735 -0.0791 -0.3303  0.7891
  166SOPE  H16X18746   3.519   3.785   8.741  0.2689  0.5428  1.0100
  166SOPE  H16Y18747   3.389   3.872   8.833 -2.3328 -0.4383  0.2562
  166SOPE  C31718748   3.439   3.931   8.628 -0.7600 -0.3482 -0.7156
  166SOPE  H17X18749   3.511   3.880   8.560  0.5516  3.3874 -2.4229
  166SOPE  H17Y18750   3.509   4.010   8.666  3.1731 -2.6323 -2.5301
  166SOPE  C31818751   3.327   3.991   8.550  0.5152 -0.5160  0.0799
  166SOPE  H18X18752   3.274   3.919   8.484  0.4139  1.0079 -1.5629
  166SOPE  H18Y18753   3.357   4.072   8.482 -1.2334  1.9812  2.0984
  166SOPE  H18Z18754   3.253   4.030   8.622  0.5902  1.2028 -0.7417
  167SOPE     N18755   4.890   1.357   6.016  0.4352  0.3817  0.0839
  167SOPE   HN118756   4.968   1.290   6.035 -0.4790 -1.2282 -1.5129
  167SOPE   HN218757   4.827   1.308   5.949 -0.1984  1.2794  0.0191
  167SOPE   HN318758   4.934   1.436   5.965 -0.1640  1.1119  0.6785
  167SOPE   C1218759   4.821   1.408   6.141 -0.0418  0.3023 -0.1941
  167SOPE  H12A18760   4.908   1.431   6.206  0.0825  2.5079 -1.0391
  167SOPE  H12B18761   4.757   1.326   6.178  0.7265  0.4994  1.6740
  167SOPE   C1118762   4.742   1.531   6.102  0.0873 -0.5815  0.0223
  167SOPE  H11A18763   4.689   1.557   6.195 -1.9005 -0.3535 -1.1240
  167SOPE  H11B18764   4.666   1.518   6.022  1.0215  2.9974 -1.6590
  167SOPE     P18765   4.803   1.784   6.085  0.0158  0.0701 -0.4415
  167SOPE   O1318766   4.681   1.836   6.026  0.0713  0.0929  1.1193
  167SOPE   O1418767   4.925   1.868   6.075 -0.6922  0.3285  0.2274
  167SOPE   O1218768   4.836   1.631   6.054  0.0928  0.4434  0.5197
  167SOPE   O1118769   4.771   1.784   6.241 -0.1123  0.3881 -0.1113
  167SOPE    C118770   4.868   1.717   6.330 -0.2065 -0.3226 -0.2845
  167SOPE    HA18771   4.933   1.643   6.280 -0.2194 -1.7800  1.7339
  167SOPE    HB18772   4.818   1.666   6.415 -1.0647 -0.0336 -0.6010
  167SOPE    C218773   4.965   1.825   6.397 -0.3204 -0.4540  0.5828
  167SOPE    HS18774   5.018   1.870   6.311 -1.1050  0.3825  0.5223
  167SOPE   O2118775   5.065   1.775   6.492 -0.8271 -0.0422  0.1702
  167SOPE   C2118776   5.158   1.697   6.433 -0.3843 -0.2153  0.3309
  167SOPE   O2218777   5.176   1.685   6.313  0.1187  0.4383  0.0621
  167SOPE   C2218778   5.240   1.630   6.556  0.3259  0.4275  0.5786
  167SOPE   H2R18779   5.247   1.714   6.629  0.9023  0.1565  0.8496
  167SOPE   H2S18780   5.345   1.619   6.520  0.7992  3.4372  0.8319
  167SOPE    C318781   4.889   1.940   6.477  0.2237  0.5297  0.4342
  167SOPE    HX18782   4.824   2.001   6.411 -1.8419 -0.9365  1.0322
  167SOPE    HY18783   4.950   2.022   6.521 -0.6209  1.1247  0.5138
  167SOPE   O3118784   4.814   1.875   6.588 -0.0512  0.0645  0.1315
  167SOPE   C3118785   4.746   1.960   6.659  0.2302 -0.2967  0.1558
  167SOPE   O3218786   4.741   2.078   6.646  0.1778 -0.0123  0.3322
  167SOPE   C3218787   4.668   1.884   6.772  0.1246  0.8545 -0.6849
  167SOPE   H2X18788   4.743   1.824   6.828 -0.6890 -1.7400 -2.1789
  167SOPE   H2Y18789   4.606   1.818   6.708  0.3990  1.4304 -1.5668
  167SOPE   C2318790   5.175   1.493   6.598 -1.0088  0.6764  0.0550
  167SOPE   H3R18791   5.253   1.439   6.656 -0.8322  0.7250 -0.1351
  167SOPE   H3S18792   5.159   1.430   6.507  0.8861 -1.1449  0.8969
  167SOPE   C2418793   5.033   1.502   6.661  0.2673 -0.1634 -0.6133
  167SOPE   H4R18794   4.975   1.573   6.599  4.0347  3.1294 -0.7256
  167SOPE   H4S18795   4.991   1.399   6.664  2.8440 -1.2901 -0.0772
  167SOPE   C2518796   5.033   1.560   6.803  0.8384  0.2607 -0.5018
  167SOPE   H5R18797   5.095   1.506   6.878  0.1981 -0.7440 -0.6705
  167SOPE   H5S18798   5.066   1.666   6.802 -0.8172  0.8285  0.4686
  167SOPE   C2618799   4.894   1.560   6.869  0.6581  0.7232  0.2968
  167SOPE   H6R18800   4.834   1.618   6.796 -1.2021 -1.4324  0.0234
  167SOPE   H6S18801   4.850   1.459   6.875  0.8668  0.5015 -1.5153
  167SOPE   C2718802   4.889   1.626   7.008  1.1471  0.4073 -0.8909
  167SOPE   H7R18803   4.975   1.590   7.069 -0.6246 -1.6642  0.5208
  167SOPE   H7S18804   4.924   1.731   6.998  1.1342  0.3347 -1.7911
  167SOPE   C2818805   4.758   1.607   7.081 -0.1266 -0.1885 -0.1787
  167SOPE   H8R18806   4.750   1.696   7.148  1.7389 -0.0999 -0.0023
  167SOPE   H8S18807   4.676   1.628   7.010 -0.3251 -1.1774 -0.2587
  167SOPE   C2918808   4.750   1.486   7.173  1.2655 -0.4038  0.8823
  167SOPE   H9118809   4.764   1.390   7.120 -3.3266  0.6302 -2.8913
  167SOPE  C21018810   4.722   1.484   7.304  0.1690 -0.3046  1.3817
  167SOPE  H10118811   4.706   1.385   7.350  0.3799 -0.8777  0.2592
  167SOPE  C21118812   4.699   1.600   7.400 -0.2207  0.1814  0.1111
  167SOPE  H11R18813   4.605   1.583   7.456 -0.1720 -2.1270 -0.4225
  167SOPE  H11S18814   4.674   1.689   7.338  2.1072  1.6588  1.1489
  167SOPE  C21218815   4.807   1.641   7.498  0.7550 -0.2201 -0.8420
  167SOPE  H12R18816   4.804   1.752   7.512 -2.3047 -0.5487  2.6656
  167SOPE  H12S18817   4.908   1.607   7.468  1.3087  0.9209 -0.3286
  167SOPE  C21318818   4.786   1.566   7.629  0.1650 -0.0008 -0.6509
  167SOPE  H13R18819   4.808   1.457   7.621 -0.8580 -0.3714  1.0304
  167SOPE  H13S18820   4.681   1.580   7.662  1.0621  1.3836  1.8525
  167SOPE  C21418821   4.876   1.619   7.737  0.2148 -0.0805 -0.0224
  167SOPE  H14R18822   4.844   1.723   7.759 -0.8203 -0.9547  3.0060
  167SOPE  H14S18823   4.979   1.622   7.693 -0.6024 -0.9829 -2.1321
  167SOPE  C21518824   4.877   1.545   7.873  0.3948 -0.1048  0.4077
  167SOPE  H15R18825   4.782   1.577   7.920 -0.0326  2.1687 -1.7799
  167SOPE  H15S18826   4.956   1.590   7.936 -0.5124  1.9418  0.1645
  167SOPE  C21618827   4.886   1.390   7.871  0.4602  0.5800 -0.1100
  167SOPE  H16R18828   4.971   1.359   7.806 -0.9055 -1.4349 -1.0332
  167SOPE  H16S18829   4.805   1.341   7.812 -1.2712  2.8321  0.2369
  167SOPE  C21718830   4.895   1.336   8.020  0.0668 -0.2303  0.6583
  167SOPE  H17R18831   4.886   1.420   8.092  1.4302 -0.5672  1.2451
  167SOPE  H17S18832   4.994   1.289   8.032  0.4138  0.0602 -0.7949
  167SOPE  C21818833   4.776   1.243   8.051 -0.0063  0.3327 -0.2485
  167SOPE  H18R18834   4.677   1.290   8.031 -0.8801 -1.3232  0.0116
  167SOPE  H18S18835   4.783   1.223   8.160  1.8755 -0.3520 -0.4561
  167SOPE  H18T18836   4.785   1.154   7.984  0.1037  1.0782 -1.2410
  167SOPE   C3318837   4.578   1.966   6.863 -0.0951  0.2675 -0.4475
  167SOPE   H3X18838   4.493   2.016   6.811  0.9494  0.3717 -2.1052
  167SOPE   H3Y18839   4.636   2.048   6.909  1.4064 -0.1479 -1.5303
  167SOPE   C3418840   4.530   1.874   6.978 -0.2544 -0.2174  0.1106
  167SOPE   H4X18841   4.613   1.835   7.040  0.9189  1.5094 -0.3204
  167SOPE   H4Y18842   4.472   1.787   6.940  0.6365 -0.6927 -0.1797
  167SOPE   C3518843   4.445   1.955   7.078 -0.7215  0.9166 -0.1733
  167SOPE   H5X18844   4.343   1.984   7.045 -1.4425 -0.3557  0.8328
  167SOPE   H5Y18845   4.501   2.051   7.079  0.1129  0.4579 -1.4604
  167SOPE   C3618846   4.432   1.871   7.212 -0.5973  0.4742  0.5416
  167SOPE   H6X18847   4.512   1.795   7.222 -1.0164  0.1952  2.0273
  167SOPE   H6Y18848   4.342   1.809   7.192  0.8086 -1.3439 -0.4340
  167SOPE   C3718849   4.408   1.966   7.333  0.1360  0.2631  0.5780
  167SOPE   H7X18850   4.307   2.009   7.318 -0.2012 -1.2613 -2.1855
  167SOPE   H7Y18851   4.489   2.042   7.333 -1.1165  1.6413  0.8056
  167SOPE   C3818852   4.414   1.889   7.468 -0.6131  0.1493  0.0466
  167SOPE   H8X18853   4.376   1.969   7.536  0.1451  0.2154  0.4054
  167SOPE   H8Y18854   4.516   1.887   7.511 -0.7003 -0.4100  0.2420
  167SOPE   C3918855   4.328   1.766   7.484 -0.3718  1.1026 -0.0118
  167SOPE   H9X18856   4.371   1.679   7.429  0.4352 -1.5801  4.3505
  167SOPE   H9Y18857   4.229   1.786   7.438 -0.3783 -3.6361 -2.7647
  167SOPE  C31018858   4.298   1.718   7.627  0.3505  0.0414 -0.1629
  167SOPE  H10X18859   4.227   1.638   7.600 -0.1693  0.5095 -0.2149
  167SOPE  H10Y18860   4.251   1.798   7.689  0.0689 -0.7126  0.6126
  167SOPE  C31118861   4.417   1.661   7.705 -0.1015 -0.1697  0.2729
  167SOPE  H11X18862   4.487   1.746   7.724  0.3492 -0.6598  0.8554
  167SOPE  H11Y18863   4.463   1.580   7.644  0.7078  0.1616  0.4247
  167SOPE  C31218864   4.378   1.620   7.844 -0.2037  0.3615 -0.4137
  167SOPE  H12X18865   4.325   1.523   7.827  0.4009  0.1153 -0.9245
  167SOPE  H12Y18866   4.302   1.688   7.887 -0.5653  1.3647 -2.4945
  167SOPE  C31318867   4.501   1.617   7.946  0.0182  0.7478 -0.2649
  167SOPE  H13X18868   4.552   1.715   7.931  1.6463 -0.1408 -0.7882
  167SOPE  H13Y18869   4.574   1.539   7.916  0.7445  0.3281  2.3850
  167SOPE  C31418870   4.467   1.591   8.094 -0.1313  0.5502 -0.8640
  167SOPE  H14X18871   4.531   1.511   8.136 -1.5743  0.3494  1.1072
  167SOPE  H14Y18872   4.362   1.555   8.101 -0.5405  1.6384 -1.1370
  167SOPE  C31518873   4.479   1.715   8.180  0.2881 -0.0215  0.2613
  167SOPE  H15X18874   4.406   1.697   8.262 -1.7958  2.8096 -0.7953
  167SOPE  H15Y18875   4.426   1.793   8.121 -1.6502 -0.5357  1.2513
  167SOPE  C31618876   4.627   1.749   8.217  0.2662 -0.2485 -0.1987
  167SOPE  H16X18877   4.636   1.852   8.257  3.2185  0.1247 -1.5625
  167SOPE  H16Y18878   4.705   1.750   8.137  1.1901 -1.4967  0.6480
  167SOPE  C31718879   4.685   1.647   8.318  0.4798  0.5801 -0.5971
  167SOPE  H17X18880   4.643   1.545   8.303  0.7811  0.2448  0.6709
  167SOPE  H17Y18881   4.663   1.675   8.424  1.0172  1.0750 -0.6143
  167SOPE  C31818882   4.835   1.626   8.312  0.2316 -0.8901 -0.3271
  167SOPE  H18X18883   4.855   1.531   8.365 -2.2452 -0.2958  1.8867
  167SOPE  H18Y18884   4.883   1.704   8.375 -1.3814  1.8188 -2.2403
  167SOPE  H18Z18885   4.880   1.619   8.210  0.5158 -2.4813 -0.1150
  168SOPE     N18886   0.063   6.779   6.056  0.8452 -0.2643 -0.3451
  168SOPE   HN118887   0.064   6.880   6.080  2.3042 -0.2178 -0.5008
  168SOPE   HN218888   0.116   6.772   5.967 -1.0258 -0.2967 -1.4881
  168SOPE   HN318889  -0.039   6.759   6.054  0.5134  1.2949 -0.4440
  168SOPE   C1218890   0.106   6.683   6.160  0.1120  0.5099 -0.1226
  168SOPE  H12A18891   0.091   6.582   6.117  0.7569 -1.2188  3.3597
  168SOPE  H12B18892   0.039   6.685   6.249  1.1171 -1.3720  0.7340
  168SOPE   C1118893   0.259   6.708   6.193 -0.3621  0.1071  0.3901
  168SOPE  H11A18894   0.320   6.679   6.105  1.4237 -0.2537  1.6767
  168SOPE  H11B18895   0.293   6.641   6.276 -0.6589  1.0085  1.2596
  168SOPE     P18896   0.266   6.927   6.351 -0.0484 -0.0695  0.3042
  168SOPE   O1318897   0.174   7.044   6.330 -0.0390 -0.2143  0.4925
  168SOPE   O1418898   0.397   6.958   6.414  0.0452  0.2051  0.7327
  168SOPE   O1218899   0.292   6.845   6.219 -0.4051 -0.1452  0.3885
  168SOPE   O1118900   0.184   6.823   6.436  0.0380  0.7573 -0.3668
  168SOPE    C118901   0.238   6.745   6.544 -0.5129  0.1110 -0.3618
  168SOPE    HA18902   0.349   6.740   6.541 -0.5439 -0.7624 -0.3838
  168SOPE    HB18903   0.197   6.642   6.529  0.2244 -0.1151 -0.8830
  168SOPE    C218904   0.206   6.807   6.693 -0.1297 -0.1388 -0.2169
  168SOPE    HS18905   0.105   6.775   6.725  0.3884  1.2003  3.3141
  168SOPE   O2118906   0.224   6.947   6.685 -0.4870 -0.2876 -0.7041
  168SOPE   C2118907   0.119   7.033   6.673  0.3599  0.7757 -0.4863
  168SOPE   O2218908  -0.001   6.995   6.670 -0.7275  0.4414  0.4531
  168SOPE   C2218909   0.167   7.174   6.673 -0.7721  0.9001 -0.0262
  168SOPE   H2R18910   0.084   7.238   6.636 -1.3662  1.0241  1.4560
  168SOPE   H2S18911   0.250   7.178   6.600  1.1954 -1.1848  1.9275
  168SOPE    C318912   0.298   6.756   6.807  0.4803  0.1553 -0.0549
  168SOPE    HX18913   0.398   6.784   6.768 -0.0134  1.0901 -0.6829
  168SOPE    HY18914   0.290   6.645   6.802  2.7821 -0.1844  2.0711
  168SOPE   O3118915   0.264   6.816   6.933 -0.3987  0.2991  0.1945
  168SOPE   C3118916   0.195   6.732   7.015  0.4957 -0.9452 -0.1953
  168SOPE   O3218917   0.170   6.615   6.989 -0.2442 -0.9237  0.5377
  168SOPE   C3218918   0.154   6.817   7.139 -0.6044  0.4812  0.1807
  168SOPE   H2X18919   0.070   6.883   7.108 -0.2199  0.6654 -0.5137
  168SOPE   H2Y18920   0.240   6.877   7.174  1.7429 -2.7787  0.4373
  168SOPE   C2318921   0.217   7.220   6.816 -0.1242  0.6689  0.9319
  168SOPE   H3R18922   0.277   7.313   6.809 -0.4232  0.8153  0.2089
  168SOPE   H3S18923   0.276   7.141   6.868 -1.5265 -0.1546  1.3402
  168SOPE   C2418924   0.102   7.246   6.909 -0.6288  0.4045 -1.2514
  168SOPE   H4R18925   0.032   7.325   6.875  0.5199  2.9944  1.9320
  168SOPE   H4S18926   0.045   7.151   6.922 -0.5409  0.6843  1.7721
  168SOPE   C2518927   0.156   7.274   7.049  0.1745  0.3158 -0.3210
  168SOPE   H5R18928   0.233   7.205   7.088  0.2353 -0.3393 -1.5495
  168SOPE   H5S18929   0.207   7.372   7.039  1.0537  0.0331  1.1001
  168SOPE   C2618930   0.033   7.291   7.142  0.4194  0.2278  0.1481
  168SOPE   H6R18931  -0.057   7.332   7.090  0.7332  0.1742 -0.4480
  168SOPE   H6S18932   0.013   7.192   7.188  0.5675  0.1153 -0.0326
  168SOPE   C2718933   0.045   7.395   7.259 -0.3083 -0.2682  0.2545
  168SOPE   H7R18934   0.080   7.490   7.214  0.9338 -0.6485  0.3869
  168SOPE   H7S18935  -0.053   7.413   7.310 -1.3390 -3.5072 -0.3271
  168SOPE   C2818936   0.150   7.352   7.360  0.0946 -0.9829  0.1807
  168SOPE   H8R18937   0.235   7.323   7.294 -0.6155 -0.4758 -1.0103
  168SOPE   H8S18938   0.185   7.440   7.418  0.9606 -1.2878  0.1358
  168SOPE   C2918939   0.121   7.238   7.454 -0.0258  0.0920 -0.2381
  168SOPE   H9118940   0.153   7.139   7.418  2.1364  1.5882 -2.8320
  168SOPE  C21018941   0.052   7.249   7.570  0.0091  0.2707 -0.3756
  168SOPE  H10118942   0.051   7.158   7.631  3.5434 -0.2806 -0.9311
  168SOPE  C21118943  -0.023   7.366   7.623 -0.7340  0.6270  0.1640
  168SOPE  H11R18944  -0.102   7.336   7.696 -1.5451  1.2215 -0.4472
  168SOPE  H11S18945  -0.072   7.427   7.545  1.8969 -0.6920 -2.7100
  168SOPE  C21218946   0.069   7.452   7.715  0.3547 -0.2982 -0.7639
  168SOPE  H12R18947   0.172   7.450   7.672  2.2355  1.5084  3.1440
  168SOPE  H12S18948   0.086   7.399   7.811 -1.9611  1.1656  0.5270
  168SOPE  C21318949   0.008   7.590   7.742 -0.8592  0.7474  0.5745
  168SOPE  H13R18950  -0.101   7.579   7.763 -0.6507 -0.2060  1.2137
  168SOPE  H13S18951   0.020   7.641   7.644 -2.0226 -2.1223 -1.1816
  168SOPE  C21418952   0.079   7.667   7.855  0.1877  0.0483 -0.5427
  168SOPE  H14R18953   0.186   7.675   7.827  0.3060 -0.4851 -0.2621
  168SOPE  H14S18954   0.079   7.606   7.948  0.3810 -0.2646 -0.7457
  168SOPE  C21518955   0.025   7.810   7.863  0.5672  0.2208 -0.7137
  168SOPE  H15R18956  -0.055   7.818   7.939  0.6903  0.0204 -0.5636
  168SOPE  H15S18957  -0.010   7.830   7.759  0.4910  0.1258 -0.7063
  168SOPE  C21618958   0.141   7.906   7.880 -0.6600 -0.8285  0.3709
  168SOPE  H16R18959   0.209   7.894   7.793 -0.7780  0.2483  0.1130
  168SOPE  H16S18960   0.197   7.879   7.972  0.3582  2.0932  0.7437
  168SOPE  C21718961   0.090   8.046   7.894  0.1836 -0.5597 -0.0677
  168SOPE  H17R18962   0.036   8.050   7.991 -1.5893 -1.3318 -0.9638
  168SOPE  H17S18963   0.007   8.077   7.827 -0.0232  1.6370  1.0961
  168SOPE  C21818964   0.199   8.156   7.880 -0.0382  0.6902  0.0097
  168SOPE  H18R18965   0.147   8.253   7.891 -1.4561  0.3800 -2.9966
  168SOPE  H18S18966   0.244   8.148   7.779 -1.6453 -0.1275 -0.6818
  168SOPE  H18T18967   0.273   8.136   7.960 -0.9556 -1.9307  0.2931
  168SOPE   C3318968   0.108   6.732   7.259  0.0610  0.4462 -0.2183
  168SOPE   H3X18969   0.195   6.674   7.298 -0.1148  0.0921 -0.3523
  168SOPE   H3Y18970   0.031   6.655   7.237  0.5046  0.1872 -0.8732
  168SOPE   C3418971   0.063   6.805   7.380 -0.3316  0.0238  0.1056
  168SOPE   H4X18972  -0.043   6.826   7.356 -0.5844 -0.4081  0.8344
  168SOPE   H4Y18973   0.122   6.899   7.387  0.0093 -0.2738  1.7482
  168SOPE   C3518974   0.059   6.716   7.503 -0.2917 -0.7002  0.2056
  168SOPE   H5X18975   0.159   6.680   7.533 -0.8114 -0.4240  2.4476
  168SOPE   H5Y18976  -0.007   6.630   7.477 -1.9661  0.4928  0.3575
  168SOPE   C3618977  -0.013   6.786   7.617  0.4114 -0.3638  0.3837
  168SOPE   H6X18978  -0.046   6.698   7.676  0.3556 -1.0755 -0.6734
  168SOPE   H6Y18979  -0.111   6.831   7.588 -0.9112 -2.0966  1.9141
  168SOPE   C3718980   0.081   6.877   7.687  0.2791 -0.1090  0.0594
  168SOPE   H7X18981   0.123   6.944   7.610  0.2666 -1.4194 -1.1181
  168SOPE   H7Y18982   0.152   6.811   7.742  1.8450  0.1486 -1.5883
  168SOPE   C3818983   0.027   6.967   7.802 -0.4293 -0.2057 -0.0972
  168SOPE   H8X18984  -0.031   6.908   7.877  1.2634 -0.1204  1.3258
  168SOPE   H8Y18985  -0.044   7.040   7.758 -0.9455 -0.8967 -0.4225
  168SOPE   C3918986   0.131   7.040   7.886  0.0425  0.1177  0.0347
  168SOPE   H9X18987   0.073   7.119   7.938 -0.9950  0.3897 -1.4602
  168SOPE   H9Y18988   0.206   7.090   7.820 -2.4809  2.2971 -1.3556
  168SOPE  C31018989   0.220   6.956   7.983  0.3862 -0.6367  0.3591
  168SOPE  H10X18990   0.301   6.902   7.927  1.0865 -1.4042  2.0438
  168SOPE  H10Y18991   0.154   6.882   8.033 -0.8283 -0.8693 -1.5068
  168SOPE  C31118992   0.295   7.033   8.097  0.6946 -0.1524  0.6875
  168SOPE  H11X18993   0.214   7.068   8.164  0.0683 -1.0964  0.4522
  168SOPE  H11Y18994   0.355   7.121   8.065  0.7527  0.2027  1.7506
  168SOPE  C31218995   0.388   6.935   8.175  0.6580  0.8969 -0.4659
  168SOPE  H12X18996   0.471   6.886   8.119  1.1469 -0.1626  1.1079
  168SOPE  H12Y18997   0.332   6.852   8.223  1.8066  0.0226 -0.5888
  168SOPE  C31318998   0.453   7.023   8.290  0.2478 -0.2072 -0.1226
  168SOPE  H13X18999   0.368   7.078   8.336  0.6496  1.3890 -1.1999
  168SOPE  H13Y19000   0.500   7.102   8.228 -0.1821 -1.6476 -2.3826
  168SOPE  C31419001   0.528   6.941   8.392  0.7653 -0.0523 -0.1903
  168SOPE  H14X19002   0.601   6.872   8.346  0.6936 -0.9237  0.9617
  168SOPE  H14Y19003   0.451   6.887   8.451  0.8459  0.1990  0.1530
  168SOPE  C31519004   0.614   7.017   8.496  0.2067 -0.5018  0.4047
  168SOPE  H15X19005   0.653   7.103   8.437  0.6201 -0.2859  0.9815
  168SOPE  H15Y19006   0.702   6.959   8.531  0.8012  1.2841  2.0466
  168SOPE  C31619007   0.531   7.061   8.616  0.1768  0.1792 -0.7550
  168SOPE  H16X19008   0.498   6.970   8.671 -0.2531  1.1416  0.6474
  168SOPE  H16Y19009   0.442   7.122   8.591 -0.2215  0.5995  1.4159
  168SOPE  C31719010   0.604   7.144   8.728  0.4689  0.0586 -0.1211
  168SOPE  H17X19011   0.538   7.143   8.817  1.1456 -0.1815  0.3824
  168SOPE  H17Y19012   0.615   7.251   8.701 -1.9840  0.6900  1.0614
  168SOPE  C31819013   0.749   7.095   8.761 -0.1334 -0.2072 -0.4021
  168SOPE  H18X19014   0.820   7.107   8.677 -0.4753 -1.4293 -0.8751
  168SOPE  H18Y19015   0.750   6.987   8.787 -1.1486 -0.0234  0.4992
  168SOPE  H18Z19016   0.786   7.153   8.848 -1.5002 -0.6397  0.5084
  169SOPE     N19017   1.764   2.079   6.308  0.9759 -0.0302 -0.5878
  169SOPE   HN119018   1.763   2.183   6.306 -1.3881 -0.0086 -2.0298
  169SOPE   HN219019   1.861   2.047   6.324 -0.0687 -3.2870 -0.0049
  169SOPE   HN319020   1.736   2.035   6.218  1.6404 -4.3477  1.0756
  169SOPE   C1219021   1.685   2.020   6.419  0.0867 -0.1988 -0.4042
  169SOPE  H12A19022   1.640   1.925   6.381  2.4187 -1.6137  0.1642
  169SOPE  H12B19023   1.615   2.087   6.473  0.7631 -0.2414  0.5473
  169SOPE   C1119024   1.789   1.964   6.523  0.0175 -0.8735  0.0578
  169SOPE  H11A19025   1.740   1.918   6.612 -0.9965 -1.5875 -0.8492
  169SOPE  H11B19026   1.830   2.058   6.565  0.2497 -0.9522  0.0076
  169SOPE     P19027   2.023   1.893   6.426  0.1042 -0.0832  0.3365
  169SOPE   O1319028   2.022   2.015   6.336 -0.1649  0.2750 -0.7150
  169SOPE   O1419029   2.080   1.768   6.369  0.1902 -0.7664  0.4045
  169SOPE   O1219030   1.883   1.863   6.480  0.2779  0.2767  0.8651
  169SOPE   O1119031   2.101   1.946   6.563  0.2584  0.3727 -0.0328
  169SOPE    C119032   2.108   1.868   6.682 -0.2229  0.1826 -0.3222
  169SOPE    HA19033   2.006   1.831   6.708  0.3037 -1.5203 -0.5638
  169SOPE    HB19034   2.143   1.934   6.764  0.0565 -0.8513  0.3987
  169SOPE    C219035   2.204   1.745   6.683 -0.3011  0.2138 -0.0840
  169SOPE    HS19036   2.275   1.761   6.599  0.2118  0.0080  0.3056
  169SOPE   O2119037   2.130   1.626   6.661  0.2703 -0.2112 -0.3138
  169SOPE   C2119038   2.185   1.528   6.593 -1.1149 -0.3254 -0.4668
  169SOPE   O2219039   2.297   1.531   6.541 -0.1706 -0.0892  0.0374
  169SOPE   C2219040   2.096   1.399   6.603  0.1304 -0.2746  0.3121
  169SOPE   H2R19041   2.127   1.333   6.519  0.8051 -1.0335  1.1429
  169SOPE   H2S19042   1.988   1.427   6.596  0.4786  1.2558  0.5670
  169SOPE    C319043   2.280   1.731   6.813  0.1863 -0.5824 -0.2597
  169SOPE    HX19044   2.204   1.722   6.894 -0.5630 -0.2137 -0.9103
  169SOPE    HY19045   2.338   1.824   6.834 -1.5666  0.1666  1.5022
  169SOPE   O3119046   2.359   1.611   6.811 -0.5530 -0.0453  0.8315
  169SOPE   C3119047   2.434   1.586   6.917 -0.2651  0.3920  0.4830
  169SOPE   O3219048   2.460   1.664   7.002  0.2295  0.1082  0.3319
  169SOPE   C3219049   2.472   1.442   6.908 -0.0526  0.4635 -0.0160
  169SOPE   H2X19050   2.405   1.390   6.837 -1.8513  0.0418  1.8809
  169SOPE   H2Y19051   2.464   1.396   7.009  1.0082  0.5863  0.1449
  169SOPE   C2319052   2.117   1.325   6.741  0.1670 -0.2033  0.3306
  169SOPE   H3R19053   2.226   1.322   6.762 -0.0945 -0.3416  1.7598
  169SOPE   H3S19054   2.085   1.219   6.729  1.6306 -0.4389 -2.1571
  169SOPE   C2419055   2.027   1.374   6.861 -0.0467 -0.0615  0.1040
  169SOPE   H4R19056   2.049   1.479   6.890  1.3503 -0.4578  0.5453
  169SOPE   H4S19057   1.923   1.374   6.822 -0.6273  0.5510  1.6002
  169SOPE   C2519058   2.032   1.276   6.982  0.8778 -0.5382 -0.1220
  169SOPE   H5R19059   1.939   1.266   7.041  0.2529 -4.2202 -1.4509
  169SOPE   H5S19060   2.045   1.175   6.937 -0.5581 -1.0824  0.6301
  169SOPE   C2619061   2.152   1.310   7.070 -0.5067 -0.2611  0.2528
  169SOPE   H6R19062   2.234   1.323   6.996 -0.7823 -1.0226 -0.1953
  169SOPE   H6S19063   2.125   1.404   7.123 -1.5749 -0.5547  0.2493
  169SOPE   C2719064   2.193   1.200   7.168  0.2293  0.2666  0.6667
  169SOPE   H7R19065   2.103   1.174   7.228  1.1137 -1.6220  1.2197
  169SOPE   H7S19066   2.210   1.114   7.100 -2.1915 -0.2801  0.6288
  169SOPE   C2819067   2.310   1.235   7.263 -0.6156  0.7163  0.2181
  169SOPE   H8R19068   2.332   1.143   7.321 -0.5854 -0.5024 -1.6261
  169SOPE   H8S19069   2.405   1.269   7.217  0.9564 -0.0788  2.6867
  169SOPE   C2919070   2.255   1.331   7.363  0.6804  0.1526  0.6091
  169SOPE   H9119071   2.176   1.395   7.321 -0.3297  0.9139  3.4535
  169SOPE  C21019072   2.283   1.353   7.493 -0.5350  0.6837 -1.1017
  169SOPE  H10119073   2.252   1.439   7.554 -0.3556  0.3241 -0.4964
  169SOPE  C21119074   2.389   1.270   7.570 -0.7965 -0.4635  0.1648
  169SOPE  H11R19075   2.444   1.339   7.638 -0.1150 -1.6383  0.8355
  169SOPE  H11S19076   2.474   1.248   7.502 -0.2220 -2.2666  1.3880
  169SOPE  C21219077   2.341   1.141   7.647  0.2289 -0.0547  0.6602
  169SOPE  H12R19078   2.288   1.078   7.573  1.9079 -1.4889  0.6151
  169SOPE  H12S19079   2.272   1.166   7.731 -0.5463 -1.1058  0.3662
  169SOPE  C21319080   2.459   1.066   7.716  0.6117 -0.1238 -0.3102
  169SOPE  H13R19081   2.505   1.138   7.786 -0.6619  1.4815 -1.0561
  169SOPE  H13S19082   2.531   1.046   7.633 -0.2611  0.9051 -1.3514
  169SOPE  C21419083   2.418   0.940   7.790 -0.2419 -0.4127  0.0765
  169SOPE  H14R19084   2.511   0.898   7.835  0.3010  0.5587 -0.1220
  169SOPE  H14S19085   2.371   0.860   7.728  0.2535  0.8632 -2.0578
  169SOPE  C21519086   2.318   0.967   7.908  0.0045  0.0566  0.1417
  169SOPE  H15R19087   2.215   0.972   7.866  0.5284  3.3813 -1.0010
  169SOPE  H15S19088   2.326   1.064   7.961 -0.6780 -0.8615  1.9872
  169SOPE  C21619089   2.318   0.856   8.013  0.2026 -0.2776  0.0497
  169SOPE  H16R19090   2.420   0.846   8.056  0.3660  0.6886 -0.0942
  169SOPE  H16S19091   2.299   0.762   7.957 -1.8714  0.8713 -1.2870
  169SOPE  C21719092   2.222   0.877   8.134 -0.4606 -0.3562 -0.2690
  169SOPE  H17R19093   2.248   0.790   8.199 -0.8277  0.3221  0.7922
  169SOPE  H17S19094   2.117   0.872   8.099 -1.1280  1.6449  1.2957
  169SOPE  C21819095   2.238   1.008   8.206  0.3869  0.3671  0.1945
  169SOPE  H18R19096   2.173   1.007   8.296 -0.8598  2.3877 -0.6159
  169SOPE  H18S19097   2.192   1.089   8.146  0.0758  1.9008  2.3804
  169SOPE  H18T19098   2.340   1.048   8.225  0.1659  0.6085  0.9204
  169SOPE   C3319099   2.620   1.424   6.884 -0.2039  0.1483  0.3258
  169SOPE   H3X19100   2.633   1.441   6.775  0.9403 -0.4128  0.3672
  169SOPE   H3Y19101   2.640   1.316   6.897  0.1814  0.4398  2.5014
  169SOPE   C3419102   2.720   1.495   6.967 -0.0764 -0.5907 -0.1980
  169SOPE   H4X19103   2.708   1.604   6.951 -1.0337 -0.5757  0.5880
  169SOPE   H4Y19104   2.821   1.468   6.930 -0.3345  1.1716 -2.3616
  169SOPE   C3519105   2.726   1.474   7.117  0.5536  0.1910 -0.0434
  169SOPE   H5X19106   2.624   1.498   7.153  0.4163 -2.2783  1.5272
  169SOPE   H5Y19107   2.790   1.552   7.163 -0.5991  1.1267  0.0050
  169SOPE   C3619108   2.774   1.335   7.164 -0.0981  1.1253 -0.1683
  169SOPE   H6X19109   2.878   1.326   7.124 -0.1852 -0.1537 -0.1303
  169SOPE   H6Y19110   2.707   1.256   7.125 -1.0026  0.6876  2.1129
  169SOPE   C3719111   2.775   1.321   7.321 -0.1708  0.3897 -0.6629
  169SOPE   H7X19112   2.676   1.278   7.349  1.0649 -0.7830  2.4631
  169SOPE   H7Y19113   2.768   1.426   7.358 -1.3806  0.2012 -0.3039
  169SOPE   C3819114   2.892   1.245   7.386  0.4403  0.3084  0.0446
  169SOPE   H8X19115   2.857   1.142   7.362  2.2965 -0.3232 -0.0799
  169SOPE   H8Y19116   2.985   1.261   7.327  0.8477  3.1926  1.2953
  169SOPE   C3919117   2.909   1.273   7.534 -0.5957 -0.2725  0.1583
  169SOPE   H9X19118   2.895   1.382   7.551 -1.8310 -0.3754 -0.1332
  169SOPE   H9Y19119   3.011   1.235   7.556 -0.9796 -0.7554  1.1732
  169SOPE  C31019120   2.804   1.201   7.623 -0.6956  0.3557  0.0654
  169SOPE  H10X19121   2.827   1.093   7.614  0.9936  0.7299 -0.6073
  169SOPE  H10Y19122   2.701   1.218   7.587 -0.2227  2.5275 -0.4276
  169SOPE  C31119123   2.811   1.262   7.766  0.7077  0.4985  0.2642
  169SOPE  H11X19124   2.744   1.213   7.839  1.1098 -1.8439 -0.8207
  169SOPE  H11Y19125   2.788   1.368   7.747  3.8676  0.9987 -1.6465
  169SOPE  C31219126   2.959   1.255   7.830  0.8084  0.2420  0.7420
  169SOPE  H12X19127   3.036   1.288   7.757 -0.2080  2.7128  0.6916
  169SOPE  H12Y19128   2.982   1.154   7.870  1.0578 -0.9394 -2.1038
  169SOPE  C31319129   2.974   1.354   7.947 -0.4762 -0.2706 -0.5258
  169SOPE  H13X19130   2.900   1.336   8.027  0.6932 -0.7118  0.4797
  169SOPE  H13Y19131   2.954   1.459   7.915 -1.9034 -0.1832  0.5868
  169SOPE  C31419132   3.119   1.345   8.005 -0.2469  0.6649  0.2050
  169SOPE  H14X19133   3.199   1.364   7.930  1.9299 -1.5331  1.7830
  169SOPE  H14Y19134   3.130   1.242   8.045 -1.3474  1.2758  2.1838
  169SOPE  C31519135   3.131   1.442   8.126 -0.2092  0.6861  0.2950
  169SOPE  H15X19136   3.092   1.543   8.099 -0.6026  1.0328  2.0574
  169SOPE  H15Y19137   3.239   1.446   8.151 -0.5210  0.3376  1.7696
  169SOPE  C31619138   3.066   1.396   8.267  0.3456 -0.1923  0.1739
  169SOPE  H16X19139   3.122   1.311   8.312  1.3158  0.8774  1.0376
  169SOPE  H16Y19140   2.968   1.354   8.238 -0.4283  1.5219  0.2165
  169SOPE  C31719141   3.044   1.513   8.363 -0.3587 -0.0174 -0.3823
  169SOPE  H17X19142   3.133   1.573   8.392 -2.3947  1.2886  3.9952
  169SOPE  H17Y19143   3.014   1.466   8.460  3.7198 -1.0960  0.5468
  169SOPE  C31819144   2.935   1.616   8.327  0.4829 -0.5412  0.3578
  169SOPE  H18X19145   2.841   1.556   8.323 -0.3221  0.7457 -0.6198
  169SOPE  H18Y19146   2.946   1.649   8.221  1.1645 -1.3632  0.1556
  169SOPE  H18Z19147   2.925   1.697   8.402 -3.1956 -1.8376  1.4919
  170SOPE     N19148   2.324   0.185   6.259  0.3539 -0.3817  0.4109
  170SOPE   HN119149   2.389   0.178   6.340  1.4590  2.5623 -0.1050
  170SOPE   HN219150   2.225   0.201   6.288 -0.4283 -0.4209 -2.0517
  170SOPE   HN319151   2.340   0.101   6.200  0.6105  0.2916 -0.5007
  170SOPE   C1219152   2.367   0.314   6.182 -0.0192 -0.3024 -1.1491
  170SOPE  H12A19153   2.292   0.393   6.204  0.4906 -0.3945  1.1983
  170SOPE  H12B19154   2.367   0.280   6.077  0.2572  1.2693 -1.6695
  170SOPE   C1119155   2.515   0.355   6.224  1.3614  0.3565 -0.2932
  170SOPE  H11A19156   2.510   0.359   6.335  1.0752  0.2924 -0.3019
  170SOPE  H11B19157   2.538   0.459   6.193  1.0692 -0.3092 -3.0064
  170SOPE     P19158   2.772   0.275   6.242  0.1369 -0.0883 -0.0962
  170SOPE   O1319159   2.809   0.414   6.289  0.1836  0.4945  0.7729
  170SOPE   O1419160   2.852   0.212   6.134 -0.2631  0.5858 -0.1676
  170SOPE   O1219161   2.620   0.275   6.177 -0.3400  0.5057 -1.1569
  170SOPE   O1119162   2.765   0.168   6.366  0.1342  0.1826  0.4867
  170SOPE    C119163   2.861   0.199   6.472  0.1728 -1.0592 -0.3378
  170SOPE    HA19164   2.845   0.300   6.514 -2.7148 -0.1420 -3.2088
  170SOPE    HB19165   2.964   0.189   6.429 -0.2639 -2.0793 -1.2208
  170SOPE    C219166   2.865   0.099   6.591  0.3145  0.3309  0.2513
  170SOPE    HS19167   2.900   0.002   6.552  1.5898  0.2872  1.4472
  170SOPE   O2119168   2.736   0.094   6.650 -0.8442 -0.1785  0.7777
  170SOPE   C2119169   2.712  -0.012   6.718  0.4212  0.2703  0.2517
  170SOPE   O2219170   2.768  -0.122   6.710  0.2616 -0.2861 -0.1316
  170SOPE   C2219171   2.581   0.008   6.805  0.3708 -0.5314 -0.6489
  170SOPE   H2R19172   2.511  -0.067   6.764  1.6420 -2.2550  0.1806
  170SOPE   H2S19173   2.523   0.102   6.793  1.1377 -0.1991 -2.0347
  170SOPE    C319174   2.970   0.150   6.688 -0.3060  0.2791 -0.3293
  170SOPE    HX19175   2.924   0.244   6.724  1.0706  1.0403 -0.4834
  170SOPE    HY19176   3.058   0.170   6.623 -0.1848 -2.2420 -1.0583
  170SOPE   O3119177   2.999   0.068   6.800  0.2474 -0.1994 -0.2435
  170SOPE   C3119178   3.051  -0.057   6.774 -0.1639 -0.0902  0.8260
  170SOPE   O3219179   3.084  -0.096   6.663  0.2036  0.2107  0.6319
  170SOPE   C3219180   3.077  -0.143   6.904  0.3010  0.7749  0.4097
  170SOPE   H2X19181   2.974  -0.167   6.936  0.5938 -1.9195 -0.4167
  170SOPE   H2Y19182   3.126  -0.075   6.977  1.1416  2.1299 -1.3199
  170SOPE   C2319183   2.609  -0.025   6.952 -0.4610  0.3448 -1.0289
  170SOPE   H3R19184   2.691   0.039   6.990  0.3405 -0.7871 -0.7859
  170SOPE   H3S19185   2.640  -0.131   6.965 -0.0659  0.2086 -2.8011
  170SOPE   C2419186   2.495   0.000   7.046  0.2148 -0.2066  0.3163
  170SOPE   H4R19187   2.464   0.103   7.016 -1.2676 -0.4510  0.9573
  170SOPE   H4S19188   2.402  -0.060   7.037 -0.4215  0.6038  1.2974
  170SOPE   C2519189   2.531   0.017   7.198  0.4955  0.2107  1.0310
  170SOPE   H5R19190   2.598   0.105   7.214 -0.1339  0.6028  1.6012
  170SOPE   H5S19191   2.437   0.050   7.247  1.1439  2.2497  0.9943
  170SOPE   C2619192   2.593  -0.105   7.266  0.0260  0.6057  0.1160
  170SOPE   H6R19193   2.544  -0.198   7.229  1.4103 -0.6338  1.2645
  170SOPE   H6S19194   2.697  -0.115   7.229 -0.9089 -0.6097 -2.4208
  170SOPE   C2719195   2.568  -0.094   7.418  0.6667 -0.3200 -0.4481
  170SOPE   H7R19196   2.460  -0.070   7.426  0.4602 -0.5983 -2.0790
  170SOPE   H7S19197   2.583  -0.194   7.464 -1.3075 -0.6582 -0.4673
  170SOPE   C2819198   2.663  -0.006   7.498 -0.5292 -0.8223 -1.1767
  170SOPE   H8R19199   2.658   0.100   7.467 -0.6141 -0.7825 -1.0254
  170SOPE   H8S19200   2.627  -0.017   7.602  0.9239 -0.9448 -0.6755
  170SOPE   C2919201   2.802  -0.057   7.502 -0.5831  0.5852 -0.3854
  170SOPE   H9119202   2.815  -0.149   7.559 -0.7819 -0.4562 -1.9535
  170SOPE  C21019203   2.912   0.006   7.450 -0.0250 -0.0325 -0.1489
  170SOPE  H10119204   3.006  -0.041   7.480 -0.4108  1.0623  3.2663
  170SOPE  C21119205   2.905   0.142   7.384 -0.2267  0.2739  0.5021
  170SOPE  H11R19206   2.992   0.206   7.412 -0.9122  2.0551 -1.1622
  170SOPE  H11S19207   2.813   0.199   7.408 -1.3882 -0.6033 -1.6420
  170SOPE  C21219208   2.908   0.120   7.228  0.3290  0.1951 -0.4313
  170SOPE  H12R19209   2.828   0.045   7.214  1.7697 -1.6156  0.5631
  170SOPE  H12S19210   3.005   0.080   7.192  0.1020 -0.3021 -0.4912
  170SOPE  C21319211   2.863   0.251   7.148 -0.7852  0.4198 -0.9048
  170SOPE  H13R19212   2.789   0.296   7.217  1.2163 -0.4229  1.9568
  170SOPE  H13S19213   2.819   0.219   7.051 -1.0338 -2.2746  0.0028
  170SOPE  C21419214   2.974   0.359   7.135 -0.4642 -0.0703 -0.4102
  170SOPE  H14R19215   3.010   0.388   7.236  1.8993 -0.5570 -1.0601
  170SOPE  H14S19216   2.935   0.450   7.083  2.0995  1.5025  0.2237
  170SOPE  C21519217   3.088   0.312   7.043  0.1013 -0.0687 -0.6792
  170SOPE  H15R19218   3.046   0.302   6.940  1.5312 -1.7253 -1.1430
  170SOPE  H15S19219   3.132   0.214   7.072  1.2432  0.9129  1.1037
  170SOPE  C21619220   3.203   0.415   7.038  0.2673 -0.6135  0.0032
  170SOPE  H16R19221   3.160   0.517   7.036  0.2993 -0.5607  1.2346
  170SOPE  H16S19222   3.259   0.402   6.943 -1.4955 -0.4884 -1.0995
  170SOPE  C21719223   3.303   0.412   7.143  0.2259 -0.1363 -0.1597
  170SOPE  H17R19224   3.314   0.305   7.173 -0.0297  0.0593  0.6764
  170SOPE  H17S19225   3.264   0.461   7.235  3.2237  0.6336  0.8260
  170SOPE  C21819226   3.437   0.468   7.093 -0.0458  0.4225 -0.5262
  170SOPE  H18R19227   3.469   0.409   7.005  0.5859  1.8496 -1.2780
  170SOPE  H18S19228   3.512   0.472   7.174  0.3765 -1.9130 -0.7487
  170SOPE  H18T19229   3.419   0.574   7.063 -1.5053  0.5833  0.7598
  170SOPE   C3319230   3.161  -0.271   6.872 -0.8438 -0.8126  0.4219
  170SOPE   H3X19231   3.238  -0.232   6.802 -0.5756 -1.0468  0.5827
  170SOPE   H3Y19232   3.091  -0.340   6.820 -0.6640 -1.7293  1.3641
  170SOPE   C3419233   3.218  -0.340   6.990 -0.0188  0.1562 -0.5534
  170SOPE   H4X19234   3.302  -0.276   7.026  1.0916 -0.8195 -1.3177
  170SOPE   H4Y19235   3.254  -0.439   6.953  0.1608  0.0069  0.0107
  170SOPE   C3519236   3.119  -0.364   7.102 -0.2177  0.3377  0.0111
  170SOPE   H5X19237   3.061  -0.277   7.140  0.1358  1.2330 -1.4351
  170SOPE   H5Y19238   3.173  -0.401   7.192 -0.3807 -0.8938 -0.3827
  170SOPE   C3619239   3.005  -0.469   7.068 -1.5329 -0.3858 -0.7908
  170SOPE   H6X19240   3.057  -0.564   7.045 -0.7793  0.1375 -1.3205
  170SOPE   H6Y19241   2.941  -0.429   6.986 -0.3399  1.6215 -0.8003
  170SOPE   C3719242   2.918  -0.519   7.190  0.3695  0.7744  0.7741
  170SOPE   H7X19243   2.871  -0.618   7.171  2.5331 -0.3317  0.8551
  170SOPE   H7Y19244   2.838  -0.445   7.208  0.3757  0.8426  0.5341
  170SOPE   C3819245   3.003  -0.538   7.319  0.6310  0.0904  0.6785
  170SOPE   H8X19246   3.046  -0.442   7.354  2.4370 -0.1707 -0.6374
  170SOPE   H8Y19247   3.084  -0.605   7.285 -0.3750  0.0714 -1.9076
  170SOPE   C3919248   2.922  -0.608   7.435 -0.3523  0.0074  0.1714
  170SOPE   H9X19249   3.003  -0.667   7.482  0.4740  0.0665 -1.1290
  170SOPE   H9Y19250   2.851  -0.682   7.391  1.8330 -2.3399  0.3358
  170SOPE  C31019251   2.851  -0.506   7.532 -0.8664 -0.3308  0.1716
  170SOPE  H10X19252   2.765  -0.450   7.489  0.2455  0.5379 -1.0115
  170SOPE  H10Y19253   2.923  -0.423   7.551 -1.0490 -0.3256  0.8598
  170SOPE  C31119254   2.806  -0.569   7.663  0.9303 -0.1055 -0.9110
  170SOPE  H11X19255   2.892  -0.565   7.733  0.9113 -0.2293 -0.8805
  170SOPE  H11Y19256   2.774  -0.675   7.651 -0.1498  0.1144 -0.0914
  170SOPE  C31219257   2.693  -0.478   7.720 -0.2753 -0.1471  0.1145
  170SOPE  H12X19258   2.596  -0.511   7.679 -1.2677  1.2860  1.2209
  170SOPE  H12Y19259   2.696  -0.372   7.689 -4.0342 -0.0631 -0.3817
  170SOPE  C31319260   2.678  -0.481   7.876  0.6080  0.3413  0.0211
  170SOPE  H13X19261   2.762  -0.528   7.931  1.0609  0.9054 -0.1757
  170SOPE  H13Y19262   2.595  -0.547   7.910  0.2206  2.3564  3.4419
  170SOPE  C31419263   2.658  -0.341   7.939 -0.5414 -0.0402 -0.4147
  170SOPE  H14X19264   2.559  -0.300   7.912  0.1656  1.8204 -0.2842
  170SOPE  H14Y19265   2.740  -0.282   7.892 -0.2809  2.1453  2.5061
  170SOPE  C31519266   2.669  -0.336   8.098  0.1628  0.1140 -0.5150
  170SOPE  H15X19267   2.766  -0.369   8.139  0.3022  1.5065  0.3368
  170SOPE  H15Y19268   2.592  -0.409   8.132  0.3812  0.7460  1.4266
  170SOPE  C31619269   2.633  -0.205   8.159 -0.4578 -0.0392 -0.7386
  170SOPE  H16X19270   2.532  -0.172   8.126 -1.6027 -1.1168  1.5346
  170SOPE  H16Y19271   2.711  -0.132   8.128  0.4981 -0.8913 -0.4109
  170SOPE  C31719272   2.636  -0.211   8.311  0.8951 -0.2369  0.1901
  170SOPE  H17X19273   2.558  -0.277   8.353 -0.6974  0.3429 -1.6803
  170SOPE  H17Y19274   2.605  -0.108   8.341  1.2902  0.2740 -1.0524
  170SOPE  C31819275   2.776  -0.224   8.369 -0.3814 -0.2819  0.4464
  170SOPE  H18X19276   2.819  -0.325   8.354 -0.8727 -0.2916 -1.0907
  170SOPE  H18Y19277   2.766  -0.209   8.478 -2.8593  0.9376  0.1169
  170SOPE  H18Z19278   2.843  -0.152   8.316  2.7179 -2.9855  0.3775
  171SOPE     N19279   0.751   3.163   6.367 -0.3717 -0.4369  0.0020
  171SOPE   HN119280   0.854   3.154   6.356 -0.2660 -1.1707  1.4207
  171SOPE   HN219281   0.710   3.073   6.335 -0.0764 -0.7264  0.4421
  171SOPE   HN319282   0.719   3.238   6.302  0.6870  0.1266  0.1154
  171SOPE   C1219283   0.721   3.206   6.505 -0.2110  0.1028  0.2798
  171SOPE  H12A19284   0.697   3.122   6.574  1.6446  1.2275  2.4586
  171SOPE  H12B19285   0.639   3.281   6.504 -0.8964 -0.6471  0.0395
  171SOPE   C1119286   0.849   3.276   6.560 -0.1400 -0.1661 -0.6970
  171SOPE  H11A19287   0.827   3.340   6.648 -1.5659 -3.3137  1.4216
  171SOPE  H11B19288   0.877   3.341   6.474 -2.6443  0.8885 -0.8111
  171SOPE     P19289   1.072   3.150   6.486 -0.3726  0.4930 -0.3905
  171SOPE   O1319290   1.025   3.160   6.348  0.6880  0.2421  0.7647
  171SOPE   O1419291   1.128   3.020   6.518 -0.6199  0.0184  0.0667
  171SOPE   O1219292   0.956   3.177   6.580 -0.5193  0.0477  0.0622
  171SOPE   O1119293   1.182   3.268   6.519  0.2600  0.6467  0.0859
  171SOPE    C119294   1.232   3.279   6.654  0.0101 -0.8324 -0.6113
  171SOPE    HA19295   1.316   3.209   6.674  1.3564  0.8927  0.0055
  171SOPE    HB19296   1.158   3.262   6.735  0.9749  1.6058  0.8777
  171SOPE    C219297   1.286   3.422   6.672 -0.1855 -0.1131 -0.1599
  171SOPE    HS19298   1.387   3.421   6.626 -0.2632 -0.7068 -0.3157
  171SOPE   O2119299   1.268   3.445   6.813 -0.0989 -0.2036 -0.0513
  171SOPE   C2119300   1.370   3.409   6.889 -0.0879 -0.5860  0.2328
  171SOPE   O2219301   1.481   3.377   6.853 -0.1009 -0.2714  0.6956
  171SOPE   C2219302   1.341   3.439   7.035 -0.1395  0.6110 -0.4388
  171SOPE   H2R19303   1.232   3.426   7.053 -0.1471  0.4299 -0.6110
  171SOPE   H2S19304   1.371   3.546   7.043  0.5354  0.6693 -2.7645
  171SOPE    C319305   1.196   3.516   6.593 -0.7344  0.3275  0.3731
  171SOPE    HX19306   1.093   3.483   6.620 -0.7904 -1.2146 -1.4793
  171SOPE    HY19307   1.197   3.504   6.483  0.6317  0.7557  0.3227
  171SOPE   O3119308   1.219   3.650   6.632 -0.1280 -0.2792 -0.2027
  171SOPE   C3119309   1.336   3.701   6.585  0.2444 -0.1406 -0.0873
  171SOPE   O3219310   1.414   3.644   6.508  0.3338 -0.2595  0.9510
  171SOPE   C3219311   1.351   3.842   6.640  0.2097 -0.7296  0.3384
  171SOPE   H2X19312   1.255   3.896   6.625  2.0672  2.0446 -2.9914
  171SOPE   H2Y19313   1.427   3.900   6.583 -0.0233  0.4670  1.1808
  171SOPE   C2319314   1.422   3.352   7.135 -0.7982 -0.4101  0.6757
  171SOPE   H3R19315   1.531   3.377   7.128 -1.3553  1.8308 -1.5833
  171SOPE   H3S19316   1.402   3.243   7.128  1.1793 -0.8275  0.7617
  171SOPE   C2419317   1.400   3.382   7.281 -0.7844  0.1674 -0.8989
  171SOPE   H4R19318   1.429   3.485   7.313 -0.1376 -0.5902  1.1366
  171SOPE   H4S19319   1.289   3.379   7.293 -0.6719  0.7475  0.6555
  171SOPE   C2519320   1.470   3.279   7.375  0.2779 -0.0244 -0.5311
  171SOPE   H5R19321   1.410   3.185   7.369  1.0064 -0.5010 -0.5715
  171SOPE   H5S19322   1.573   3.263   7.336  1.2880  1.5797  1.3017
  171SOPE   C2619323   1.477   3.315   7.527  0.2688  0.2195  0.1876
  171SOPE   H6R19324   1.533   3.404   7.562  0.6670 -0.7472  2.1558
  171SOPE   H6S19325   1.369   3.334   7.544  0.2438 -1.2047  1.8715
  171SOPE   C2719326   1.519   3.194   7.625  0.0311 -0.0314  0.6061
  171SOPE   H7R19327   1.486   3.224   7.727  1.4299 -3.2059  2.1286
  171SOPE   H7S19328   1.459   3.107   7.591  0.6872 -0.6172  0.9345
  171SOPE   C2819329   1.668   3.163   7.626 -0.1037  0.0098 -0.0707
  171SOPE   H8R19330   1.690   3.073   7.688 -3.2631  0.0955  1.3607
  171SOPE   H8S19331   1.698   3.136   7.522  0.6097 -2.3969  0.6813
  171SOPE   C2919332   1.759   3.268   7.683  0.5944 -0.6060  0.8010
  171SOPE   H9119333   1.734   3.369   7.647 -0.0787 -1.0982 -0.1607
  171SOPE  C21019334   1.858   3.265   7.781  0.6780  0.3399 -0.1530
  171SOPE  H10119335   1.908   3.362   7.794 -0.3797  0.8130  0.6501
  171SOPE  C21119336   1.897   3.149   7.857 -0.6364  0.2226 -0.1118
  171SOPE  H11R19337   2.005   3.147   7.883 -1.1294  0.7902  2.1346
  171SOPE  H11S19338   1.886   3.062   7.788  2.9042  1.5171 -2.6097
  171SOPE  C21219339   1.812   3.114   7.979 -0.1544  0.3461  0.1901
  171SOPE  H12R19340   1.707   3.100   7.946 -1.0640  1.4569  2.3817
  171SOPE  H12S19341   1.804   3.205   8.042  3.2498  1.7701 -1.2243
  171SOPE  C21319342   1.850   2.987   8.055 -0.4745 -0.5186 -0.0792
  171SOPE  H13R19343   1.949   2.984   8.105 -0.3831 -4.6352 -0.2470
  171SOPE  H13S19344   1.850   2.915   7.971  1.8443  0.9141 -1.4160
  171SOPE  C21419345   1.745   2.944   8.152  1.0497  0.0536  0.5851
  171SOPE  H14R19346   1.659   2.911   8.090  1.2889 -1.6029  1.0877
  171SOPE  H14S19347   1.707   3.029   8.214 -1.1065 -0.1335 -0.3721
  171SOPE  C21519348   1.790   2.833   8.245 -0.6750 -0.8200 -0.1739
  171SOPE  H15R19349   1.876   2.862   8.308 -1.0375  0.2655 -0.1514
  171SOPE  H15S19350   1.824   2.749   8.182 -1.1277  0.3148 -2.0239
  171SOPE  C21619351   1.675   2.790   8.335  0.1200 -0.1683 -0.4696
  171SOPE  H16R19352   1.640   2.688   8.310  0.5703 -0.6768  0.8961
  171SOPE  H16S19353   1.588   2.858   8.320  1.4567  1.3954 -1.4732
  171SOPE  C21719354   1.704   2.791   8.483  0.0663 -0.2095  0.1305
  171SOPE  H17R19355   1.715   2.890   8.531 -1.3835 -1.1681  2.6138
  171SOPE  H17S19356   1.794   2.729   8.504  0.7585  0.8419  0.3298
  171SOPE  C21819357   1.596   2.717   8.556  0.0302 -0.4180  0.0079
  171SOPE  H18R19358   1.596   2.610   8.527 -1.2691  0.2259 -2.6523
  171SOPE  H18S19359   1.493   2.750   8.530  0.1440 -0.3435 -0.3450
  171SOPE  H18T19360   1.611   2.719   8.666  0.5638  1.3609 -0.0614
  171SOPE   C3319361   1.393   3.842   6.793  0.2680  0.3329 -0.5829
  171SOPE   H3X19362   1.490   3.789   6.791 -0.9115 -1.9706 -2.7160
  171SOPE   H3Y19363   1.313   3.782   6.841 -1.7006  1.7404 -1.8953
  171SOPE   C3419364   1.401   3.982   6.855 -0.0865  0.2181 -0.3756
  171SOPE   H4X19365   1.307   4.038   6.836 -0.0350  0.9451  1.3613
  171SOPE   H4Y19366   1.476   4.047   6.805  1.0221 -1.9428 -1.6484
  171SOPE   C3519367   1.412   3.982   7.007  0.2366  0.8676 -0.3232
  171SOPE   H5X19368   1.396   4.091   7.027  0.8977  1.5839 -3.1780
  171SOPE   H5Y19369   1.514   3.950   7.035 -0.6675 -2.6353 -0.6525
  171SOPE   C3619370   1.307   3.899   7.088  0.6169 -0.2683  0.2248
  171SOPE   H6X19371   1.335   3.792   7.089  1.1344 -0.1323  0.2163
  171SOPE   H6Y19372   1.209   3.929   7.044  0.7514 -1.1556 -0.7013
  171SOPE   C3719373   1.306   3.943   7.235 -0.3160 -0.1525  0.4802
  171SOPE   H7X19374   1.258   4.043   7.240 -0.8613 -0.4265  0.8579
  171SOPE   H7Y19375   1.412   3.952   7.268  0.2511 -2.6854 -0.4177
  171SOPE   C3819376   1.242   3.834   7.328 -0.0295 -0.4289 -0.0018
  171SOPE   H8X19377   1.312   3.750   7.306  2.3561  1.7552 -1.2630
  171SOPE   H8Y19378   1.142   3.808   7.287  0.4002  0.4526 -1.6878
  171SOPE   C3919379   1.255   3.863   7.481 -0.5416 -0.1490  0.0853
  171SOPE   H9X19380   1.178   3.941   7.498 -2.1776 -1.6416 -0.1317
  171SOPE   H9Y19381   1.351   3.911   7.509 -1.3213  0.3721  2.0228
  171SOPE  C31019382   1.244   3.742   7.576  0.5752 -1.0039  0.9459
  171SOPE  H10X19383   1.316   3.661   7.551  0.6857 -1.0355  1.3521
  171SOPE  H10Y19384   1.146   3.691   7.574 -0.1500  0.3058  1.6539
  171SOPE  C31119385   1.245   3.786   7.721 -0.7456  0.2729  0.8721
  171SOPE  H11X19386   1.169   3.867   7.729  0.1359  1.3744 -1.1273
  171SOPE  H11Y19387   1.341   3.828   7.756 -1.0349  1.5640  0.1960
  171SOPE  C31219388   1.227   3.663   7.809 -0.1112  0.0318 -0.7941
  171SOPE  H12X19389   1.307   3.590   7.785  1.6941  1.3831  0.7577
  171SOPE  H12Y19390   1.124   3.625   7.795 -0.1550  0.1630 -0.8298
  171SOPE  C31319391   1.250   3.669   7.968 -0.3063 -0.2592 -0.2248
  171SOPE  H13X19392   1.246   3.773   8.008 -1.1532 -0.2686 -0.2656
  171SOPE  H13Y19393   1.356   3.657   7.998 -0.6039 -0.4992  0.7831
  171SOPE  C31419394   1.152   3.584   8.042  0.3845 -0.5221  0.0827
  171SOPE  H14X19395   1.175   3.477   8.025 -2.6890 -1.2897  0.2093
  171SOPE  H14Y19396   1.048   3.609   8.011 -0.6775 -3.9983  0.3717
  171SOPE  C31519397   1.160   3.617   8.194  0.5054 -0.3880  1.1007
  171SOPE  H15X19398   1.089   3.548   8.245 -1.3515  0.7085  0.0922
  171SOPE  H15Y19399   1.139   3.724   8.215 -0.3048  0.1539 -2.0595
  171SOPE  C31619400   1.292   3.588   8.260 -0.0267  0.2895 -0.0500
  171SOPE  H16X19401   1.369   3.653   8.213  2.0549 -1.0127  1.4266
  171SOPE  H16Y19402   1.320   3.484   8.235 -0.8129  0.3115 -1.0771
  171SOPE  C31719403   1.289   3.626   8.414 -0.3637  0.3646  0.5639
  171SOPE  H17X19404   1.197   3.582   8.458  0.6124 -0.6937  1.6231
  171SOPE  H17Y19405   1.288   3.736   8.427  2.5781  0.4979  0.4146
  171SOPE  C31819406   1.416   3.588   8.483  0.7328  0.5646  0.6313
  171SOPE  H18X19407   1.502   3.642   8.439  0.3721  1.9612  1.5683
  171SOPE  H18Y19408   1.424   3.478   8.474 -2.8835  0.3113 -1.6771
  171SOPE  H18Z19409   1.396   3.614   8.589 -0.8175  0.9837  0.2713
  172SOPE     N19410   4.062   5.430   6.561 -0.0617  0.2896  0.6634
  172SOPE   HN119411   4.108   5.384   6.480 -1.6749  0.0682 -0.1536
  172SOPE   HN219412   3.973   5.476   6.533  0.0040  1.5748  2.4334
  172SOPE   HN319413   4.134   5.497   6.595  0.8351 -1.2713  1.9655
  172SOPE   C1219414   4.041   5.322   6.662 -0.2920 -0.4310 -0.2037
  172SOPE  H12A19415   4.011   5.370   6.758 -1.3979  0.5538 -1.0153
  172SOPE  H12B19416   4.140   5.275   6.685 -0.8079 -0.4520  2.2233
  172SOPE   C1119417   3.949   5.212   6.613  0.0135  0.5131 -0.1533
  172SOPE  H11A19418   3.852   5.253   6.577 -0.5075  2.2694  2.9063
  172SOPE  H11B19419   3.923   5.149   6.701 -1.2558 -1.1404 -1.6317
  172SOPE     P19420   3.952   5.024   6.431  0.3291  0.2152 -0.4766
  172SOPE   O1319421   4.058   5.012   6.327  0.0168 -0.0425  0.5910
  172SOPE   O1419422   3.825   5.078   6.386 -0.2263  0.1007 -0.1277
  172SOPE   O1219423   4.020   5.128   6.521  0.5045  0.2506 -0.4199
  172SOPE   O1119424   3.933   4.896   6.515 -0.3111  0.2744 -0.2266
  172SOPE    C119425   3.825   4.879   6.603 -0.1586  0.3401 -0.0828
  172SOPE    HA19426   3.760   4.797   6.565  0.4323  0.0216 -0.4107
  172SOPE    HB19427   3.751   4.962   6.608 -1.1204 -0.5356  0.5586
  172SOPE    C219428   3.863   4.847   6.750  0.1513  0.1027  0.3303
  172SOPE    HS19429   3.926   4.926   6.796 -1.5033  2.4900 -1.2908
  172SOPE   O2119430   3.925   4.719   6.750  0.6341  0.7926  0.0173
  172SOPE   C2119431   3.996   4.693   6.854 -0.1567 -0.1708  0.2611
  172SOPE   O2219432   4.041   4.775   6.933 -0.8126 -0.6038 -0.2086
  172SOPE   C2219433   4.029   4.542   6.858 -0.4997 -0.6857 -0.0651
  172SOPE   H2R19434   4.093   4.524   6.769 -1.3070  2.8120 -1.5081
  172SOPE   H2S19435   3.947   4.470   6.839  0.3518 -1.6107 -0.3372
  172SOPE    C319436   3.739   4.847   6.839  0.0765 -0.4805 -0.0984
  172SOPE    HX19437   3.666   4.773   6.798  1.1293 -0.7267 -1.6105
  172SOPE    HY19438   3.697   4.949   6.832 -2.4202 -1.4650 -0.8610
  172SOPE   O3119439   3.777   4.815   6.977 -0.3091  0.2246 -0.1083
  172SOPE   C3119440   3.676   4.787   7.057  0.2400  0.1787 -0.2685
  172SOPE   O3219441   3.559   4.782   7.021  0.4193  0.4712 -0.4202
  172SOPE   C3219442   3.723   4.749   7.198  0.0207  0.3082 -0.7546
  172SOPE   H2X19443   3.826   4.790   7.200  0.4322 -0.6682 -1.1889
  172SOPE   H2Y19444   3.726   4.638   7.205 -2.1967  0.3000  1.5196
  172SOPE   C2319445   4.120   4.500   6.979 -0.4827 -0.0641  1.0709
  172SOPE   H3R19446   4.201   4.574   6.995 -0.3264 -0.1686  0.7687
  172SOPE   H3S19447   4.162   4.400   6.956  1.0085  0.4076  1.6416
  172SOPE   C2419448   4.039   4.487   7.114  0.1792 -0.5119  0.4098
  172SOPE   H4R19449   3.969   4.574   7.115 -0.8682 -1.3374  0.6195
  172SOPE   H4S19450   3.972   4.399   7.101 -0.2503  0.0082 -1.1437
  172SOPE   C2519451   4.143   4.494   7.227 -0.0379  0.0071 -0.0682
  172SOPE   H5R19452   4.195   4.396   7.228 -3.2972 -1.9524  3.3205
  172SOPE   H5S19453   4.211   4.581   7.212  1.5949 -1.4155 -1.3292
  172SOPE   C2619454   4.083   4.496   7.370  0.3733  0.5083  0.9636
  172SOPE   H6R19455   4.003   4.571   7.386 -1.0094 -0.5962 -0.4931
  172SOPE   H6S19456   4.039   4.394   7.370 -0.2515  0.7619 -0.3050
  172SOPE   C2719457   4.195   4.491   7.476  0.0866  0.0747 -0.3462
  172SOPE   H7R19458   4.269   4.413   7.446 -1.1406 -0.8527 -1.0767
  172SOPE   H7S19459   4.234   4.594   7.461 -0.3422  0.2660 -0.1537
  172SOPE   C2819460   4.143   4.430   7.609  0.9729  0.9071 -0.2499
  172SOPE   H8R19461   4.204   4.465   7.694  1.3519 -0.7007  0.1730
  172SOPE   H8S19462   4.048   4.484   7.626 -0.2526 -0.6399 -1.7577
  172SOPE   C2919463   4.111   4.282   7.604 -0.1802  0.3814  0.5827
  172SOPE   H9119464   4.039   4.245   7.530 -1.2232  1.8873  0.7964
  172SOPE  C21019465   4.167   4.193   7.683  0.4637 -0.8606  0.0410
  172SOPE  H10119466   4.138   4.087   7.686  2.2107 -1.3382  1.3927
  172SOPE  C21119467   4.268   4.219   7.789 -0.4411 -0.7933 -0.7630
  172SOPE  H11R19468   4.299   4.325   7.805 -0.9998 -0.2540 -2.9459
  172SOPE  H11S19469   4.360   4.167   7.755 -0.2256 -1.2046  0.4150
  172SOPE  C21219470   4.216   4.173   7.921  0.0252  0.2965 -0.4487
  172SOPE  H12R19471   4.210   4.063   7.927  0.7504  0.3327  1.4357
  172SOPE  H12S19472   4.113   4.210   7.939 -0.8887 -2.0420 -0.5223
  172SOPE  C21319473   4.305   4.207   8.043 -0.2994 -0.0078 -0.0373
  172SOPE  H13R19474   4.296   4.317   8.053  1.4622  0.1384  0.2622
  172SOPE  H13S19475   4.408   4.184   8.006 -0.6283 -0.4496 -0.6867
  172SOPE  C21419476   4.268   4.134   8.177  0.2020 -0.6329  0.7562
  172SOPE  H14R19477   4.231   4.032   8.156 -3.3892  0.7356 -0.2371
  172SOPE  H14S19478   4.176   4.179   8.218 -0.7195 -2.0154  0.2544
  172SOPE  C21519479   4.386   4.165   8.276  0.0516  0.2142 -0.1279
  172SOPE  H15R19480   4.372   4.273   8.298  0.5144  0.4223 -0.8040
  172SOPE  H15S19481   4.485   4.149   8.227  0.9287  1.5371  1.1084
  172SOPE  C21619482   4.380   4.083   8.398 -0.2900  0.4381 -0.1054
  172SOPE  H16R19483   4.422   3.983   8.376 -1.4893  0.0701 -0.7838
  172SOPE  H16S19484   4.280   4.084   8.445 -0.5945  0.5350 -0.7569
  172SOPE  C21719485   4.475   4.136   8.506 -0.4678  0.2441 -0.2358
  172SOPE  H17R19486   4.472   4.078   8.601 -1.5955  1.3352  0.4142
  172SOPE  H17S19487   4.434   4.236   8.530  2.5759  0.6176  4.9993
  172SOPE  C21819488   4.630   4.154   8.479  0.3935  0.0442 -0.3447
  172SOPE  H18R19489   4.645   4.224   8.394 -0.4643 -0.3563 -0.8418
  172SOPE  H18S19490   4.666   4.051   8.457  0.7868 -0.2579  1.5493
  172SOPE  H18T19491   4.693   4.185   8.565  0.5152 -1.7723  0.2707
  172SOPE   C3319492   3.625   4.804   7.303 -0.3319  0.1275 -0.4783
  172SOPE   H3X19493   3.520   4.770   7.288 -0.7624  1.8760 -1.7490
  172SOPE   H3Y19494   3.616   4.915   7.301  1.2689  0.3821  2.0175
  172SOPE   C3419495   3.673   4.773   7.448  0.3662  0.2464 -0.0422
  172SOPE   H4X19496   3.777   4.809   7.463  0.7397 -0.9385  0.3247
  172SOPE   H4Y19497   3.675   4.662   7.458 -0.7124  0.0139 -1.9930
  172SOPE   C3519498   3.591   4.829   7.565 -0.1976 -0.4617 -0.1925
  172SOPE   H5X19499   3.484   4.799   7.565 -1.7054  4.0800  1.4324
  172SOPE   H5Y19500   3.581   4.937   7.542  0.9827 -0.2937  0.0494
  172SOPE   C3619501   3.657   4.802   7.699  0.5967  0.9584 -0.7566
  172SOPE   H6X19502   3.754   4.856   7.700  1.5431 -0.7078 -0.0281
  172SOPE   H6Y19503   3.687   4.696   7.692 -0.7333  0.6073 -1.4465
  172SOPE   C3719504   3.567   4.808   7.823 -0.1511 -0.1315 -0.1085
  172SOPE   H7X19505   3.463   4.776   7.799 -0.3933 -1.0841  1.9597
  172SOPE   H7Y19506   3.572   4.915   7.852 -2.3286  0.5898 -2.0572
  172SOPE   C3819507   3.614   4.720   7.944  0.7252  0.4744  0.6226
  172SOPE   H8X19508   3.624   4.615   7.908 -1.8004 -0.1644  1.5787
  172SOPE   H8Y19509   3.529   4.722   8.015 -1.2079  3.0013 -1.5708
  172SOPE   C3919510   3.737   4.776   8.011 -0.0785  0.4887 -0.5893
  172SOPE   H9X19511   3.702   4.858   8.078  1.5607  0.1831  0.6875
  172SOPE   H9Y19512   3.804   4.830   7.941 -1.2475  2.0885 -0.5373
  172SOPE  C31019513   3.809   4.665   8.089  0.1674 -0.2708 -0.4835
  172SOPE  H10X19514   3.907   4.708   8.120 -0.3902 -0.5161  1.7904
  172SOPE  H10Y19515   3.829   4.576   8.026  0.2430  0.0829 -0.9600
  172SOPE  C31119516   3.746   4.614   8.224  0.1642  0.3276  0.2364
  172SOPE  H11X19517   3.805   4.526   8.257  1.9939  0.6689 -1.8849
  172SOPE  H11Y19518   3.655   4.558   8.194  1.2251 -0.7961 -1.0410
  172SOPE  C31219519   3.726   4.712   8.341  0.4739 -0.0755  0.3209
  172SOPE  H12X19520   3.675   4.804   8.305 -0.4586 -0.3153  0.9858
  172SOPE  H12Y19521   3.830   4.737   8.370  0.9803 -0.0704 -1.4076
  172SOPE  C31319522   3.654   4.651   8.459 -0.4688  0.4409  0.2709
  172SOPE  H13X19523   3.728   4.575   8.493 -0.0553 -0.3096 -2.1200
  172SOPE  H13Y19524   3.561   4.594   8.437  0.7549 -2.0812  1.2252
  172SOPE  C31419525   3.623   4.745   8.580 -0.3503  0.1523  0.5449
  172SOPE  H14X19526   3.531   4.800   8.550 -0.9471 -2.2751 -2.6889
  172SOPE  H14Y19527   3.707   4.815   8.595  0.5914 -0.6480 -0.7988
  172SOPE  C31519528   3.577   4.666   8.706 -0.3271  0.6805  0.1634
  172SOPE  H15X19529   3.655   4.589   8.727  0.0674  0.9375 -0.3298
  172SOPE  H15Y19530   3.494   4.607   8.663 -0.7173  1.9256 -0.8613
  172SOPE  C31619531   3.544   4.761   8.825  0.0495 -1.0698  0.4074
  172SOPE  H16X19532   3.633   4.808   8.874 -0.4364 -0.8329  1.0834
  172SOPE  H16Y19533   3.502   4.694   8.903 -0.1970 -1.0532  0.2890
  172SOPE  C31719534   3.445   4.881   8.798  0.4522 -0.3414  0.5459
  172SOPE  H17X19535   3.353   4.826   8.771  1.6506 -2.7566  1.0524
  172SOPE  H17Y19536   3.487   4.940   8.714 -0.1121 -1.2765 -0.4212
  172SOPE  C31819537   3.423   4.960   8.930 -0.2671 -0.3569  0.3762
  172SOPE  H18X19538   3.527   4.995   8.950 -0.8010  1.1767  0.6558
  172SOPE  H18Y19539   3.384   4.904   9.018  0.5337 -2.2877 -0.4476
  172SOPE  H18Z19540   3.367   5.053   8.902  1.7649  0.6571 -0.5190
  173SAPI   C1219541   4.373   2.204  10.839  0.0921 -0.5848  0.6376
  173SAPI    H219542   4.302   2.287  10.820 -0.4195 -1.0445  0.5243
  173SAPI    O219543   4.457   2.249  10.947  0.7954  0.4250  0.1964
  173SAPI   HO219544   4.393   2.297  11.000  0.0732 -0.2830 -0.0216
  173SAPI   C1319545   4.289   2.089  10.878 -0.4307 -0.9317  0.0223
  173SAPI    H319546   4.211   2.086  10.799 -1.6454  1.7715  0.9900
  173SAPI    O319547   4.215   2.123  10.994 -0.2767  0.1704 -0.3872
  173SAPI   HO319548   4.275   2.144  11.067 -0.8974  0.4439  0.0481
  173SAPI   C1419549   4.372   1.957  10.890  0.2604 -0.5354 -1.0439
  173SAPI    H419550   4.435   1.967  10.982 -0.6707 -1.6767 -0.2515
  173SAPI    O419551   4.285   1.846  10.910  0.4124  0.0136  0.4096
  173SAPI   HO419552   4.261   1.807  10.826 -0.7519  1.4735  0.0360
  173SAPI   C1519553   4.453   1.931  10.766  0.8805  0.3167 -0.0898
  173SAPI    H519554   4.377   1.918  10.687  1.2378  1.0989 -0.5737
  173SAPI    O519555   4.521   1.805  10.782 -0.2257  0.9489  0.0262
  173SAPI   HO519556   4.523   1.762  10.696 -1.4574  0.1811  0.3513
  173SAPI   C1619557   4.542   2.047  10.722 -0.5343  0.5794  0.2297
  173SAPI    H619558   4.619   2.064  10.800  0.8632  0.4671 -1.0743
  173SAPI    O619559   4.599   2.015  10.594 -0.5560 -0.1278  0.3243
  173SAPI   HO619560   4.684   2.054  10.574  0.5952 -2.2847  0.6974
  173SAPI   C1119561   4.451   2.170  10.708  0.2847 -0.7902 -0.8078
  173SAPI    H119562   4.371   2.142  10.636 -0.7496  0.6867 -0.2900
  173SAPI     P19563   4.448   2.400  10.573  0.0293  0.0481 -0.0589
  173SAPI   O1319564   4.502   2.530  10.629  0.1883  0.1638  0.4728
  173SAPI   O1419565   4.298   2.388  10.571 -0.0445 -0.4846 -0.0250
  173SAPI   O1219566   4.525   2.286  10.662  0.6267 -0.2060 -0.1973
  173SAPI   O1119567   4.500   2.393  10.427  0.0187  0.1182  0.3615
  173SAPI    C119568   4.639   2.371  10.408  0.7928  0.1941 -0.6571
  173SAPI    HA19569   4.696   2.461  10.439  0.7572 -0.5086  1.6063
  173SAPI    HB19570   4.678   2.288  10.471  2.1207  0.7909 -0.6516
  173SAPI    C219571   4.687   2.347  10.259  0.7339  0.4544 -0.9678
  173SAPI    HS19572   4.797   2.329  10.258  0.2143 -3.8739  0.6379
  173SAPI   O2119573   4.655   2.460  10.170  0.4899  0.1282 -0.0372
  173SAPI   C2119574   4.708   2.581  10.190 -0.3601  0.0630  0.0486
  173SAPI   O2219575   4.762   2.622  10.293  0.5325  0.2028 -0.4962
  173SAPI   C2219576   4.659   2.666  10.072  1.1390  0.3720  0.2286
  173SAPI   H2R19577   4.550   2.648  10.064  0.7540  2.1324  1.1363
  173SAPI   H2S19578   4.676   2.774  10.089  0.3958  0.5946 -0.3959
  173SAPI    C319579   4.632   2.208  10.204 -0.2034  0.6492 -0.7075
  173SAPI    HX19580   4.521   2.215  10.211 -0.0711  2.4977  0.0110
  173SAPI    HY19581   4.668   2.127  10.272 -3.0151 -0.1848 -0.0657
  173SAPI   O3119582   4.672   2.187  10.068 -0.4213  0.4482  0.9234
  173SAPI   C3119583   4.614   2.087  10.013 -0.2991  0.0938 -0.6520
  173SAPI   O3219584   4.518   2.024  10.052  0.0351  0.1236 -0.0504
  173SAPI   C3219585   4.693   2.047   9.885  0.1804 -0.5177 -0.5538
  173SAPI   H2X19586   4.793   2.010   9.915  0.8779  0.5561 -1.4704
  173SAPI   H2Y19587   4.725   2.143   9.839  3.5215 -0.5879  1.3297
  173SAPI   C2319588   4.726   2.633   9.935 -0.0149 -0.7117 -0.0004
  173SAPI   H3R19589   4.712   2.530   9.897  1.7993 -0.8504 -0.3922
  173SAPI   H3S19590   4.836   2.635   9.952  0.0567 -1.0423 -0.4098
  173SAPI   C2419591   4.690   2.724   9.822 -0.2217 -0.4889 -0.4764
  173SAPI   H4R19592   4.697   2.827   9.863 -1.4191 -0.3319 -0.6001
  173SAPI   H4S19593   4.584   2.732   9.789  0.2593  1.5109 -1.7029
  173SAPI   C2519594   4.789   2.742   9.707 -0.4675  0.5385  0.4783
  173SAPI   H5R19595   4.883   2.793   9.734  0.0625 -0.5821  0.8241
  173SAPI   C2619596   4.772   2.719   9.574  0.7079 -0.2432 -0.1637
  173SAPI   H6R19597   4.858   2.720   9.505  0.8209 -1.9039 -0.0840
  173SAPI   C2719598   4.644   2.670   9.518 -0.0414 -0.2164  0.2819
  173SAPI   H7R19599   4.588   2.755   9.473  0.2174  0.6393  1.5359
  173SAPI   H7S19600   4.576   2.633   9.598 -0.1939  0.7345  0.6034
  173SAPI   C2819601   4.657   2.563   9.404 -0.0451  0.6719  0.1955
  173SAPI   H8R19602   4.670   2.460   9.440  1.1602  0.8748  0.4001
  173SAPI   C2919603   4.665   2.583   9.272 -0.0919  0.0376 -0.3251
  173SAPI   H9R19604   4.657   2.496   9.204 -0.7144 -0.3709  0.2632
  173SAPI  C21019605   4.653   2.708   9.196  0.3963  0.0001  0.0006
  173SAPI  H10R19606   4.731   2.705   9.117  0.6408  0.0983  0.2339
  173SAPI  H10S19607   4.681   2.792   9.263 -0.5163  0.4413 -0.1503
  173SAPI  C21119608   4.511   2.725   9.145 -0.0661 -0.2387  0.4234
  173SAPI  H11R19609   4.431   2.715   9.221  0.1539 -2.1369  0.4536
  173SAPI  C21219610   4.477   2.736   9.011  0.4903 -0.1024 -0.3478
  173SAPI  H12R19611   4.374   2.744   8.972  0.7080 -0.6853 -1.0627
  173SAPI  C21319612   4.564   2.743   8.895  0.0390  0.1604  0.8767
  173SAPI  H13R19613   4.575   2.634   8.872 -0.4336  0.2073  0.4102
  173SAPI  H13S19614   4.667   2.776   8.919  1.3029 -0.2725 -3.1943
  173SAPI  C21419615   4.525   2.814   8.772  0.1773 -0.6655  0.5318
  173SAPI  H14R19616   4.537   2.924   8.767  0.1096 -0.6331  1.1157
  173SAPI  C21519617   4.460   2.757   8.664  0.1240 -0.5272  0.1913
  173SAPI  H15R19618   4.436   2.819   8.576  1.0889  0.3469  0.5242
  173SAPI  C21619619   4.408   2.617   8.641 -0.3555 -0.1027  0.0230
  173SAPI  H16R19620   4.332   2.598   8.719  1.3275 -2.0183  1.2957
  173SAPI  H16S19621   4.489   2.545   8.664  0.4404  0.1929 -1.6901
  173SAPI  C21719622   4.349   2.579   8.510  0.0325  0.0549 -1.3500
  173SAPI  H17R19623   4.418   2.613   8.430 -0.4932 -0.8407 -2.2008
  173SAPI  H17S19624   4.260   2.645   8.497  0.1234  0.4964  0.0644
  173SAPI  C21819625   4.319   2.433   8.499  0.4727  0.3681  0.0094
  173SAPI  H18R19626   4.398   2.367   8.539 -0.4693 -1.1474 -0.5551
  173SAPI  H18S19627   4.292   2.406   8.395 -0.3780  1.7704 -0.1695
  173SAPI  C21919628   4.197   2.392   8.584  0.1745  0.1784  0.1277
  173SAPI  H19R19629   4.227   2.403   8.691  2.1040 -2.5825 -0.0256
  173SAPI  H19S19630   4.172   2.287   8.557 -0.0116  0.7630 -2.1532
  173SAPI  C22019631   4.070   2.473   8.565  0.8627  0.2254  0.1799
  173SAPI  H20R19632   4.081   2.583   8.581 -0.4743  0.4674 -0.4321
  173SAPI  H20S19633   3.992   2.434   8.635  1.9579 -0.7564  0.8806
  173SAPI  H20T19634   4.025   2.458   8.465  0.1155 -2.3685  0.8420
  173SAPI   C3319635   4.629   1.948   9.798 -0.0700  0.3793  0.7758
  173SAPI   H3X19636   4.519   1.964   9.802 -0.1278  0.0725  0.5006
  173SAPI   H3Y19637   4.647   1.844   9.834 -0.3155  0.3434  0.8002
  173SAPI   C3419638   4.678   1.952   9.656  0.0924 -0.0715 -0.0423
  173SAPI   H4X19639   4.662   2.054   9.616  0.8937  0.7063  1.5568
  173SAPI   H4Y19640   4.618   1.875   9.601  1.9079 -0.4265 -1.6501
  173SAPI   C3519641   4.820   1.904   9.654  0.0449 -0.6614  1.1819
  173SAPI   H5X19642   4.821   1.799   9.689 -3.0785 -1.0802  0.3997
  173SAPI   H5Y19643   4.887   1.977   9.704  0.1121 -0.1905  0.4236
  173SAPI   C3619644   4.885   1.901   9.513  0.4443 -0.4644 -0.2375
  173SAPI   H6X19645   4.994   1.889   9.529  0.0388 -1.9293  1.9704
  173SAPI   H6Y19646   4.871   2.001   9.466 -0.2383 -0.2932  0.3014
  173SAPI   C3719647   4.825   1.801   9.416  0.1940  0.4225 -0.1006
  173SAPI   H7X19648   4.840   1.833   9.310 -1.6607  1.2382 -0.1610
  173SAPI   H7Y19649   4.714   1.794   9.426  0.0728 -3.1229 -2.1863
  173SAPI   C3819650   4.883   1.660   9.428 -0.2615 -0.7937 -0.0383
  173SAPI   H8X19651   4.855   1.602   9.518 -0.1566 -0.8088 -0.0142
  173SAPI   H8Y19652   4.994   1.668   9.431 -0.2339  0.8298 -2.5057
  173SAPI   C3919653   4.836   1.586   9.304 -0.0379  0.0230  0.3728
  173SAPI   H9X19654   4.842   1.649   9.213 -1.2804  0.3897  0.5244
  173SAPI   H9Y19655   4.727   1.563   9.309 -0.4179  1.0949 -1.7973
  173SAPI  C31019656   4.919   1.454   9.276  0.0548 -1.3845  0.3254
  173SAPI  H10X19657   4.896   1.377   9.352 -2.0379 -0.4665  0.7002
  173SAPI  H10Y19658   5.022   1.495   9.268 -1.1068  1.8645  0.2141
  173SAPI  C31119659   4.866   1.393   9.146  0.6362  0.6661  0.2883
  173SAPI  H11X19660   4.862   1.472   9.068  1.9669  1.5509  1.0861
  173SAPI  H11Y19661   4.762   1.357   9.165  1.0248  0.8458  3.0434
  173SAPI  C31219662   4.943   1.268   9.109 -0.1890 -0.7329 -0.3415
  173SAPI  H12X19663   4.940   1.199   9.196  3.4988  0.0206  0.5748
  173SAPI  H12Y19664   5.051   1.294   9.100 -0.3190  0.3961  1.1205
  173SAPI  C31319665   4.888   1.210   8.981 -0.8303 -0.4620  0.5921
  173SAPI  H13X19666   4.908   1.278   8.896 -1.7406  0.3779  1.0302
  173SAPI  H13Y19667   4.777   1.201   8.988 -1.2143  1.3152 -2.0493
  173SAPI  C31419668   4.954   1.082   8.952 -0.2832  0.4195 -0.2342
  173SAPI  H14X19669   4.914   0.998   9.012  1.9304 -0.7247 -0.2401
  173SAPI  H14Y19670   5.058   1.082   8.991 -0.9905 -0.1016  1.7454
  173SAPI  C31519671   4.966   1.041   8.802  0.7123 -0.1079 -0.6664
  173SAPI  H15X19672   5.020   1.128   8.757  0.7254  0.1914 -0.0775
  173SAPI  H15Y19673   4.860   1.035   8.766  0.7068 -1.0728 -0.5005
  173SAPI  C31619674   5.035   0.908   8.783  0.2345  0.5358  0.5614
  173SAPI  H16X19675   5.010   0.874   8.680  1.2143  0.8644  0.2068
  173SAPI  H16Y19676   5.004   0.830   8.856  1.1332  1.2653  1.7428
  173SAPI  C31719677   5.190   0.922   8.773  0.7102 -0.4206 -0.5901
  173SAPI  H17X19678   5.223   0.980   8.862  0.3232  0.0807 -0.7664
  173SAPI  H17Y19679   5.231   0.959   8.677 -0.4710 -0.9793 -1.3464
  173SAPI  C31819680   5.256   0.781   8.796 -0.1125  0.1737  0.2006
  173SAPI  H18X19681   5.221   0.727   8.887 -1.7939 -0.3579 -0.7225
  173SAPI  H18Y19682   5.366   0.793   8.806  0.0207 -0.9747  0.2481
  173SAPI  H18Z19683   5.234   0.710   8.714 -0.7657 -1.9683  2.1267
  174SAPI   C1219684   0.808   2.895  10.440  0.2393  0.4170 -0.5498
  174SAPI    H219685   0.888   2.964  10.474  0.9997 -0.2666 -0.9254
  174SAPI    O219686   0.731   2.955  10.337  0.2636  0.1849  0.2043
  174SAPI   HO219687   0.668   3.016  10.377  0.9177  1.1328 -0.1581
  174SAPI   C1319688   0.879   2.766  10.394 -0.2083 -0.4491  0.6525
  174SAPI    H319689   0.953   2.731  10.469  1.8970 -1.0490 -1.5897
  174SAPI    O319690   0.962   2.788  10.285  0.2028 -0.4461 -0.1096
  174SAPI   HO319691   0.921   2.860  10.237 -1.0146 -0.1362  1.3429
  174SAPI   C1419692   0.774   2.654  10.369 -0.4434  0.3351  0.0671
  174SAPI    H419693   0.708   2.686  10.286 -1.0182 -3.8493 -1.3081
  174SAPI    O419694   0.850   2.536  10.342  0.3672  0.1279 -0.6146
  174SAPI   HO419695   0.822   2.496  10.260  2.0021  0.1122 -1.2173
  174SAPI   C1519696   0.676   2.627  10.487  0.0243 -0.8601 -0.4011
  174SAPI    H519697   0.732   2.590  10.575  0.6135  2.0438  0.5531
  174SAPI    O519698   0.581   2.521  10.460 -0.0811  0.0345  0.0391
  174SAPI   HO519699   0.525   2.548  10.387 -1.9499 -1.2231  0.9331
  174SAPI   C1619700   0.613   2.761  10.527  0.5319  0.0246 -0.2803
  174SAPI    H619701   0.547   2.800  10.447 -0.6771  1.5913  1.4219
  174SAPI    O619702   0.532   2.745  10.649  0.3562 -0.5077 -0.0213
  174SAPI   HO619703   0.458   2.805  10.642  0.5072 -0.5376 -3.5283
  174SAPI   C1119704   0.712   2.869  10.551  0.3781 -0.2647  0.0622
  174SAPI    H119705   0.771   2.839  10.640  0.5947 -0.8210 -0.2701
  174SAPI     P19706   0.701   3.099  10.693  0.1340  0.4814 -0.1877
  174SAPI   O1319707   0.747   3.015  10.808  0.1111 -0.8467 -0.0662
  174SAPI   O1419708   0.601   3.196  10.731 -0.0963 -0.0467  0.3591
  174SAPI   O1219709   0.652   2.995  10.577  0.0566  0.0173  0.5271
  174SAPI   O1119710   0.828   3.166  10.633  0.3465  0.3442 -0.6053
  174SAPI    C119711   0.816   3.296  10.567  0.0871 -0.1241 -0.5374
  174SAPI    HA19712   0.773   3.375  10.634  0.8249  0.2795 -0.5261
  174SAPI    HB19713   0.922   3.326  10.560  0.9288 -0.7693  5.0805
  174SAPI    C219714   0.764   3.301  10.418  0.1029 -0.6461 -0.4302
  174SAPI    HS19715   0.756   3.407  10.387  0.4498 -0.2125  0.8588
  174SAPI   O2119716   0.637   3.229  10.407 -0.3807 -0.2556 -0.1573
  174SAPI   C2119717   0.532   3.307  10.448 -0.1444  0.0949  0.4014
  174SAPI   O2219718   0.535   3.416  10.501  0.3274  0.0971  0.0780
  174SAPI   C2219719   0.412   3.221  10.430  0.0317  0.2147 -0.3295
  174SAPI   H2R19720   0.407   3.166  10.333 -1.2575 -0.4695  0.1005
  174SAPI   H2S19721   0.414   3.142  10.508  0.1331 -0.8421 -1.3762
  174SAPI    C319722   0.877   3.239  10.325  0.1395  0.7280  0.0329
  174SAPI    HX19723   0.907   3.140  10.367 -0.1020  0.3895 -0.5675
  174SAPI    HY19724   0.964   3.307  10.339  1.0023 -0.8905  3.7073
  174SAPI   O3119725   0.837   3.216  10.183 -0.1850  0.1624 -0.0062
  174SAPI   C3119726   0.937   3.171  10.111  0.0238 -0.7214 -0.4470
  174SAPI   O3219727   1.050   3.147  10.156 -0.0331  0.0021 -0.0681
  174SAPI   C3219728   0.897   3.143   9.970 -0.5764  0.4011  0.4667
  174SAPI   H2X19729   0.821   3.218   9.938  1.7938  2.0312 -1.8141
  174SAPI   H2Y19730   0.867   3.038   9.953 -0.0078  0.1701  0.8820
  174SAPI   C2319731   0.279   3.299  10.459  0.3731 -0.2365 -0.4390
  174SAPI   H3R19732   0.280   3.360  10.552 -0.7772  0.9346 -1.1628
  174SAPI   H3S19733   0.194   3.228  10.475  0.6818 -0.5684 -0.2571
  174SAPI   C2419734   0.237   3.394  10.346  0.8988 -0.7454 -0.1457
  174SAPI   H4R19735   0.293   3.488  10.365 -0.1533 -0.3438  1.1797
  174SAPI   H4S19736   0.133   3.425  10.370  0.6696 -1.9726  0.5522
  174SAPI   C2519737   0.255   3.343  10.207 -0.0170  0.4694 -0.6652
  174SAPI   H5R19738   0.194   3.255  10.179 -0.5408  0.9829 -1.1658
  174SAPI   C2619739   0.332   3.383  10.106  0.4047  0.6064  0.4318
  174SAPI   H6R19740   0.340   3.310  10.024  0.3894  1.2575 -0.1596
  174SAPI   C2719741   0.437   3.494  10.102  0.8630 -0.0636 -0.4114
  174SAPI   H7R19742   0.459   3.536  10.202  0.0875  1.2491 -0.7691
  174SAPI   H7S19743   0.395   3.581  10.047  1.1346  0.6943  0.5598
  174SAPI   C2819744   0.570   3.435  10.058  0.3338 -0.5642 -0.4088
  174SAPI   H8R19745   0.624   3.370  10.129 -0.2016 -1.2249 -0.5880
  174SAPI   C2919746   0.619   3.456   9.936  0.0160  0.3881  0.1158
  174SAPI   H9R19747   0.717   3.418   9.903  0.2166  2.1767 -1.4643
  174SAPI  C21019748   0.554   3.547   9.834 -0.3287 -0.6043  0.2923
  174SAPI  H10R19749   0.624   3.602   9.768 -3.9191  2.7235 -1.1559
  174SAPI  H10S19750   0.510   3.634   9.889 -0.6618 -0.3207 -0.4030
  174SAPI  C21119751   0.442   3.495   9.747 -0.0881  0.0228  0.1305
  174SAPI  H11R19752   0.375   3.416   9.784 -0.9526  0.5409 -0.2792
  174SAPI  C21219753   0.417   3.536   9.625 -0.3481  0.3988 -0.2918
  174SAPI  H12R19754   0.330   3.484   9.581 -0.1282 -1.6927  1.5420
  174SAPI  C21319755   0.481   3.635   9.539  0.1101  0.0980 -0.0252
  174SAPI  H13R19756   0.549   3.578   9.471  1.0352 -0.2199  1.1384
  174SAPI  H13S19757   0.544   3.702   9.600 -0.3932 -0.4970  1.1996
  174SAPI  C21419758   0.390   3.722   9.460  0.2751 -0.8492  0.5628
  174SAPI  H14R19759   0.373   3.822   9.502 -0.0528 -0.6899  0.0519
  174SAPI  C21519760   0.329   3.691   9.345 -0.8257  0.4636 -0.1041
  174SAPI  H15R19761   0.247   3.757   9.313  2.0711  3.5948 -1.7055
  174SAPI  C21619762   0.347   3.564   9.269  0.1164  0.5540 -0.6720
  174SAPI  H16R19763   0.444   3.512   9.282  0.4693  1.1110 -1.0690
  174SAPI  H16S19764   0.336   3.592   9.162 -0.8564  1.9261 -0.2362
  174SAPI  C21719765   0.230   3.453   9.292 -0.3664 -0.5477 -0.0810
  174SAPI  H17R19766   0.132   3.498   9.266 -0.0894 -0.4596 -1.0164
  174SAPI  H17S19767   0.221   3.421   9.398 -3.0805  1.8048  0.5193
  174SAPI  C21819768   0.229   3.333   9.203 -0.0358 -0.8025 -0.4361
  174SAPI  H18R19769   0.330   3.286   9.206  0.2661 -0.1612 -0.3676
  174SAPI  H18S19770   0.214   3.367   9.099 -0.1417  0.2316 -0.0967
  174SAPI  C21919771   0.124   3.233   9.238 -0.6462  0.0896 -0.8566
  174SAPI  H19R19772   0.125   3.149   9.165  2.0868 -2.5246  1.9116
  174SAPI  H19S19773   0.024   3.281   9.235 -0.7506  0.3881  2.8782
  174SAPI  C22019774   0.132   3.167   9.380  0.0130 -0.2652 -0.2724
  174SAPI  H20R19775   0.223   3.105   9.391  0.3078  0.2716  0.3232
  174SAPI  H20S19776   0.043   3.104   9.403  0.0676 -0.3217 -0.2164
  174SAPI  H20T19777   0.129   3.234   9.469  0.1377 -1.6989  0.8557
  174SAPI   C3319778   1.008   3.193   9.874 -0.6914  0.0894  1.0067
  174SAPI   H3X19779   1.103   3.136   9.885 -0.0048  0.3794 -2.3384
  174SAPI   H3Y19780   1.027   3.300   9.897  1.4130  0.2433 -1.0409
  174SAPI   C3419781   0.957   3.192   9.733 -0.3301  0.2813  0.1056
  174SAPI   H4X19782   0.859   3.244   9.723 -0.9693 -1.0555 -0.7651
  174SAPI   H4Y19783   0.934   3.086   9.714 -2.9087  0.7816  0.0874
  174SAPI   C3519784   1.057   3.256   9.626 -0.1097 -0.0866 -0.0334
  174SAPI   H5X19785   1.142   3.186   9.612  2.0436  2.4465 -0.3488
  174SAPI   H5Y19786   1.096   3.355   9.659  2.3146 -0.6565 -0.9775
  174SAPI   C3619787   1.005   3.276   9.483  0.3891 -0.2267  1.4294
  174SAPI   H6X19788   0.938   3.364   9.494  0.4785 -0.3629  3.7373
  174SAPI   H6Y19789   0.941   3.186   9.469  0.2363  0.1375 -0.4300
  174SAPI   C3719790   1.110   3.281   9.380  0.1477  0.2748  0.4115
  174SAPI   H7X19791   1.161   3.183   9.373 -0.6748 -0.1969  0.8487
  174SAPI   H7Y19792   1.185   3.359   9.405 -0.7487  1.7785 -1.3096
  174SAPI   C3819793   1.047   3.310   9.241  0.4126  0.3755 -0.2051
  174SAPI   H8X19794   1.006   3.412   9.231  1.1712  0.6682 -0.3853
  174SAPI   H8Y19795   0.959   3.243   9.227  0.7486 -0.0311 -0.4158
  174SAPI   C3919796   1.132   3.273   9.117 -0.5813  0.4050 -0.5716
  174SAPI   H9X19797   1.146   3.162   9.121  2.3301  0.7106  0.0794
  174SAPI   H9Y19798   1.233   3.318   9.125 -0.5149  0.6805 -2.5875
  174SAPI  C31019799   1.069   3.307   8.983 -0.1411  0.3442 -0.2394
  174SAPI  H10X19800   1.065   3.418   8.976  2.8214  0.5205 -0.4754
  174SAPI  H10Y19801   0.960   3.283   8.983 -0.6757  2.5021  0.7172
  174SAPI  C31119802   1.152   3.272   8.865  0.2529  0.7141 -0.0778
  174SAPI  H11X19803   1.204   3.173   8.870  0.8568  0.9041 -1.8820
  174SAPI  H11Y19804   1.229   3.352   8.855 -0.5675  1.6836  1.0653
  174SAPI  C31219805   1.082   3.277   8.724 -0.0750 -0.3502  0.1618
  174SAPI  H12X19806   1.009   3.194   8.713 -0.7708  0.0799  1.3378
  174SAPI  H12Y19807   1.153   3.272   8.638  0.9931  2.1064  0.8023
  174SAPI  C31319808   0.990   3.402   8.707 -0.0694 -0.0148 -0.7629
  174SAPI  H13X19809   1.047   3.497   8.715 -0.1347  0.1009 -1.6779
  174SAPI  H13Y19810   0.919   3.412   8.792 -1.8750  0.2688 -2.2601
  174SAPI  C31419811   0.931   3.387   8.569  0.2925 -1.1886 -0.0055
  174SAPI  H14X19812   0.866   3.297   8.573  0.8226 -1.5259  2.8751
  174SAPI  H14Y19813   1.010   3.387   8.491 -0.3048  2.1418 -0.7669
  174SAPI  C31519814   0.841   3.503   8.529  0.0085 -0.2756  0.3699
  174SAPI  H15X19815   0.890   3.602   8.541  1.7512 -0.5307 -3.2517
  174SAPI  H15Y19816   0.747   3.503   8.587 -0.6200  1.8264 -0.5539
  174SAPI  C31619817   0.795   3.495   8.377 -0.4236  1.1227  0.3551
  174SAPI  H16X19818   0.728   3.406   8.381  0.6596  0.1264 -1.8568
  174SAPI  H16Y19819   0.871   3.475   8.298 -0.0180  2.2083  0.4637
  174SAPI  C31719820   0.719   3.623   8.331 -0.2005 -0.6914 -0.2607
  174SAPI  H17X19821   0.777   3.707   8.374  1.6057 -1.1653 -1.6021
  174SAPI  H17Y19822   0.617   3.622   8.373 -0.1894 -0.1028 -0.2194
  174SAPI  C31819823   0.724   3.635   8.174  0.0248 -0.2176 -0.1666
  174SAPI  H18X19824   0.679   3.730   8.139  0.7360  0.0980 -0.2403
  174SAPI  H18Y19825   0.667   3.548   8.136  0.8464 -0.7442 -0.2058
  174SAPI  H18Z19826   0.831   3.641   8.146  0.4513  1.6147  1.6078
  175SAPI   C1219827   4.067   1.883   6.388 -0.1588  0.3337  0.0432
  175SAPI    H219828   4.018   1.919   6.481  0.1576  2.3089 -0.5048
  175SAPI    O219829   4.141   1.986   6.333 -0.8370 -0.3288  0.4221
  175SAPI   HO219830   4.079   2.060   6.328 -1.0841 -0.6055 -1.2761
  175SAPI   C1319831   4.156   1.765   6.410 -0.8267  0.0305  0.6169
  175SAPI    H319832   4.096   1.678   6.444 -0.1809 -0.4906  0.4502
  175SAPI    O319833   4.257   1.785   6.507  0.0361 -0.1203  0.2034
  175SAPI   HO319834   4.233   1.733   6.584 -1.5990 -1.5848 -1.2188
  175SAPI   C1419835   4.220   1.706   6.285 -0.3800  0.3091  0.3812
  175SAPI    H419836   4.284   1.783   6.238  1.0041 -1.2396 -0.3773
  175SAPI    O419837   4.297   1.586   6.311  0.6160 -0.3881  0.0604
  175SAPI   HO419838   4.387   1.618   6.324  0.0663  1.2320  0.1342
  175SAPI   C1519839   4.106   1.671   6.187  0.7409 -0.7201 -0.1092
  175SAPI    H519840   4.046   1.586   6.228 -1.2869 -0.1454 -1.7111
  175SAPI    O519841   4.159   1.622   6.063  0.3079 -0.4777 -0.1070
  175SAPI   HO519842   4.221   1.684   6.025 -2.4769  2.5509 -0.1017
  175SAPI   C1619843   4.010   1.788   6.162 -0.1585 -0.1060  0.7190
  175SAPI    H619844   4.068   1.872   6.117  1.2574 -1.8211 -0.7827
  175SAPI    O619845   3.906   1.752   6.071 -0.0016 -0.7118  0.5108
  175SAPI   HO619846   3.940   1.772   5.983 -1.0613  0.3147  0.3013
  175SAPI   C1119847   3.949   1.847   6.289 -0.3489 -0.2829  0.1888
  175SAPI    H119848   3.900   1.771   6.354  0.8248  0.4915  2.0635
  175SAPI     P19849   3.737   1.996   6.361  0.4915  0.4564  0.3191
  175SAPI   O1319850   3.720   1.878   6.448  0.4255  0.4494  0.1207
  175SAPI   O1419851   3.621   2.042   6.279 -0.4158 -0.0973 -0.3232
  175SAPI   O1219852   3.868   1.964   6.270  0.5667 -0.0811  0.5406
  175SAPI   O1119853   3.789   2.120   6.454 -0.4190  0.6099  0.1317
  175SAPI    C119854   3.695   2.199   6.517  0.3574 -0.1464  0.9993
  175SAPI    HA19855   3.666   2.282   6.449  2.7484  0.1161  0.2058
  175SAPI    HB19856   3.607   2.143   6.554 -0.4552  1.4114  1.4904
  175SAPI    C219857   3.753   2.265   6.644 -0.3929  0.0702  0.1360
  175SAPI    HS19858   3.840   2.324   6.606  1.0315 -1.7180  0.4553
  175SAPI   O2119859   3.800   2.165   6.734 -0.5864  0.2711 -0.2353
  175SAPI   C2119860   3.921   2.115   6.720  0.9267 -0.0777 -0.0796
  175SAPI   O2219861   4.007   2.159   6.649  0.0988 -0.0416  0.3550
  175SAPI   C2219862   3.926   1.992   6.813 -0.6052 -0.2219  0.9037
  175SAPI   H2R19863   3.917   2.036   6.915  2.7595 -1.7494  2.0273
  175SAPI   H2S19864   3.845   1.920   6.790  1.5480 -2.4218 -0.2508
  175SAPI    C319865   3.636   2.344   6.714 -0.2731 -0.0459 -0.0220
  175SAPI    HX19866   3.541   2.288   6.701 -0.4941  0.3470 -0.1191
  175SAPI    HY19867   3.618   2.440   6.662  0.7198  0.2289  0.1172
  175SAPI   O3119868   3.676   2.371   6.846 -0.0209  0.0630  0.1101
  175SAPI   C3119869   3.612   2.317   6.948  0.3618 -0.8225 -0.1274
  175SAPI   O3219870   3.517   2.241   6.943  0.2964  0.0550  0.7335
  175SAPI   C3219871   3.683   2.370   7.084  0.7228  0.3722 -0.1854
  175SAPI   H2X19872   3.633   2.464   7.118 -0.3214  0.5748 -2.1004
  175SAPI   H2Y19873   3.786   2.384   7.046  0.9508 -1.6711 -0.4379
  175SAPI   C2319874   4.054   1.902   6.808  0.5201 -0.4053 -0.5189
  175SAPI   H3R19875   4.133   1.978   6.792 -0.2853  0.7477  0.7737
  175SAPI   H3S19876   4.046   1.837   6.719  0.9562  1.8381 -2.2817
  175SAPI   C2419877   4.083   1.826   6.942 -0.1498 -0.7847 -0.9391
  175SAPI   H4R19878   4.105   1.903   7.019 -2.8586  0.6022 -1.4391
  175SAPI   H4S19879   4.170   1.757   6.941  1.8201  1.4216  1.6481
  175SAPI   C2519880   3.957   1.756   6.985  0.2522  0.8532  0.3020
  175SAPI   H5R19881   3.908   1.704   6.901 -0.8048  1.9812  0.1789
  175SAPI   C2619882   3.913   1.735   7.109  0.3036  0.8622  0.0341
  175SAPI   H6R19883   3.815   1.688   7.123  1.5269 -2.0157 -0.2927
  175SAPI   C2719884   3.980   1.774   7.244  0.0592  0.3221  0.0820
  175SAPI   H7R19885   4.060   1.848   7.225  0.6463 -0.6808 -1.5229
  175SAPI   H7S19886   4.041   1.692   7.287  0.6565  0.6967 -0.0487
  175SAPI   C2819887   3.872   1.813   7.339 -0.4580  0.1474  0.0070
  175SAPI   H8R19888   3.797   1.884   7.304  1.0483  1.4956 -0.6054
  175SAPI   C2919889   3.866   1.779   7.473  0.2746 -0.4368  0.9696
  175SAPI   H9R19890   3.788   1.831   7.531 -1.0540  2.1688 -2.7613
  175SAPI  C21019891   3.962   1.686   7.545  0.0223 -0.3456 -0.3049
  175SAPI  H10R19892   4.019   1.747   7.618  2.5350 -1.6332 -1.0774
  175SAPI  H10S19893   4.029   1.643   7.467 -1.2983  0.7042 -2.1001
  175SAPI  C21119894   3.895   1.563   7.605 -1.1217 -0.3834  0.2440
  175SAPI  H11R19895   3.821   1.512   7.542 -1.0292  0.4458 -0.5578
  175SAPI  C21219896   3.923   1.519   7.725  0.1856 -0.4528 -0.2170
  175SAPI  H12R19897   3.865   1.433   7.763 -0.5693  0.6414  1.2300
  175SAPI  C21319898   4.020   1.569   7.827 -0.4561  0.3255  0.3256
  175SAPI  H13R19899   4.116   1.596   7.779  0.9153  0.6311  3.0113
  175SAPI  H13S19900   4.048   1.482   7.890  1.3445 -0.5596 -1.5710
  175SAPI  C21419901   3.965   1.686   7.900 -0.0675 -0.4124  0.1496
  175SAPI  H14R19902   3.901   1.751   7.838 -0.4456  0.1363  1.0825
  175SAPI  C21519903   3.992   1.716   8.031  0.5557  0.1130 -0.1952
  175SAPI  H15R19904   3.935   1.803   8.066 -2.4351 -1.6521 -0.3978
  175SAPI  C21619905   4.075   1.637   8.121 -0.1832  0.3006  0.7721
  175SAPI  H16R19906   4.146   1.701   8.178  0.4076  0.5413 -0.2090
  175SAPI  H16S19907   4.135   1.563   8.063 -1.1071 -0.5576  0.8827
  175SAPI  C21719908   3.990   1.569   8.221  0.1658 -0.1893  0.2309
  175SAPI  H17R19909   3.921   1.498   8.171 -1.8528  0.7325  1.5894
  175SAPI  H17S19910   3.921   1.643   8.267  0.9637  1.8791 -1.6611
  175SAPI  C21819911   4.057   1.478   8.321 -0.2333  0.6735  0.2829
  175SAPI  H18R19912   4.113   1.543   8.392  0.3587  0.1570  0.3044
  175SAPI  H18S19913   4.144   1.411   8.301  0.2604  1.1737  0.7262
  175SAPI  C21919914   3.945   1.407   8.390 -0.5459  1.1732 -0.1550
  175SAPI  H19R19915   3.907   1.326   8.325  1.0515  0.0197  0.2820
  175SAPI  H19S19916   3.861   1.473   8.423  0.1042  0.6545  2.7988
  175SAPI  C22019917   3.989   1.340   8.520 -0.1462 -0.1672  0.0903
  175SAPI  H20R19918   4.005   1.427   8.588 -0.7573  2.1042 -2.5057
  175SAPI  H20S19919   4.079   1.276   8.508 -1.1619 -1.3104 -1.9798
  175SAPI  H20T19920   3.910   1.280   8.571 -0.6282  2.3821  2.5845
  175SAPI   C3319921   3.696   2.263   7.195 -0.0611  0.4164  0.1527
  175SAPI   H3X19922   3.758   2.179   7.156 -0.1632  0.2955  0.2509
  175SAPI   H3Y19923   3.590   2.230   7.193  0.4549 -1.5076  1.2457
  175SAPI   C3419924   3.734   2.323   7.336 -0.2607 -0.4193  0.9069
  175SAPI   H4X19925   3.839   2.359   7.326 -0.4256 -0.0897  0.3290
  175SAPI   H4Y19926   3.734   2.243   7.413  0.4261  0.9550  2.4097
  175SAPI   C3519927   3.650   2.438   7.380  0.6758  0.5494  0.1738
  175SAPI   H5X19928   3.548   2.402   7.356  0.3656  1.2096  0.4897
  175SAPI   H5Y19929   3.668   2.530   7.320 -0.7961 -0.8479 -2.6458
  175SAPI   C3619930   3.672   2.476   7.524  0.7230  0.5281  0.1558
  175SAPI   H6X19931   3.602   2.558   7.552 -0.6488  0.1512 -1.9161
  175SAPI   H6Y19932   3.772   2.524   7.522  1.0717  0.0044  2.5505
  175SAPI   C3719933   3.665   2.376   7.639 -0.0667 -0.2254  0.5276
  175SAPI   H7X19934   3.740   2.295   7.621  1.3544  0.7532  1.7771
  175SAPI   H7Y19935   3.562   2.336   7.649  0.4792 -1.3358  2.1791
  175SAPI   C3819936   3.721   2.444   7.765  0.2244  0.5405 -0.3738
  175SAPI   H8X19937   3.648   2.525   7.785 -0.0716  0.4810 -1.1632
  175SAPI   H8Y19938   3.813   2.504   7.749 -1.0853  3.0045  0.7927
  175SAPI   C3919939   3.720   2.358   7.893  0.6863 -0.3755  1.1549
  175SAPI   H9X19940   3.817   2.304   7.896  0.1772 -1.8590 -3.0505
  175SAPI   H9Y19941   3.635   2.289   7.882  1.5555 -1.2465 -0.5947
  175SAPI  C31019942   3.711   2.451   8.013 -0.0967  0.6876 -0.1605
  175SAPI  H10X19943   3.622   2.518   8.001  1.5149  3.1957  1.0562
  175SAPI  H10Y19944   3.796   2.523   8.017  0.3482  0.1946 -0.6779
  175SAPI  C31119945   3.703   2.367   8.142  0.4523 -0.7878 -0.7026
  175SAPI  H11X19946   3.784   2.291   8.153 -0.2249 -1.1915  2.0853
  175SAPI  H11Y19947   3.618   2.296   8.138  1.9374 -2.6321 -0.8690
  175SAPI  C31219948   3.674   2.458   8.266  0.2279 -0.2308 -0.2631
  175SAPI  H12X19949   3.596   2.533   8.240 -0.7606 -1.2753 -0.3845
  175SAPI  H12Y19950   3.767   2.514   8.292 -0.4955  0.5112  0.8262
  175SAPI  C31319951   3.670   2.388   8.404  0.7728  0.1926  0.8076
  175SAPI  H13X19952   3.765   2.332   8.416  0.2452 -0.9920 -0.2871
  175SAPI  H13Y19953   3.582   2.320   8.406 -1.9862  3.5276  1.7321
  175SAPI  C31419954   3.655   2.486   8.519 -0.3832 -0.2411 -0.3437
  175SAPI  H14X19955   3.564   2.548   8.506 -2.5829 -3.2393 -0.3372
  175SAPI  H14Y19956   3.745   2.552   8.520 -1.5322  1.3943 -0.0408
  175SAPI  C31519957   3.647   2.413   8.653  0.2408  0.1962 -0.0056
  175SAPI  H15X19958   3.724   2.333   8.664 -0.2190 -0.3622 -0.7469
  175SAPI  H15Y19959   3.559   2.345   8.652  0.7775 -0.7196  3.1208
  175SAPI  C31619960   3.634   2.514   8.764 -0.5458 -0.0245  0.1109
  175SAPI  H16X19961   3.541   2.567   8.734  0.6378  1.0260 -1.8984
  175SAPI  H16Y19962   3.720   2.583   8.753 -0.9263  0.2751 -1.1822
  175SAPI  C31719963   3.628   2.456   8.904  0.0286 -0.1579 -0.8909
  175SAPI  H17X19964   3.717   2.391   8.922 -2.1563 -2.3130  3.8243
  175SAPI  H17Y19965   3.546   2.382   8.901  0.0570 -0.2364  0.0820
  175SAPI  C31819966   3.613   2.548   9.029  0.3921 -0.5156 -0.0875
  175SAPI  H18X19967   3.522   2.608   9.008 -0.3741 -1.6180  0.0081
  175SAPI  H18Y19968   3.708   2.601   9.054  0.5649 -0.3811 -1.0032
  175SAPI  H18Z19969   3.584   2.487   9.117 -1.1629  0.4651  0.1034
  176SAPI   C1219970   3.346   1.754   6.200 -0.0204 -0.7524  0.8925
  176SAPI    H219971   3.265   1.828   6.216 -1.3564 -2.2907  1.5925
  176SAPI    O219972   3.263   1.641   6.183 -0.0250  0.8242 -0.1330
  176SAPI   HO219973   3.185   1.654   6.237 -1.3677  1.5852 -2.1409
  176SAPI   C1319974   3.434   1.783   6.077  0.0898 -0.2648 -0.6777
  176SAPI    H319975   3.491   1.872   6.110 -2.9570  1.1707  1.0963
  176SAPI    O319976   3.363   1.819   5.955 -0.2928 -0.3121 -0.1077
  176SAPI   HO319977   3.423   1.876   5.907  2.5820 -0.4447  2.9653
  176SAPI   C1419978   3.535   1.663   6.056  0.4140  0.1540  0.1978
  176SAPI    H419979   3.471   1.572   6.063  0.8967 -0.0818  2.0165
  176SAPI    O419980   3.618   1.672   5.941  0.0138 -0.0643  0.0130
  176SAPI   HO419981   3.708   1.700   5.954  0.8442 -1.7658 -1.5802
  176SAPI   C1519982   3.623   1.657   6.184  0.3691 -0.1743 -0.9908
  176SAPI    H519983   3.655   1.762   6.201  0.3704 -0.3355  0.1035
  176SAPI    O519984   3.735   1.574   6.175 -0.2983  0.3629 -0.1012
  176SAPI   HO519985   3.801   1.634   6.139 -1.4083  1.1800 -0.8543
  176SAPI   C1619986   3.535   1.634   6.312 -0.0464  0.0123  0.5078
  176SAPI    H619987   3.494   1.532   6.292  2.6596 -1.0103 -0.3050
  176SAPI    O619988   3.613   1.631   6.433 -0.1624  0.0897  0.5664
  176SAPI   HO619989   3.651   1.719   6.437  0.3722 -0.1214  0.2018
  176SAPI   C1119990   3.427   1.747   6.321 -0.6744  0.4569 -0.4833
  176SAPI    H119991   3.491   1.837   6.328  1.3661 -0.8096 -1.5782
  176SAPI     P19992   3.286   1.875   6.504  0.0125  0.3633  0.3039
  176SAPI   O1319993   3.142   1.854   6.525 -0.1424 -0.1118 -0.1706
  176SAPI   O1419994   3.323   1.990   6.420  0.5142  0.0622  0.2416
  176SAPI   O1219995   3.342   1.742   6.434  0.0373  0.2587 -0.6440
  176SAPI   O1119996   3.357   1.890   6.642 -0.0874 -0.4428 -0.3983
  176SAPI    C119997   3.359   1.774   6.728  0.4389 -0.1078  0.6950
  176SAPI    HA19998   3.282   1.780   6.808 -1.4120 -2.3184 -0.8056
  176SAPI    HB19999   3.337   1.680   6.674 -0.1867 -0.1491  1.0091
  176SAPI    C220000   3.502   1.752   6.781 -0.3547  0.0675 -0.5554
  176SAPI    HS20001   3.567   1.724   6.695  0.2928 -0.3450  0.0561
  176SAPI   O2120002   3.490   1.654   6.886 -0.1357 -0.4909  0.3018
  176SAPI   C2120003   3.601   1.586   6.900  0.4466  0.0735 -0.5044
  176SAPI   O2220004   3.694   1.597   6.821  0.2368 -0.2569 -0.2505
  176SAPI   C2220005   3.598   1.499   7.023  0.4460 -0.5141 -0.1324
  176SAPI   H2R20006   3.688   1.521   7.084  0.1052  0.5963  0.0106
  176SAPI   H2S20007   3.515   1.532   7.090  0.9194  1.3662 -0.4014
  176SAPI    C320008   3.548   1.886   6.852 -0.8310  0.1599 -0.5481
  176SAPI    HX20009   3.572   1.962   6.775  2.1584  0.8517  0.8996
  176SAPI    HY20010   3.648   1.863   6.895 -1.6745  1.3082  2.2761
  176SAPI   O3120011   3.459   1.930   6.953 -0.7478  0.6892 -0.2426
  176SAPI   C3120012   3.500   1.915   7.080 -0.2409  0.1723 -0.0939
  176SAPI   O3220013   3.605   1.870   7.119  0.1326 -0.0720  0.4252
  176SAPI   C3220014   3.388   1.963   7.175  0.2895  0.7923 -0.8327
  176SAPI   H2X20015   3.290   1.945   7.125  0.0361  0.2168 -0.1361
  176SAPI   H2Y20016   3.394   2.072   7.194 -0.7540  0.7203  0.0217
  176SAPI   C2320017   3.600   1.345   7.004  0.0764  0.1382  0.3235
  176SAPI   H3R20018   3.698   1.304   6.971 -0.3579  0.2857 -1.2246
  176SAPI   H3S20019   3.524   1.316   6.929 -1.0810  0.6263  1.2729
  176SAPI   C2420020   3.555   1.273   7.129 -0.6682  0.2091  0.0947
  176SAPI   H4R20021   3.542   1.167   7.095  0.9010  0.8812 -2.9036
  176SAPI   H4S20022   3.451   1.307   7.151 -0.7514  0.8705 -1.2297
  176SAPI   C2520023   3.647   1.294   7.249 -0.0223  0.0151  0.4942
  176SAPI   H5R20024   3.749   1.263   7.224  0.4927  2.7636 -1.3031
  176SAPI   C2620025   3.616   1.355   7.361  0.5375  0.2341  0.2788
  176SAPI   H6R20026   3.687   1.383   7.440  0.7352  1.8398 -0.4253
  176SAPI   C2720027   3.482   1.413   7.397  0.2348  0.1868 -0.2312
  176SAPI   H7R20028   3.413   1.418   7.310  1.3620 -1.7596 -1.3053
  176SAPI   H7S20029   3.495   1.522   7.412 -1.9995  0.2740  1.8774
  176SAPI   C2820030   3.424   1.349   7.524  0.8437 -0.1357  0.7296
  176SAPI   H8R20031   3.345   1.274   7.514  0.6504  0.3096 -1.6010
  176SAPI   C2920032   3.435   1.401   7.646 -0.9266  0.9535 -0.2152
  176SAPI   H9R20033   3.374   1.341   7.715 -1.0375  0.3582 -0.8208
  176SAPI  C21020034   3.515   1.511   7.705  0.4894  0.0639 -0.1971
  176SAPI  H10R20035   3.546   1.583   7.626  0.8950  1.0088  0.7867
  176SAPI  H10S20036   3.615   1.475   7.739  1.2951  1.5515 -0.8678
  176SAPI  C21120037   3.434   1.578   7.812 -0.6142 -0.9770  0.8110
  176SAPI  H11R20038   3.374   1.665   7.783 -0.0306  0.0509  2.5814
  176SAPI  C21220039   3.443   1.544   7.943  0.1121 -0.6445 -0.3955
  176SAPI  H12R20040   3.391   1.612   8.013 -0.5794  1.5668 -2.8837
  176SAPI  C21320041   3.530   1.433   7.998  0.2444  0.9293 -0.8576
  176SAPI  H13R20042   3.556   1.370   7.910 -2.8134  0.2292 -1.3702
  176SAPI  H13S20043   3.480   1.357   8.063  0.4638  1.7168  0.2595
  176SAPI  C21420044   3.637   1.517   8.066  0.3822 -0.8256 -0.2572
  176SAPI  H14R20045   3.716   1.561   8.003  1.2370 -2.5440 -0.4656
  176SAPI  C21520046   3.646   1.540   8.193 -0.2574 -0.3174  0.3965
  176SAPI  H15R20047   3.728   1.605   8.227  0.4612 -1.0641  0.1249
  176SAPI  C21620048   3.560   1.472   8.303  0.2209 -0.2461 -0.9920
  176SAPI  H16R20049   3.627   1.418   8.373 -0.0894  1.5085  0.7280
  176SAPI  H16S20050   3.484   1.400   8.266 -0.3485  0.1695 -0.6577
  176SAPI  C21720051   3.489   1.583   8.382 -0.1927  0.5077  0.0051
  176SAPI  H17R20052   3.396   1.614   8.330  1.1195  0.8836 -2.2562
  176SAPI  H17S20053   3.536   1.683   8.396  0.4791  0.2337 -0.2569
  176SAPI  C21820054   3.445   1.535   8.525  0.3084  0.1421 -0.4518
  176SAPI  H18R20055   3.532   1.502   8.586 -0.6878  1.2761  1.6977
  176SAPI  H18S20056   3.373   1.453   8.503 -0.8808  1.2016 -0.6526
  176SAPI  C21920057   3.375   1.642   8.609 -0.0084 -0.0537  0.1018
  176SAPI  H19R20058   3.282   1.674   8.558  1.7115  2.0128 -1.9971
  176SAPI  H19S20059   3.441   1.726   8.637  1.3123 -0.8458 -0.5130
  176SAPI  C22020060   3.330   1.596   8.748  0.4224  0.6283 -0.6005
  176SAPI  H20R20061   3.262   1.508   8.747 -1.5826  2.0906  0.4977
  176SAPI  H20S20062   3.274   1.685   8.785 -1.2521 -0.1649 -1.1075
  176SAPI  H20T20063   3.407   1.574   8.824  1.1736  1.2700 -1.1611
  176SAPI   C3320064   3.391   1.895   7.317  0.4274 -0.2684 -0.0827
  176SAPI   H3X20065   3.428   1.792   7.300 -1.8140 -1.0271 -0.7079
  176SAPI   H3Y20066   3.288   1.884   7.358 -0.4010 -4.4845 -2.7295
  176SAPI   C3420067   3.491   1.967   7.412  0.1338 -0.3511  0.0101
  176SAPI   H4X20068   3.469   2.076   7.412  0.2537 -0.2981  1.6047
  176SAPI   H4Y20069   3.591   1.972   7.363 -0.0349 -0.2772 -0.3254
  176SAPI   C3520070   3.496   1.911   7.552 -0.1804  0.3126  0.6652
  176SAPI   H5X20071   3.534   1.809   7.531 -0.9498 -0.1602  1.5446
  176SAPI   H5Y20072   3.388   1.904   7.575  0.0209 -3.0799  0.9478
  176SAPI   C3620073   3.583   1.985   7.655  0.3655 -0.3358 -0.1366
  176SAPI   H6X20074   3.560   2.094   7.653  1.0381 -0.1549 -3.5251
  176SAPI   H6Y20075   3.691   1.976   7.629  0.1014  2.3772 -2.5986
  176SAPI   C3720076   3.573   1.936   7.795 -0.3946 -0.0931  1.0815
  176SAPI   H7X20077   3.598   1.828   7.781  0.0531  0.2565 -1.2467
  176SAPI   H7Y20078   3.467   1.940   7.828 -0.9066 -2.2248 -0.1239
  176SAPI   C3820079   3.634   2.016   7.909 -0.1984 -0.2956 -0.6253
  176SAPI   H8X20080   3.571   2.106   7.923 -0.8762 -0.7872 -0.4769
  176SAPI   H8Y20081   3.740   2.045   7.893 -0.8647  2.2795 -0.8624
  176SAPI   C3920082   3.642   1.930   8.033  0.2736 -0.2189  0.1864
  176SAPI   H9X20083   3.707   1.841   8.018 -1.1830 -1.5203  1.3208
  176SAPI   H9Y20084   3.541   1.898   8.069 -0.2847 -0.4995 -1.5232
  176SAPI  C31020085   3.699   2.001   8.149  0.3692 -0.0309  0.7032
  176SAPI  H10X20086   3.640   2.095   8.156  0.4616 -0.0291  1.5378
  176SAPI  H10Y20087   3.807   2.027   8.140  0.9890 -1.7507  2.4734
  176SAPI  C31120088   3.709   1.908   8.277  0.6074 -0.6492  0.6874
  176SAPI  H11X20089   3.793   1.835   8.275  2.4516  1.3410  0.9802
  176SAPI  H11Y20090   3.614   1.852   8.287 -0.1883  0.8996  2.3338
  176SAPI  C31220091   3.738   2.000   8.396  0.1833  0.0735 -0.3345
  176SAPI  H12X20092   3.659   2.078   8.408 -0.6826 -0.9318  0.8076
  176SAPI  H12Y20093   3.824   2.066   8.371 -2.0630  3.4793  0.2465
  176SAPI  C31320094   3.758   1.918   8.533 -0.5404 -0.0270  0.1114
  176SAPI  H13X20095   3.664   1.865   8.561 -0.0562 -0.3794  1.1044
  176SAPI  H13Y20096   3.777   1.993   8.612 -1.1602  0.8291 -0.5375
  176SAPI  C31420097   3.866   1.806   8.540 -0.1895 -0.4999  0.0367
  176SAPI  H14X20098   3.839   1.723   8.471 -1.6187 -0.6807  0.7797
  176SAPI  H14Y20099   3.882   1.781   8.647  1.8255 -1.6891 -0.4791
  176SAPI  C31520100   4.003   1.868   8.499 -0.1263 -0.2587 -0.1863
  176SAPI  H15X20101   3.990   1.907   8.396  0.1791 -0.7220 -0.4035
  176SAPI  H15Y20102   4.079   1.789   8.483  1.7281  1.1158  1.3483
  176SAPI  C31620103   4.070   1.965   8.596 -0.5488  0.1818  0.2653
  176SAPI  H16X20104   4.040   1.947   8.702  0.2341  0.3993  0.5309
  176SAPI  H16Y20105   4.052   2.073   8.577 -2.4584  0.0327  0.9837
  176SAPI  C31720106   4.225   1.947   8.613 -0.1818 -0.6908  0.0975
  176SAPI  H17X20107   4.255   1.841   8.626  0.8851 -0.2280  1.8259
  176SAPI  H17Y20108   4.270   2.005   8.697  0.9218  0.2628 -1.1206
  176SAPI  C31820109   4.290   1.993   8.481  0.0472 -0.8477 -0.3318
  176SAPI  H18X20110   4.395   1.955   8.473  0.8389  0.4953  2.4291
  176SAPI  H18Y20111   4.290   2.104   8.472 -2.0631 -0.8740 -1.0987
  176SAPI  H18Z20112   4.235   1.960   8.390  0.4804  0.5175 -1.1146
  177SLPC     N20113   2.895   2.025  10.857  0.2707 -0.0238  0.2432
  177SLPC   C1320114   2.841   1.907  10.797  0.3563 -0.3020  0.3062
  177SLPC  H13A20115   2.779   1.933  10.712  2.2263  1.3398 -0.6327
  177SLPC  H13B20116   2.917   1.837  10.766 -0.4696 -1.0610 -0.0629
  177SLPC  H13C20117   2.772   1.857  10.863  0.5729  0.1431  0.8743
  177SLPC   C1420118   2.990   1.988  10.966  0.1620 -0.6896  0.6657
  177SLPC  H14A20119   3.018   2.073  11.026  1.9838  0.3668 -1.4977
  177SLPC  H14B20120   2.960   1.904  11.027 -0.7467 -0.6758  0.2518
  177SLPC  H14C20121   3.083   1.959  10.920 -0.3025  1.2926 -1.7405
  177SLPC   C1520122   2.775   2.092  10.917  0.2789 -0.0133 -0.8186
  177SLPC  H15A20123   2.711   2.146  10.848 -0.3612  0.5708  0.2041
  177SLPC  H15B20124   2.714   2.021  10.969  2.3893  0.6345  2.8786
  177SLPC  H15C20125   2.809   2.174  10.979 -0.8897 -0.1645  0.0590
  177SLPC   C1220126   2.974   2.107  10.756  0.1678 -0.1735  0.2018
  177SLPC  H12A20127   3.044   2.056  10.693  1.8356  4.3507 -2.0856
  177SLPC  H12B20128   3.026   2.186  10.809 -0.4375  0.7823 -0.5827
  177SLPC   C1120129   2.878   2.188  10.660  0.1740 -0.0907 -0.0999
  177SLPC  H11A20130   2.809   2.113  10.615  1.8269 -2.1315  0.6590
  177SLPC  H11B20131   2.932   2.242  10.579 -1.2711 -0.5040 -1.3982
  177SLPC     P20132   2.665   2.337  10.702  0.6070 -0.0029 -0.1855
  177SLPC   O1320133   2.584   2.213  10.672 -0.1261 -0.5291 -0.0584
  177SLPC   O1420134   2.615   2.426  10.812  0.3906 -0.5505 -0.2903
  177SLPC   O1220135   2.812   2.288  10.736  0.3549  0.1514  0.1422
  177SLPC   O1120136   2.671   2.417  10.575 -0.7910  0.2572  0.1356
  177SLPC    C120137   2.764   2.509  10.530 -0.5121 -0.0267 -0.0023
  177SLPC    HA20138   2.732   2.613  10.555  2.1498  0.2194  2.9808
  177SLPC    HB20139   2.856   2.474  10.582 -1.1873 -0.7390  0.7369
  177SLPC    C220140   2.801   2.496  10.378 -0.7732 -0.8231 -0.1639
  177SLPC    HS20141   2.728   2.556  10.319  0.6132  1.8585  0.6716
  177SLPC   O2120142   2.821   2.356  10.350  0.5990 -0.3439 -0.6414
  177SLPC   C2120143   2.714   2.297  10.292 -0.1385 -0.5593  0.1155
  177SLPC   O2220144   2.617   2.360  10.245 -0.1235  0.0738 -0.0310
  177SLPC   C2220145   2.733   2.149  10.288 -0.1028  0.1395 -0.1738
  177SLPC   H2R20146   2.828   2.122  10.238 -0.0515  0.8933 -0.4948
  177SLPC   H2S20147   2.745   2.113  10.393 -3.2233 -2.3940 -0.5266
  177SLPC    C320148   2.936   2.561  10.348  0.6397  0.5051 -0.1382
  177SLPC    HX20149   3.020   2.497  10.384  0.6572 -0.1818 -1.3586
  177SLPC    HY20150   2.942   2.653  10.410  1.7813 -0.9450  2.0021
  177SLPC   O3120151   2.932   2.599  10.210 -1.1105 -0.1541 -0.2171
  177SLPC   C3120152   3.037   2.565  10.139  0.1486  0.5279 -0.2682
  177SLPC   O3220153   3.134   2.503  10.179 -0.1519  0.3176 -0.1740
  177SLPC   C3220154   3.034   2.622   9.995  0.0434  0.2181  0.4538
  177SLPC   H2X20155   3.015   2.732   9.988  0.0299  0.1660 -0.3104
  177SLPC   H2Y20156   2.957   2.562   9.943 -0.4044 -0.8429  2.2518
  177SLPC   C2320157   2.624   2.054  10.222  0.2283  0.0201 -0.0598
  177SLPC   H3R20158   2.518   2.083  10.241  0.2704 -0.2595  0.6334
  177SLPC   H3S20159   2.644   1.962  10.282 -1.9694 -0.8043 -0.4726
  177SLPC   C2420160   2.652   2.019  10.075 -0.1919  0.2184  0.1620
  177SLPC   H4R20161   2.635   1.911  10.053  0.3411  0.4887 -1.7431
  177SLPC   H4S20162   2.763   2.017  10.070 -0.1334  1.4261  0.6239
  177SLPC   C2520163   2.586   2.101   9.967  0.3842  0.5783  0.0485
  177SLPC   H5R20164   2.660   2.173   9.926  1.6230 -0.9217 -0.4358
  177SLPC   H5S20165   2.496   2.155  10.004 -0.4138 -0.6267 -0.0855
  177SLPC   C2620166   2.550   2.022   9.846  0.7315 -0.1466 -0.0188
  177SLPC   H6R20167   2.485   1.938   9.879 -0.6843  1.7424  2.2575
  177SLPC   H6S20168   2.641   1.984   9.795 -0.1348 -2.7596  0.2512
  177SLPC   C2720169   2.473   2.110   9.748 -0.2662 -0.3870 -0.4401
  177SLPC   H7R20170   2.542   2.195   9.728 -0.5620  0.2645  1.2042
  177SLPC   H7S20171   2.379   2.150   9.790 -1.1628 -0.1498 -2.5752
  177SLPC   C2820172   2.438   2.036   9.617  0.2702 -0.0889  0.4304
  177SLPC   H8R20173   2.364   1.957   9.641  0.9470 -1.0406 -0.4974
  177SLPC   H8S20174   2.528   1.979   9.584  1.5583  1.9830  0.1859
  177SLPC   C2920175   2.375   2.127   9.510  0.3727 -0.0815 -0.4940
  177SLPC   H9R20176   2.266   2.138   9.508  0.0653 -2.5475 -3.3008
  177SLPC  C21020177   2.445   2.196   9.416  0.0969  0.2726 -0.4045
  177SLPC  H10R20178   2.386   2.267   9.356  0.0708  0.4370 -0.1886
  177SLPC  C21120179   2.595   2.175   9.397 -0.0993 -0.1928  0.0982
  177SLPC  H11R20180   2.636   2.264   9.347  4.7688 -2.1266  0.1292
  177SLPC  H11S20181   2.639   2.181   9.499  0.2823 -0.8168 -0.0253
  177SLPC  C21220182   2.638   2.048   9.333 -0.2516 -0.8384  0.2071
  177SLPC  H12R20183   2.686   1.979   9.404  2.1204  1.1529  0.6827
  177SLPC  C21320184   2.621   2.011   9.204 -0.5076 -0.1811  0.4511
  177SLPC  H13R20185   2.651   1.909   9.177 -1.5889 -0.8836  1.7988
  177SLPC  C21420186   2.563   2.092   9.100 -0.3036 -0.7507 -0.6249
  177SLPC  H14R20187   2.487   2.164   9.137 -0.6199 -1.7141  0.6460
  177SLPC  H14S20188   2.508   2.036   9.021 -4.5059  1.1757  0.6467
  177SLPC  C21520189   2.665   2.160   9.005  0.2448 -0.3201  0.5256
  177SLPC  H15R20190   2.756   2.101   8.980 -0.1772 -0.7057 -0.1394
  177SLPC  H15S20191   2.708   2.254   9.047  1.2164  0.4829 -2.0562
  177SLPC  C21620192   2.601   2.190   8.869 -0.3673  0.2168  0.4446
  177SLPC  H16R20193   2.503   2.235   8.896 -2.5734 -4.4021  1.1019
  177SLPC  H16S20194   2.581   2.098   8.810  0.9868 -0.1140  0.4580
  177SLPC  C21720195   2.687   2.284   8.781 -0.6527 -0.0146  0.2198
  177SLPC  H17R20196   2.724   2.370   8.842 -0.5103 -0.8001  1.2794
  177SLPC  H17S20197   2.608   2.320   8.713 -0.7083  0.2165  0.4010
  177SLPC  C21820198   2.795   2.213   8.700  0.3305  0.6197 -0.5249
  177SLPC  H18R20199   2.874   2.286   8.674  0.6407  0.5322  0.1523
  177SLPC  H18S20200   2.752   2.159   8.612 -1.4995  0.0861  0.6322
  177SLPC  H18T20201   2.850   2.143   8.767 -2.7847 -0.4306  1.1280
  177SLPC   C3320202   3.164   2.600   9.926  0.3676 -0.6626  0.4873
  177SLPC   H3X20203   3.204   2.497   9.938  1.1570 -0.3666  0.4474
  177SLPC   H3Y20204   3.236   2.670   9.973  0.8998 -0.1162 -1.0778
  177SLPC   C3420205   3.159   2.633   9.776  0.2806  0.3381 -0.2460
  177SLPC   H4X20206   3.118   2.734   9.752 -2.4123 -0.2474  1.4475
  177SLPC   H4Y20207   3.092   2.561   9.723 -0.0392  0.5153 -0.0859
  177SLPC   C3520208   3.297   2.629   9.701 -0.9616 -0.0506 -0.4357
  177SLPC   H5X20209   3.341   2.527   9.709 -3.6558 -1.5380 -2.7547
  177SLPC   H5Y20210   3.369   2.700   9.747  1.0071 -2.7256  0.9140
  177SLPC   C3620211   3.279   2.650   9.553  0.0640 -0.0451  0.5961
  177SLPC   H6X20212   3.379   2.626   9.511  1.8882 -0.7821  4.8196
  177SLPC   H6Y20213   3.274   2.761   9.550  1.5062  0.1041  2.0460
  177SLPC   C3720214   3.157   2.589   9.478 -0.2994  0.0543 -0.7918
  177SLPC   H7X20215   3.064   2.637   9.516  1.0252 -0.1704  3.1630
  177SLPC   H7Y20216   3.156   2.484   9.515 -0.3910  0.0219 -0.8861
  177SLPC   C3820217   3.174   2.589   9.330  0.2929 -0.3739  0.0742
  177SLPC   H8X20218   3.094   2.533   9.277  2.2571 -1.1007 -2.3238
  177SLPC   H8Y20219   3.276   2.557   9.298  0.3744 -0.5611  0.5043
  177SLPC   C3920220   3.155   2.734   9.271  0.2346 -0.0488  0.3092
  177SLPC   H9X20221   3.234   2.799   9.315  0.7677  1.0213 -2.0515
  177SLPC   H9Y20222   3.054   2.770   9.299  0.3907  1.1328 -0.5528
  177SLPC  C31020223   3.179   2.753   9.117  0.3349 -0.7233 -0.3389
  177SLPC  H10X20224   3.104   2.688   9.066  2.1509 -0.8386 -3.0997
  177SLPC  H10Y20225   3.283   2.723   9.092  1.2508  1.4317  0.6103
  177SLPC  C31120226   3.183   2.902   9.070 -0.2339  0.2490 -0.1238
  177SLPC  H11X20227   3.263   2.949   9.130 -0.4571  1.2245 -0.5712
  177SLPC  H11Y20228   3.091   2.957   9.100  0.4574  1.5604 -0.3433
  177SLPC  C31220229   3.222   2.920   8.926 -0.0318 -0.1360  0.0940
  177SLPC  H12X20230   3.135   2.883   8.867 -0.5715  2.0315 -0.5715
  177SLPC  H12Y20231   3.311   2.863   8.891  0.5848  1.1971 -0.6174
  177SLPC  C31320232   3.249   3.070   8.891  0.6023 -0.0467  0.1846
  177SLPC  H13X20233   3.346   3.089   8.943  1.6641 -0.2318 -1.6480
  177SLPC  H13Y20234   3.165   3.125   8.940  1.2576  0.4061  0.8193
  177SLPC  C31420235   3.264   3.102   8.741 -0.4846  0.7317 -0.2950
  177SLPC  H14X20236   3.327   3.016   8.710 -0.7857  1.1026 -2.0571
  177SLPC  H14Y20237   3.312   3.201   8.723  0.0487  0.4986 -0.1523
  177SLPC  C31520238   3.145   3.105   8.651 -0.3816 -0.3540  0.0205
  177SLPC  H15X20239   3.066   3.161   8.705 -1.1853 -0.5334 -0.9300
  177SLPC  H15Y20240   3.120   2.996   8.650 -2.3124  0.0214  1.3440
  177SLPC  C31620241   3.174   3.175   8.517  1.0167  0.7867 -0.4068
  177SLPC  H16X20242   3.251   3.117   8.463  1.5771 -0.8956  2.0528
  177SLPC  H16Y20243   3.211   3.279   8.529  1.6554  0.5046  0.1321
  177SLPC  C31720244   3.041   3.199   8.437 -0.4257 -0.0281 -0.0032
  177SLPC  H17X20245   2.965   3.251   8.500 -0.4619 -0.8218  0.6380
  177SLPC  H17Y20246   3.000   3.099   8.412 -0.7229  0.0635  0.1087
  177SLPC  C31820247   3.079   3.287   8.318 -0.0799 -0.3020  0.4835
  177SLPC  H18X20248   2.999   3.305   8.243  0.8010 -0.9464 -0.6569
  177SLPC  H18Y20249   3.154   3.237   8.253 -2.2807 -0.9776 -1.6771
  177SLPC  H18Z20250   3.126   3.382   8.351 -1.7240  0.4556  0.7408
  178SLPC     N20251   4.630   5.458  11.087  0.0473 -0.4147 -0.1773
  178SLPC   C1320252   4.769   5.512  11.113 -0.0585 -0.3810 -0.2001
  178SLPC  H13A20253   4.775   5.526  11.219 -3.2364 -0.1105  0.0377
  178SLPC  H13B20254   4.850   5.444  11.088  1.9242  1.3209  1.2382
  178SLPC  H13C20255   4.799   5.603  11.062  1.7895 -1.4813 -1.2208
  178SLPC   C1420256   4.535   5.552  11.149  0.3361  0.4253 -0.0906
  178SLPC  H14A20257   4.526   5.649  11.101 -2.3351  0.2384 -0.1343
  178SLPC  H14B20258   4.434   5.515  11.144  0.0582  1.1381  0.1248
  178SLPC  H14C20259   4.548   5.575  11.254 -0.1488  1.6795 -0.2841
  178SLPC   C1520260   4.618   5.326  11.149  0.7573  0.1996 -0.0326
  178SLPC  H15A20261   4.515   5.296  11.145  0.8095  0.1148 -1.7931
  178SLPC  H15B20262   4.680   5.251  11.102  3.0848  0.1694  2.7986
  178SLPC  H15C20263   4.659   5.327  11.249  0.3078 -0.1564  0.1570
  178SLPC   C1220264   4.611   5.453  10.939  0.4987  0.2496  0.4738
  178SLPC  H12A20265   4.650   5.544  10.896  1.0790 -0.6848 -1.0743
  178SLPC  H12B20266   4.504   5.456  10.920  0.6713  2.2545 -0.4757
  178SLPC   C1120267   4.657   5.331  10.857  0.4488 -1.2957  0.1111
  178SLPC  H11A20268   4.764   5.310  10.879  0.5376 -1.4341 -0.4264
  178SLPC  H11B20269   4.657   5.357  10.749  2.1251 -0.6429  0.2392
  178SLPC     P20270   4.427   5.222  10.844  0.4002  0.0184  0.3783
  178SLPC   O1320271   4.364   5.096  10.886  0.0577  0.3314  0.0296
  178SLPC   O1420272   4.359   5.344  10.900 -0.1827  0.7151 -0.6701
  178SLPC   O1220273   4.581   5.218  10.883 -0.4730  0.1856  0.4560
  178SLPC   O1120274   4.445   5.232  10.683  0.6012 -0.0092 -0.3909
  178SLPC    C120275   4.507   5.125  10.611 -0.4723  0.7652 -0.7357
  178SLPC    HA20276   4.615   5.146  10.597 -0.4460  0.1333 -1.5359
  178SLPC    HB20277   4.498   5.026  10.659  0.1609  0.1997 -1.7549
  178SLPC    C220278   4.440   5.106  10.468 -0.0671  0.7011  0.0069
  178SLPC    HS20279   4.485   5.016  10.421  0.3197  0.9057 -0.0165
  178SLPC   O2120280   4.457   5.222  10.380  0.0173 -0.5258  0.0407
  178SLPC   C2120281   4.578   5.234  10.337  0.0384 -0.9045  0.8103
  178SLPC   O2220282   4.666   5.154  10.362  0.5091  0.7325  0.1313
  178SLPC   C2220283   4.595   5.360  10.246  0.7629  0.5501  0.2722
  178SLPC   H2R20284   4.499   5.374  10.192  0.9033 -1.3318 -0.5405
  178SLPC   H2S20285   4.601   5.452  10.308 -0.2670  1.8732 -1.5054
  178SLPC    C320286   4.287   5.086  10.486  1.1587 -0.0912  0.2119
  178SLPC    HX20287   4.251   5.175  10.542 -0.5817  0.1936 -1.2788
  178SLPC    HY20288   4.254   5.000  10.547  1.6929  0.4992  1.3561
  178SLPC   O3120289   4.220   5.086  10.357 -0.4187  0.7539 -0.0568
  178SLPC   C3120290   4.157   5.193  10.319  0.0777  0.5251 -0.0380
  178SLPC   O3220291   4.149   5.295  10.379 -0.5837  0.7469  0.4257
  178SLPC   C3220292   4.104   5.176  10.179 -0.4083  0.0112 -0.4934
  178SLPC   H2X20293   4.022   5.251  10.175  0.6412  1.1218 -2.2911
  178SLPC   H2Y20294   4.059   5.076  10.165 -2.3077  0.5860  1.1017
  178SLPC   C2320295   4.721   5.359  10.157 -0.0773 -0.4113 -0.3742
  178SLPC   H3R20296   4.721   5.278  10.082  0.5658  0.8416 -1.7936
  178SLPC   H3S20297   4.815   5.357  10.217  1.9104 -0.0992 -3.2260
  178SLPC   C2420298   4.736   5.481  10.066 -0.3082 -0.0322  0.3974
  178SLPC   H4R20299   4.715   5.571  10.128 -2.2279  0.5085 -0.9490
  178SLPC   H4S20300   4.666   5.485   9.980  2.0608 -1.3599 -1.7257
  178SLPC   C2520301   4.875   5.493  10.003  0.2709 -0.5127  0.1040
  178SLPC   H5R20302   4.955   5.533  10.070 -0.1497  3.1555 -1.3484
  178SLPC   H5S20303   4.868   5.572   9.926  1.5768  0.6334  1.0916
  178SLPC   C2620304   4.924   5.369   9.925 -0.3443  0.1879 -0.2002
  178SLPC   H6R20305   4.844   5.323   9.864  0.3507 -2.5911  0.8319
  178SLPC   H6S20306   4.958   5.301  10.006 -0.9595 -0.4773 -0.4987
  178SLPC   C2720307   5.054   5.401   9.849  0.2784 -0.1781 -0.0031
  178SLPC   H7R20308   5.112   5.459   9.924 -1.3667  2.1993 -0.4490
  178SLPC   H7S20309   5.024   5.476   9.772 -1.1839 -1.6615 -0.9311
  178SLPC   C2820310   5.126   5.275   9.779 -0.4766 -0.6427 -0.3234
  178SLPC   H8R20311   5.056   5.220   9.712 -0.4641 -0.5069 -0.4486
  178SLPC   H8S20312   5.134   5.202   9.862  2.0387  0.6026  0.6338
  178SLPC   C2920313   5.271   5.297   9.733 -0.2425  0.7418 -1.0188
  178SLPC   H9R20314   5.342   5.310   9.816  0.0932  1.0620 -1.3525
  178SLPC  C21020315   5.322   5.315   9.616  0.0541  0.3779  0.2483
  178SLPC  H10R20316   5.429   5.336   9.606  0.6041 -0.9359  2.6617
  178SLPC  C21120317   5.243   5.322   9.488  0.1444 -0.0450 -0.5734
  178SLPC  H11R20318   5.150   5.263   9.506 -1.1420  2.7443  3.1937
  178SLPC  H11S20319   5.298   5.286   9.398  1.7629 -3.3802  1.5199
  178SLPC  C21220320   5.204   5.465   9.478  0.2329 -0.2506 -0.3710
  178SLPC  H12R20321   5.161   5.507   9.570  1.0502  2.0451 -0.9737
  178SLPC  C21320322   5.189   5.537   9.368 -0.1274  0.4645 -0.4093
  178SLPC  H13R20323   5.159   5.641   9.385  0.4252  0.4899  0.4883
  178SLPC  C21420324   5.209   5.488   9.226 -0.2252  0.2238  0.0479
  178SLPC  H14R20325   5.247   5.384   9.220 -0.0416  0.3240 -0.6377
  178SLPC  H14S20326   5.287   5.551   9.177  0.1437  0.2933  0.7143
  178SLPC  C21520327   5.080   5.500   9.150 -0.3268 -0.8181 -1.0633
  178SLPC  H15R20328   5.066   5.604   9.113 -0.3190  0.0209  1.1462
  178SLPC  H15S20329   4.995   5.461   9.208 -1.6963  2.5935 -0.5478
  178SLPC  C21620330   5.090   5.414   9.024 -0.4245  0.3855 -0.2106
  178SLPC  H16R20331   5.106   5.308   9.053  0.7235  0.4768 -0.4728
  178SLPC  H16S20332   5.179   5.445   8.965 -0.9440  2.2109 -0.0962
  178SLPC  C21720333   4.967   5.416   8.932 -0.2117  0.1734  0.1238
  178SLPC  H17R20334   4.945   5.523   8.914 -2.1715 -0.5160 -2.2503
  178SLPC  H17S20335   4.873   5.370   8.971  0.1997 -0.5892  0.2177
  178SLPC  C21820336   5.003   5.346   8.797 -0.3581 -0.2152 -0.8022
  178SLPC  H18R20337   5.097   5.396   8.765  0.0521  0.5559  1.4279
  178SLPC  H18S20338   4.921   5.360   8.724 -1.8346 -4.2055 -0.1411
  178SLPC  H18T20339   5.028   5.239   8.816 -1.7351 -0.0910  2.3190
  178SLPC   C3320340   4.212   5.196  10.070 -0.3975 -0.6257  0.4716
  178SLPC   H3X20341   4.291   5.118  10.062 -1.7343 -2.2394  2.1410
  178SLPC   H3Y20342   4.260   5.293  10.096 -0.2090 -1.1146  2.0551
  178SLPC   C3420343   4.150   5.236   9.926  0.6422  0.9142 -0.4591
  178SLPC   H4X20344   4.052   5.288   9.935  0.6788  0.7819  1.0301
  178SLPC   H4Y20345   4.132   5.141   9.872 -0.4979  1.3217 -0.8331
  178SLPC   C3520346   4.241   5.320   9.833  0.1089  0.2657  1.3365
  178SLPC   H5X20347   4.278   5.416   9.875  2.0223  0.4032 -0.5118
  178SLPC   H5Y20348   4.168   5.342   9.752 -0.8155  0.3193  2.1603
  178SLPC   C3620349   4.357   5.239   9.769  0.1769 -0.4745  0.4490
  178SLPC   H6X20350   4.322   5.144   9.723  0.9173 -0.0498 -1.0571
  178SLPC   H6Y20351   4.428   5.212   9.850  0.0310 -1.1983  0.3481
  178SLPC   C3720352   4.436   5.319   9.661 -0.1617  0.2748 -0.6802
  178SLPC   H7X20353   4.365   5.337   9.577 -0.5281 -1.4460 -0.7885
  178SLPC   H7Y20354   4.508   5.244   9.621 -1.1277 -0.1184 -1.7460
  178SLPC   C3820355   4.518   5.436   9.705  0.5824  0.2787 -0.8217
  178SLPC   H8X20356   4.577   5.388   9.786 -0.7388 -3.7643 -2.0007
  178SLPC   H8Y20357   4.452   5.517   9.745  0.7006 -0.3161  0.6237
  178SLPC   C3920358   4.608   5.508   9.598 -0.5359  0.0927 -0.2826
  178SLPC   H9X20359   4.544   5.535   9.511 -0.2094 -0.7955 -0.8175
  178SLPC   H9Y20360   4.665   5.421   9.559  0.9231 -0.6083  3.0414
  178SLPC  C31020361   4.695   5.626   9.652  0.4816  0.6706  0.5324
  178SLPC  H10X20362   4.794   5.611   9.700  1.1370  2.2193 -0.2361
  178SLPC  H10Y20363   4.628   5.682   9.721  0.4644  0.4830  0.6680
  178SLPC  C31120364   4.724   5.724   9.538  0.0819  0.5478 -0.2551
  178SLPC  H11X20365   4.729   5.823   9.587  0.1674 -0.6184  2.2466
  178SLPC  H11Y20366   4.647   5.718   9.458 -0.2341  0.7677  0.0290
  178SLPC  C31220367   4.865   5.696   9.472  0.3578  0.8663 -0.4366
  178SLPC  H12X20368   4.855   5.614   9.398  1.3160  1.2667 -1.0271
  178SLPC  H12Y20369   4.928   5.659   9.556  1.4909  2.0352 -0.7262
  178SLPC  C31320370   4.932   5.822   9.422  0.7109 -0.2041 -0.2447
  178SLPC  H13X20371   5.040   5.807   9.446  0.5578 -2.9780 -0.9639
  178SLPC  H13Y20372   4.886   5.915   9.461  1.3256  0.1531 -0.3588
  178SLPC  C31420373   4.908   5.832   9.267  0.7915 -0.6745 -0.3115
  178SLPC  H14X20374   4.801   5.818   9.244  1.5623 -2.4012 -3.4064
  178SLPC  H14Y20375   4.961   5.741   9.231  0.5738 -0.5529 -0.9569
  178SLPC  C31520376   4.962   5.960   9.188 -0.3161 -0.0747 -0.0871
  178SLPC  H15X20377   4.909   6.051   9.222 -0.0043  1.0301 -2.3424
  178SLPC  H15Y20378   5.069   5.974   9.213  0.3576 -1.4450 -1.9176
  178SLPC  C31620379   4.925   5.961   9.040 -0.0941 -0.1035  0.6800
  178SLPC  H16X20380   4.948   6.066   9.010  1.7814 -0.8442 -0.6095
  178SLPC  H16Y20381   4.824   5.927   9.010 -0.6968  1.1527  1.2145
  178SLPC  C31720382   5.027   5.871   8.960  0.0684 -0.6412 -0.5303
  178SLPC  H17X20383   5.011   5.767   8.995  0.4903 -0.9525 -1.2501
  178SLPC  H17Y20384   5.127   5.906   8.991 -0.5163 -1.0640  2.0764
  178SLPC  C31820385   5.003   5.883   8.815 -0.4605 -0.2262 -0.4472
  178SLPC  H18X20386   5.073   5.811   8.768 -0.9666 -0.2725 -1.1429
  178SLPC  H18Y20387   5.022   5.985   8.773 -0.0636 -0.2997 -0.4430
  178SLPC  H18Z20388   4.902   5.849   8.783  0.4835 -2.9064 -0.8144
  179SLPC     N20389   4.958   1.544  10.385  0.5819  0.1398 -0.6803
  179SLPC   C1320390   5.033   1.489  10.505  0.2510 -0.3925  0.0908
  179SLPC  H13A20391   4.963   1.482  10.587  1.2771 -0.5164  0.9810
  179SLPC  H13B20392   5.078   1.394  10.481 -0.8694 -0.6440 -1.1440
  179SLPC  H13C20393   5.106   1.565  10.528 -2.3211  3.3387 -2.7341
  179SLPC   C1420394   4.906   1.685  10.420 -0.2567  0.7300  0.2729
  179SLPC  H14A20395   4.834   1.726  10.351 -1.1286 -1.4691 -0.2097
  179SLPC  H14B20396   4.868   1.689  10.520 -1.0889  0.6746 -0.0356
  179SLPC  H14C20397   4.994   1.747  10.428  0.4427 -0.3323  1.0594
  179SLPC   C1520398   4.839   1.459  10.363  0.3848 -0.0365 -0.1230
  179SLPC  H15A20399   4.862   1.362  10.322 -0.9902 -2.0616  3.4440
  179SLPC  H15B20400   4.785   1.445  10.456  2.4832 -0.7578  1.0450
  179SLPC  H15C20401   4.773   1.504  10.290  2.4136  0.2726 -1.8649
  179SLPC   C1220402   5.042   1.546  10.260 -0.0660 -0.8457 -0.2471
  179SLPC  H12A20403   4.977   1.550  10.174 -0.6733  1.6852  0.2547
  179SLPC  H12B20404   5.093   1.451  10.251  1.4664 -0.0203 -0.7877
  179SLPC   C1120405   5.147   1.656  10.238 -0.3872  0.3202  0.7637
  179SLPC  H11A20406   5.105   1.756  10.210  0.6219 -0.2291 -3.3310
  179SLPC  H11B20407   5.187   1.628  10.138  0.4402  2.4871  0.4331
  179SLPC     P20408   5.375   1.565  10.330  0.0486 -0.3274  0.0675
  179SLPC   O1320409   5.445   1.602  10.453 -0.2535  0.6370 -0.2382
  179SLPC   O1420410   5.333   1.423  10.317 -0.3529 -0.7304 -0.2951
  179SLPC   O1220411   5.247   1.663  10.340 -0.0098  0.1745 -0.0685
  179SLPC   O1120412   5.448   1.624  10.208  0.1810  0.3429  0.1826
  179SLPC    C120413   5.518   1.748  10.209 -0.0038  0.2523 -0.5238
  179SLPC    HA20414   5.448   1.828  10.241 -3.0311 -1.8261 -1.4942
  179SLPC    HB20415   5.602   1.743  10.281 -1.3965  1.6717  1.3087
  179SLPC    C220416   5.591   1.785  10.079 -0.3076  0.4533 -0.1669
  179SLPC    HS20417   5.506   1.783  10.007  1.3024  2.7050 -2.2940
  179SLPC   O2120418   5.692   1.687  10.040  0.5924  0.3153 -0.1343
  179SLPC   C2120419   5.664   1.606   9.941  0.6198 -0.3340  0.7076
  179SLPC   O2220420   5.571   1.603   9.864 -0.7421 -0.6288 -0.4654
  179SLPC   C2220421   5.787   1.521   9.916 -0.0861 -0.6551 -0.0126
  179SLPC   H2R20422   5.882   1.578   9.919 -0.0465 -0.5988 -1.5824
  179SLPC   H2S20423   5.790   1.451  10.002  0.4950 -0.4142  0.1636
  179SLPC    C320424   5.650   1.931  10.081  0.5915  0.3544  0.3533
  179SLPC    HX20425   5.736   1.939  10.151 -1.5148 -3.9245  3.9085
  179SLPC    HY20426   5.576   1.997  10.130  0.4662  0.1410  0.4534
  179SLPC   O3120427   5.680   1.988   9.950 -0.2147  0.0975 -0.5609
  179SLPC   C3120428   5.804   1.952   9.907 -0.1901  0.2630 -0.2204
  179SLPC   O3220429   5.890   1.890   9.965  0.1132 -0.6309 -0.0695
  179SLPC   C3220430   5.823   2.010   9.769  0.1028  0.5305 -0.2600
  179SLPC   H2X20431   5.888   2.099   9.782  1.5629 -0.6460  0.9330
  179SLPC   H2Y20432   5.721   2.032   9.731  0.3417 -1.2874 -2.1091
  179SLPC   C2320433   5.772   1.430   9.789 -0.4456  0.6190  0.2925
  179SLPC   H3R20434   5.665   1.417   9.762  0.1556 -0.2507 -1.8961
  179SLPC   H3S20435   5.809   1.328   9.814 -4.7895 -1.0307  0.7446
  179SLPC   C2420436   5.834   1.492   9.668 -0.8431 -0.2849 -0.4686
  179SLPC   H4R20437   5.941   1.516   9.684 -0.8449  0.2349 -1.1748
  179SLPC   H4S20438   5.797   1.596   9.658 -2.0438 -0.5032  1.2067
  179SLPC   C2520439   5.822   1.408   9.545  1.0263  0.1598 -0.8555
  179SLPC   H5R20440   5.724   1.418   9.493 -0.4319 -2.5774  1.0711
  179SLPC   H5S20441   5.828   1.302   9.580 -0.9558  0.2384 -0.1308
  179SLPC   C2620442   5.935   1.412   9.437  0.1907  0.4462  0.6092
  179SLPC   H6R20443   6.036   1.391   9.478  1.1677  1.8067 -0.9863
  179SLPC   H6S20444   5.946   1.518   9.406  1.6989  0.6595  1.7444
  179SLPC   C2720445   5.912   1.325   9.312  1.1082 -0.1949  0.0408
  179SLPC   H7R20446   5.821   1.364   9.262  1.5502  1.1383  0.2356
  179SLPC   H7S20447   5.886   1.223   9.346 -0.0239 -0.2523 -0.9450
  179SLPC   C2820448   6.039   1.318   9.215  0.6162  0.2855  0.1890
  179SLPC   H8R20449   6.035   1.236   9.141  1.4573  1.4521 -1.2007
  179SLPC   H8S20450   6.131   1.298   9.274 -0.4352  0.6555  2.0465
  179SLPC   C2920451   6.031   1.443   9.132  0.4939  0.9246 -0.1537
  179SLPC   H9R20452   6.031   1.540   9.183  0.6389  1.2480 -0.7633
  179SLPC  C21020453   6.018   1.450   8.997 -0.6567 -0.2588  0.0035
  179SLPC  H10R20454   6.002   1.550   8.953  1.0905  0.4132  0.8034
  179SLPC  C21120455   6.026   1.337   8.901  0.0529 -0.6514 -0.1380
  179SLPC  H11R20456   6.071   1.245   8.944  0.2343 -0.4980  0.0027
  179SLPC  H11S20457   6.090   1.360   8.813 -0.5414 -1.4084 -0.7730
  179SLPC  C21220458   5.885   1.302   8.856  0.4674 -0.3286 -0.6264
  179SLPC  H12R20459   5.815   1.307   8.941  1.2840 -0.2154  0.0516
  179SLPC  C21320460   5.847   1.269   8.732 -0.8305  0.0568 -0.3725
  179SLPC  H13R20461   5.747   1.234   8.703 -1.2404  0.2720  0.7405
  179SLPC  C21420462   5.953   1.271   8.622 -0.0036  1.2331 -0.7179
  179SLPC  H14R20463   6.007   1.176   8.643  0.1873  1.8302  1.7692
  179SLPC  H14S20464   6.021   1.358   8.622 -0.0199  1.2899  1.2995
  179SLPC  C21520465   5.882   1.244   8.490 -0.0802 -0.0391  0.5223
  179SLPC  H15R20466   5.850   1.138   8.493  1.7194 -0.6207  0.4273
  179SLPC  H15S20467   5.965   1.248   8.416  0.9090  0.8740  1.6222
  179SLPC  C21620468   5.784   1.352   8.446 -0.0428 -0.1647  0.2571
  179SLPC  H16R20469   5.821   1.456   8.464 -0.0347 -0.1699  0.2748
  179SLPC  H16S20470   5.683   1.363   8.491 -1.7453  2.1302 -3.5302
  179SLPC  C21720471   5.742   1.315   8.303  0.0802 -0.5632 -0.2873
  179SLPC  H17R20472   5.701   1.212   8.306  0.4850 -0.7132  2.0595
  179SLPC  H17S20473   5.823   1.328   8.229 -0.3306  2.4858 -0.3321
  179SLPC  C21820474   5.621   1.393   8.256 -0.0840 -0.0281 -0.3566
  179SLPC  H18R20475   5.540   1.375   8.329 -2.0735  0.4733 -2.3575
  179SLPC  H18S20476   5.582   1.362   8.157 -0.5292  0.2411 -0.2635
  179SLPC  H18T20477   5.633   1.502   8.269 -0.8813  0.0249 -0.0238
  179SLPC   C3320478   5.894   1.910   9.669 -0.0167 -0.4914  0.2631
  179SLPC   H3X20479   5.862   1.804   9.679 -1.1220  0.0367  5.1993
  179SLPC   H3Y20480   5.993   1.898   9.717  0.2259 -0.2731 -0.1821
  179SLPC   C3420481   5.908   1.962   9.523  0.1719  0.6064 -0.2891
  179SLPC   H4X20482   5.930   2.070   9.540  2.9962  0.2894 -1.3870
  179SLPC   H4Y20483   5.807   1.943   9.482 -0.3983  0.5377  1.0850
  179SLPC   C3520484   6.015   1.887   9.441 -0.0588 -0.8950  0.6631
  179SLPC   H5X20485   6.031   1.778   9.455  0.5099 -0.7016  1.6175
  179SLPC   H5Y20486   6.113   1.931   9.470  0.0695 -1.2626  0.8046
  179SLPC   C3620487   5.976   1.903   9.296 -0.4320  0.8899  0.5829
  179SLPC   H6X20488   5.966   2.012   9.278 -0.1391  0.6570 -1.1260
  179SLPC   H6Y20489   5.872   1.868   9.283  0.1439  0.0877 -2.8016
  179SLPC   C3720490   6.070   1.844   9.190 -1.0599  0.5663 -0.2427
  179SLPC   H7X20491   6.104   1.741   9.215 -1.2086  0.5962  0.0843
  179SLPC   H7Y20492   6.168   1.898   9.189 -1.6779  1.7239  0.2176
  179SLPC   C3820493   6.008   1.849   9.048  1.0903 -0.6865  0.6188
  179SLPC   H8X20494   5.968   1.953   9.045 -1.6150 -1.6907 -0.4627
  179SLPC   H8Y20495   5.921   1.784   9.029  1.9168 -0.6300 -4.8841
  179SLPC   C3920496   6.108   1.822   8.936 -0.5580 -0.4539 -0.2285
  179SLPC   H9X20497   6.162   1.728   8.962 -1.1965 -0.9622 -0.7306
  179SLPC   H9Y20498   6.189   1.898   8.949  1.3438 -2.5082  0.6064
  179SLPC  C31020499   6.036   1.805   8.793 -0.7049  0.0580 -0.4938
  179SLPC  H10X20500   6.019   1.906   8.749  0.3600  0.1062 -0.8276
  179SLPC  H10Y20501   5.936   1.758   8.801 -1.1622  0.9041 -1.0000
  179SLPC  C31120502   6.125   1.723   8.696  0.0618  0.0944  0.2218
  179SLPC  H11X20503   6.144   1.625   8.745 -0.1413 -0.9005 -1.6204
  179SLPC  H11Y20504   6.218   1.785   8.700  0.9678 -1.1969 -0.1085
  179SLPC  C31220505   6.075   1.701   8.554 -0.9329  0.0526  0.0369
  179SLPC  H12X20506   6.054   1.801   8.509  1.0055  0.3896 -0.2355
  179SLPC  H12Y20507   5.980   1.645   8.553 -0.5341 -0.7790  2.4326
  179SLPC  C31320508   6.174   1.628   8.462 -0.4075 -0.7022 -0.5480
  179SLPC  H13X20509   6.211   1.541   8.520 -3.0096 -0.4080  1.8036
  179SLPC  H13Y20510   6.264   1.682   8.427 -0.2567 -1.3030 -1.0978
  179SLPC  C31420511   6.105   1.578   8.331 -0.8490  0.0425  0.0028
  179SLPC  H14X20512   6.075   1.662   8.264  0.4823 -0.7336 -1.6540
  179SLPC  H14Y20513   6.016   1.518   8.357 -0.3427 -0.5698  0.3510
  179SLPC  C31520514   6.190   1.464   8.259 -0.3337 -0.4129  0.1254
  179SLPC  H15X20515   6.195   1.387   8.339  1.2472  0.3770  0.8376
  179SLPC  H15Y20516   6.293   1.491   8.227 -1.4436  0.6061 -2.9088
  179SLPC  C31620517   6.123   1.413   8.135 -1.1645  0.3764  0.5276
  179SLPC  H16X20518   6.126   1.499   8.064 -1.5818  0.6120  0.7906
  179SLPC  H16Y20519   6.018   1.378   8.145 -1.4699  0.4011 -1.9053
  179SLPC  C31720520   6.200   1.297   8.071  1.0201 -0.0890 -1.2445
  179SLPC  H17X20521   6.175   1.204   8.126  1.1897  2.1321  3.0428
  179SLPC  H17Y20522   6.310   1.316   8.071  1.0481 -0.0379  0.6155
  179SLPC  C31820523   6.164   1.276   7.928  0.1778 -0.5314  0.0897
  179SLPC  H18X20524   6.191   1.360   7.861  0.7357 -0.0741  0.8638
  179SLPC  H18Y20525   6.057   1.249   7.921  0.1198 -0.7249  1.4534
  179SLPC  H18Z20526   6.211   1.185   7.885 -0.2875 -0.1846 -1.1771
  180SLPC     N20527   6.351   6.206  10.659 -0.0262 -0.3494 -0.7604
  180SLPC   C1320528   6.369   6.183  10.512 -0.1550 -0.4805  0.5130
  180SLPC  H13A20529   6.316   6.258  10.455  0.6264 -0.8615 -0.7740
  180SLPC  H13B20530   6.476   6.180  10.497  0.0249  0.9506  1.3651
  180SLPC  H13C20531   6.345   6.081  10.483 -1.3803  0.2024 -1.0454
  180SLPC   C1420532   6.198   6.195  10.690  0.2236 -0.2255  0.3103
  180SLPC  H14A20533   6.144   6.277  10.645 -2.0799 -1.3417  0.9099
  180SLPC  H14B20534   6.150   6.105  10.655  1.1219 -2.5761  4.5119
  180SLPC  H14C20535   6.183   6.194  10.796 -2.3709  0.0640  0.0023
  180SLPC   C1520536   6.378   6.350  10.689 -0.5733 -0.1913 -0.4778
  180SLPC  H15A20537   6.313   6.404  10.622  1.4326  0.4280 -2.0191
  180SLPC  H15B20538   6.361   6.372  10.794  0.2419  0.2777 -0.4354
  180SLPC  H15C20539   6.481   6.376  10.670 -0.0575 -0.7369  1.3382
  180SLPC   C1220540   6.430   6.111  10.747 -0.2024  0.0776  0.1155
  180SLPC  H12A20541   6.393   6.010  10.738  0.9448 -0.2772 -0.8424
  180SLPC  H12B20542   6.426   6.141  10.851 -2.0808  1.6153 -0.3328
  180SLPC   C1120543   6.579   6.087  10.707 -0.5218  0.4338  0.7431
  180SLPC  H11A20544   6.582   6.056  10.600  0.8137  1.0272  0.5844
  180SLPC  H11B20545   6.619   5.997  10.759 -1.5245 -1.0963 -1.0119
  180SLPC     P20546   6.805   6.203  10.670 -0.4022  0.2954  0.3054
  180SLPC   O1320547   6.844   6.346  10.651 -0.5962 -0.2812 -0.2293
  180SLPC   O1420548   6.894   6.116  10.748  0.2344 -0.8858  0.2057
  180SLPC   O1220549   6.663   6.202  10.736 -0.2716 -0.3017  0.7206
  180SLPC   O1120550   6.803   6.133  10.525  0.0780 -0.1048 -0.5424
  180SLPC    C120551   6.924   6.084  10.471 -0.7016 -0.6764 -0.8127
  180SLPC    HA20552   6.998   6.060  10.551 -0.3041 -1.2029 -1.3273
  180SLPC    HB20553   6.911   5.990  10.414  0.1755 -0.6449 -1.0820
  180SLPC    C220554   6.990   6.192  10.380  0.4938  0.4230  0.2125
  180SLPC    HS20555   6.976   6.290  10.430 -1.7084 -0.5178  1.5723
  180SLPC   O2120556   6.918   6.183  10.252  0.0175 -0.0767 -0.0573
  180SLPC   C2120557   6.887   6.301  10.200  0.0380  0.6591 -0.4802
  180SLPC   O2220558   6.897   6.411  10.255  0.1310 -0.3183 -0.0282
  180SLPC   C2220559   6.850   6.293  10.050  0.3626 -0.0387  0.3043
  180SLPC   H2R20560   6.742   6.264  10.045  0.1020  0.7099  1.2440
  180SLPC   H2S20561   6.852   6.388   9.994 -2.6776  0.6128  1.1282
  180SLPC    C320562   7.138   6.151  10.361 -0.2004 -0.3538  0.2714
  180SLPC    HX20563   7.138   6.054  10.307 -0.8161  0.0540 -0.4767
  180SLPC    HY20564   7.192   6.136  10.456 -0.0869 -1.6077  0.0330
  180SLPC   O3120565   7.212   6.244  10.284 -0.2949  0.2651 -0.2851
  180SLPC   C3120566   7.263   6.344  10.346 -0.6502 -0.0968 -0.0839
  180SLPC   O3220567   7.233   6.376  10.463  0.1384  0.3078  0.5128
  180SLPC   C3220568   7.353   6.428  10.259  0.0179 -0.1931  0.3859
  180SLPC   H2X20569   7.378   6.365  10.171 -0.7923 -0.6806  0.4898
  180SLPC   H2Y20570   7.437   6.443  10.331 -0.5400  2.5048  0.5680
  180SLPC   C2320571   6.930   6.180   9.984  0.5441  0.6351 -0.0605
  180SLPC   H3R20572   6.900   6.081  10.024  2.4321  0.1007  0.1349
  180SLPC   H3S20573   7.040   6.183  10.000  0.4414  1.2341  0.6082
  180SLPC   C2420574   6.908   6.185   9.834  1.1207 -0.0256  0.5683
  180SLPC   H4R20575   6.968   6.273   9.803 -0.8787  1.4397  0.6437
  180SLPC   H4S20576   6.799   6.205   9.818  0.8536 -1.3015  0.6818
  180SLPC   C2520577   6.937   6.050   9.758  0.0636 -0.4383  0.0097
  180SLPC   H5R20578   6.866   5.973   9.792 -1.2914  0.8705  0.2298
  180SLPC   H5S20579   7.041   6.020   9.784 -0.1304  0.9156  2.6961
  180SLPC   C2620580   6.912   6.068   9.603  0.6422  0.5972  0.8949
  180SLPC   H6R20581   6.947   6.172   9.586  2.3419 -0.2338 -1.1120
  180SLPC   H6S20582   6.806   6.061   9.573  1.2373 -1.6295 -0.9550
  180SLPC   C2720583   6.992   5.972   9.514  0.0940  0.4701 -0.4925
  180SLPC   H7R20584   6.967   5.865   9.533  0.1043 -0.0734 -3.2017
  180SLPC   H7S20585   7.100   5.972   9.543  0.3927 -0.5371 -1.5334
  180SLPC   C2820586   6.989   5.996   9.363  0.1778  0.0743 -0.7039
  180SLPC   H8R20587   7.075   5.932   9.332  0.9681  0.3419  0.8326
  180SLPC   H8S20588   7.019   6.100   9.339  1.6998 -0.2361 -0.2829
  180SLPC   C2920589   6.856   5.953   9.314 -1.0177 -0.7174 -1.2219
  180SLPC   H9R20590   6.775   5.945   9.388 -0.8675  1.6479 -0.7134
  180SLPC  C21020591   6.833   5.912   9.194  0.3601 -0.0204  0.2323
  180SLPC  H10R20592   6.728   5.885   9.174  1.2910 -1.3806 -3.9181
  180SLPC  C21120593   6.935   5.906   9.079 -0.2518 -0.1601 -0.6583
  180SLPC  H11R20594   6.994   5.818   9.110 -0.4999 -0.1715 -0.2107
  180SLPC  H11S20595   7.004   5.993   9.086 -1.8630  1.0811  1.0015
  180SLPC  C21220596   6.867   5.878   8.947 -1.3803  0.9079  0.5115
  180SLPC  H12R20597   6.759   5.860   8.958 -0.7761 -2.5519  1.8565
  180SLPC  C21320598   6.925   5.858   8.828  0.1035  0.0183 -0.3268
  180SLPC  H13R20599   6.861   5.846   8.739 -0.1098  3.7746 -0.8212
  180SLPC  C21420600   7.074   5.870   8.810 -0.0244 -0.0238  0.3505
  180SLPC  H14R20601   7.107   5.776   8.761  1.4282  0.6583 -0.0221
  180SLPC  H14S20602   7.135   5.871   8.903 -0.4127 -3.8519  0.7982
  180SLPC  C21520603   7.121   5.996   8.739 -0.3345  0.0969 -0.0052
  180SLPC  H15R20604   7.091   6.088   8.793  2.8680  0.1498  1.9046
  180SLPC  H15S20605   7.063   6.015   8.646 -1.4976  1.0930  0.8903
  180SLPC  C21620606   7.272   6.018   8.715 -0.0576  0.0968  0.4667
  180SLPC  H16R20607   7.325   5.921   8.702 -0.2565  0.0696 -0.1811
  180SLPC  H16S20608   7.314   6.057   8.810 -0.1404  0.7892  0.2202
  180SLPC  C21720609   7.296   6.092   8.590 -0.2505 -0.9541 -0.6350
  180SLPC  H17R20610   7.407   6.099   8.581 -0.0543 -0.8310  1.3638
  180SLPC  H17S20611   7.256   6.194   8.608  1.1467 -0.3236 -1.0051
  180SLPC  C21820612   7.255   6.036   8.455  0.6218 -0.1243 -0.3443
  180SLPC  H18R20613   7.145   6.026   8.445  0.8333 -0.9891 -2.1916
  180SLPC  H18S20614   7.305   5.938   8.438  1.9678  0.4423  0.2199
  180SLPC  H18T20615   7.282   6.108   8.375  1.8256 -0.2488 -0.0654
  180SLPC   C3320616   7.287   6.556  10.220  0.6885 -0.7467  0.5202
  180SLPC   H3X20617   7.366   6.626  10.184  0.4090 -0.4449  0.4923
  180SLPC   H3Y20618   7.235   6.613  10.300  0.3981  0.4597 -0.4976
  180SLPC   C3420619   7.192   6.542  10.101  0.0336 -0.2640  0.1982
  180SLPC   H4X20620   7.146   6.642  10.084  0.1536 -0.5738 -2.2628
  180SLPC   H4Y20621   7.118   6.459  10.107 -2.8064  1.9102 -1.7147
  180SLPC   C3520622   7.261   6.520   9.964  0.3388  0.0796 -0.6504
  180SLPC   H5X20623   7.305   6.418   9.957  0.2174 -0.0770  0.5695
  180SLPC   H5Y20624   7.347   6.585   9.940  0.0403  0.6756 -0.1183
  180SLPC   C3620625   7.172   6.538   9.851  0.0223 -0.2774 -0.2427
  180SLPC   H6X20626   7.131   6.640   9.841  0.6300 -0.0889 -0.9445
  180SLPC   H6Y20627   7.083   6.475   9.874 -0.1694 -0.0019 -0.2345
  180SLPC   C3720628   7.229   6.486   9.721  0.1059 -0.1938 -0.7794
  180SLPC   H7X20629   7.252   6.378   9.730  1.3117  0.0907 -0.3459
  180SLPC   H7Y20630   7.333   6.523   9.712 -0.1487  0.9220  0.5772
  180SLPC   C3820631   7.141   6.519   9.603 -0.0518 -0.4799 -0.8039
  180SLPC   H8X20632   7.140   6.630   9.599  2.3861 -0.3019  1.1469
  180SLPC   H8Y20633   7.038   6.481   9.617 -0.2119  0.2878  0.2765
  180SLPC   C3920634   7.202   6.463   9.475  0.3269  0.4962 -0.5439
  180SLPC   H9X20635   7.172   6.357   9.474 -1.1938  0.8971 -0.3220
  180SLPC   H9Y20636   7.310   6.491   9.471  0.1399  2.0485  2.4122
  180SLPC  C31020637   7.126   6.530   9.361  0.3793  0.1594  0.0774
  180SLPC  H10X20638   7.190   6.599   9.302 -1.7836  1.7076 -0.5910
  180SLPC  H10Y20639   7.033   6.583   9.392 -2.3061 -1.5034 -4.1861
  180SLPC  C31120640   7.070   6.444   9.245  0.2923 -0.0375 -0.5314
  180SLPC  H11X20641   7.007   6.368   9.297  3.9063 -3.7093 -1.0260
  180SLPC  H11Y20642   7.159   6.396   9.200 -0.4348 -2.4415  0.4255
  180SLPC  C31220643   6.987   6.522   9.143  0.2423 -0.5952 -0.5865
  180SLPC  H12X20644   7.054   6.593   9.089 -0.4505  2.1092  1.8809
  180SLPC  H12Y20645   6.909   6.579   9.198  0.1059 -2.3206  1.1077
  180SLPC  C31320646   6.931   6.423   9.044  0.2125 -0.3459 -0.3368
  180SLPC  H13X20647   6.891   6.339   9.104  1.2643  0.3077  1.3432
  180SLPC  H13Y20648   7.017   6.377   8.992 -0.2475 -1.0348 -0.4987
  180SLPC  C31420649   6.828   6.474   8.951  0.1845 -0.1116 -0.0298
  180SLPC  H14X20650   6.866   6.573   8.917 -2.5293  1.0792  0.0533
  180SLPC  H14Y20651   6.727   6.506   8.987  0.3762  0.3922  0.0675
  180SLPC  C31520652   6.826   6.378   8.834  0.6915 -0.2773 -0.6577
  180SLPC  H15X20653   6.783   6.278   8.861 -0.3547  0.8211  2.2318
  180SLPC  H15Y20654   6.925   6.370   8.785  1.6761  2.1923  0.7487
  180SLPC  C31620655   6.724   6.435   8.729 -0.7063 -0.5727  0.1894
  180SLPC  H16X20656   6.785   6.517   8.687 -2.1391  0.5396  0.1921
  180SLPC  H16Y20657   6.638   6.486   8.776  0.4702  0.1165  1.6482
  180SLPC  C31720658   6.684   6.327   8.636  0.0247  0.1712  0.7062
  180SLPC  H17X20659   6.617   6.250   8.680  2.1493 -1.8946  0.4700
  180SLPC  H17Y20660   6.779   6.282   8.601 -0.8830  0.1315 -1.9658
  180SLPC  C31820661   6.621   6.377   8.505 -0.5499  0.0915 -0.0092
  180SLPC  H18X20662   6.576   6.290   8.452  0.4795 -0.3559 -0.1688
  180SLPC  H18Y20663   6.703   6.424   8.447  0.2011 -1.6059 -0.3940
  180SLPC  H18Z20664   6.538   6.447   8.528  0.2717  1.6917 -1.6749
  181SLPC     N20665   3.704   3.771  11.126 -0.3354 -0.5063 -0.4513
  181SLPC   C1320666   3.778   3.639  11.157 -0.2198 -0.6006 -0.4804
  181SLPC  H13A20667   3.704   3.560  11.154 -2.4445  1.2127  2.0983
  181SLPC  H13B20668   3.864   3.626  11.092 -1.0683  0.1657 -1.8042
  181SLPC  H13C20669   3.817   3.651  11.257 -0.1866 -2.7477 -0.1921
  181SLPC   C1420670   3.583   3.781  11.218  0.2102 -0.2427  0.0058
  181SLPC  H14A20671   3.514   3.853  11.177 -0.4556 -1.2123 -0.6188
  181SLPC  H14B20672   3.535   3.685  11.228  1.3860 -0.8166  0.2584
  181SLPC  H14C20673   3.620   3.825  11.310  1.0929 -0.9654  0.0142
  181SLPC   C1520674   3.653   3.752  10.985  0.3547  0.4473 -0.4224
  181SLPC  H15A20675   3.728   3.726  10.912  0.5666 -0.3052  0.0557
  181SLPC  H15B20676   3.588   3.666  10.978 -0.0980  0.7978 -0.5912
  181SLPC  H15C20677   3.604   3.844  10.956  0.6382  0.4930 -0.7632
  181SLPC   C1220678   3.793   3.897  11.123  0.3822  0.1384  0.2643
  181SLPC  H12A20679   3.872   3.886  11.050  0.1301 -0.8480  0.1266
  181SLPC  H12B20680   3.842   3.898  11.220 -0.6264 -0.8368  0.8028
  181SLPC   C1120681   3.725   4.036  11.102  0.1521  0.1588 -0.0737
  181SLPC  H11A20682   3.799   4.109  11.141 -0.2452  0.9729 -0.8235
  181SLPC  H11B20683   3.638   4.031  11.171  0.5100  0.8390  0.4493
  181SLPC     P20684   3.605   4.173  10.927  0.3261  0.1675 -0.1709
  181SLPC   O1320685   3.536   4.229  11.047  0.0805  0.2270  0.3533
  181SLPC   O1420686   3.691   4.268  10.853 -0.3329  0.1847  0.3567
  181SLPC   O1220687   3.696   4.052  10.964 -0.7144 -0.4519 -0.1052
  181SLPC   O1120688   3.495   4.096  10.835  0.0052 -0.3810 -0.4902
  181SLPC    C120689   3.538   4.028  10.715  0.2590 -0.1054 -0.4217
  181SLPC    HA20690   3.629   3.966  10.733 -0.4993 -1.0068  0.3636
  181SLPC    HB20691   3.466   3.947  10.693 -0.0499 -0.1131  0.5784
  181SLPC    C220692   3.538   4.132  10.599 -0.8596  0.4994  0.1669
  181SLPC    HS20693   3.608   4.214  10.626  0.7217 -0.4104 -1.0012
  181SLPC   O2120694   3.408   4.182  10.577 -0.6841  0.3816  0.6567
  181SLPC   C2120695   3.408   4.304  10.526  0.1693 -0.4828  0.2491
  181SLPC   O2220696   3.497   4.391  10.537  0.3712  0.5093  0.2298
  181SLPC   C2220697   3.282   4.319  10.442  0.4771 -0.6583 -0.4861
  181SLPC   H2R20698   3.193   4.281  10.497  0.7306 -0.4530  0.0723
  181SLPC   H2S20699   3.267   4.430  10.439  1.4078 -0.5212 -0.3563
  181SLPC    C320700   3.607   4.070  10.474  0.3803  0.8866 -0.2909
  181SLPC    HX20701   3.531   4.006  10.423  0.2324 -0.6634  1.7533
  181SLPC    HY20702   3.700   4.011  10.490 -1.1228 -1.3251  0.9962
  181SLPC   O3120703   3.633   4.184  10.384 -0.6884  0.9004 -0.1847
  181SLPC   C3120704   3.744   4.244  10.394  0.0665 -0.3594  0.2827
  181SLPC   O3220705   3.829   4.217  10.474  0.0402  0.0353  0.3628
  181SLPC   C3220706   3.768   4.343  10.279 -0.1280 -0.8167 -0.3768
  181SLPC   H2X20707   3.876   4.336  10.256 -0.3603  1.1808 -2.3802
  181SLPC   H2Y20708   3.744   4.448  10.307 -0.6923 -0.0170 -3.4539
  181SLPC   C2320709   3.312   4.281  10.295 -0.2902  0.3646  0.5939
  181SLPC   H3R20710   3.358   4.180  10.293 -1.0965  0.0060 -0.9198
  181SLPC   H3S20711   3.387   4.344  10.243 -0.8596 -0.1818 -0.9350
  181SLPC   C2420712   3.179   4.265  10.217 -0.2206  0.4992 -0.4223
  181SLPC   H4R20713   3.131   4.365  10.223  3.1725  2.5505 -3.5688
  181SLPC   H4S20714   3.106   4.196  10.265  0.7026 -0.6337 -0.5988
  181SLPC   C2520715   3.189   4.230  10.071 -0.4853 -0.1929  0.8195
  181SLPC   H5R20716   3.222   4.124  10.062  1.2647  0.3112  0.8379
  181SLPC   H5S20717   3.266   4.294  10.024 -1.4120  0.8003  0.6349
  181SLPC   C2620718   3.047   4.229  10.004 -0.3829 -0.0690 -0.1152
  181SLPC   H6R20719   3.024   4.336   9.987  1.5003  0.2254 -1.0186
  181SLPC   H6S20720   2.977   4.188  10.080  0.0719  1.4853  1.1790
  181SLPC   C2720721   3.036   4.157   9.875 -0.2332  0.8402 -0.1809
  181SLPC   H7R20722   2.946   4.192   9.820 -0.1964 -2.4562 -2.6944
  181SLPC   H7S20723   3.023   4.047   9.888  0.8178  0.6821 -0.3439
  181SLPC   C2820724   3.148   4.185   9.770 -0.2806 -0.2332  0.1957
  181SLPC   H8R20725   3.131   4.117   9.684 -0.5460  1.3443 -1.0349
  181SLPC   H8S20726   3.246   4.145   9.804 -0.3330 -0.6563 -0.1462
  181SLPC   C2920727   3.166   4.327   9.714  0.0790  0.3575 -0.3044
  181SLPC   H9R20728   3.185   4.399   9.795  2.3012 -1.9958  1.3884
  181SLPC  C21020729   3.153   4.375   9.587 -0.8407 -0.2925  0.4404
  181SLPC  H10R20730   3.162   4.483   9.567 -0.1291 -0.8868 -3.2083
  181SLPC  C21120731   3.128   4.293   9.460 -0.1770  0.4132 -1.0630
  181SLPC  H11R20732   3.144   4.185   9.480  0.3867  0.5432 -0.7972
  181SLPC  H11S20733   3.214   4.316   9.394 -0.5218 -0.0648 -1.6890
  181SLPC  C21220734   3.002   4.323   9.387 -0.0777 -0.3923 -0.0957
  181SLPC  H12R20735   2.929   4.244   9.409  0.7974 -1.4511 -0.9008
  181SLPC  C21320736   2.964   4.423   9.307 -0.3268  0.3438  0.3100
  181SLPC  H13R20737   2.863   4.414   9.265 -0.5302  0.5946  0.7374
  181SLPC  C21420738   3.038   4.548   9.267 -0.3648  0.6539  0.4312
  181SLPC  H14R20739   3.115   4.584   9.338 -0.2793 -1.6123  1.5737
  181SLPC  H14S20740   2.964   4.629   9.246 -0.0624  1.0957  1.0406
  181SLPC  C21520741   3.117   4.533   9.131  0.3904 -0.5216 -0.2763
  181SLPC  H15R20742   3.189   4.451   9.146  1.3543 -0.0292 -1.9482
  181SLPC  H15S20743   3.173   4.629   9.120  0.2170 -0.3571  0.2220
  181SLPC  C21620744   3.031   4.514   9.009  0.3833  0.2316 -0.2288
  181SLPC  H16R20745   2.966   4.605   9.006 -0.1848 -0.1078  1.0952
  181SLPC  H16S20746   2.967   4.426   9.031  1.5098 -0.9858 -1.5994
  181SLPC  C21720747   3.098   4.495   8.874  0.4843  0.4048  0.1674
  181SLPC  H17R20748   3.124   4.597   8.837  2.6012 -0.0035  0.4261
  181SLPC  H17S20749   3.032   4.452   8.796  0.1321  0.1538  0.6059
  181SLPC  C21820750   3.224   4.405   8.869  0.5483  0.3587 -0.0959
  181SLPC  H18R20751   3.228   4.324   8.945  1.3786 -0.4938 -1.0152
  181SLPC  H18S20752   3.314   4.471   8.872  1.9792 -1.5051  0.2872
  181SLPC  H18T20753   3.215   4.349   8.773 -4.1114  0.9410 -0.1904
  181SLPC   C3320754   3.691   4.322  10.145 -0.9454 -0.0120 -0.3562
  181SLPC   H3X20755   3.588   4.351  10.175 -0.4367 -0.2983  1.8418
  181SLPC   H3Y20756   3.690   4.213  10.123  0.8270 -0.2400  0.4777
  181SLPC   C3420757   3.738   4.403  10.030 -0.7662 -0.1805  0.0030
  181SLPC   H4X20758   3.842   4.374  10.002 -0.1089  2.2500 -0.3492
  181SLPC   H4Y20759   3.751   4.508  10.062 -0.7278 -0.6767  1.6834
  181SLPC   C3520760   3.642   4.387   9.906  0.5732 -0.2493  1.0536
  181SLPC   H5X20761   3.542   4.413   9.948  0.4221  0.5663  0.2014
  181SLPC   H5Y20762   3.645   4.283   9.867 -1.2498 -0.0397  0.2517
  181SLPC   C3620763   3.667   4.497   9.798 -0.1918 -0.4506  0.0001
  181SLPC   H6X20764   3.652   4.601   9.835 -1.5483  0.7712 -3.5067
  181SLPC   H6Y20765   3.587   4.482   9.722  0.6670 -2.0921 -0.6126
  181SLPC   C3720766   3.805   4.485   9.735 -0.5103 -0.6488  0.2492
  181SLPC   H7X20767   3.807   4.395   9.670 -0.3848 -0.6642  0.2752
  181SLPC   H7Y20768   3.875   4.492   9.821 -0.6780  0.3323  0.3204
  181SLPC   C3820769   3.847   4.603   9.645 -0.4969 -0.3327 -0.1192
  181SLPC   H8X20770   3.816   4.698   9.695 -1.2349 -0.4825 -0.2854
  181SLPC   H8Y20771   3.787   4.607   9.552 -2.0509 -0.8465  0.8351
  181SLPC   C3920772   3.994   4.619   9.616  0.8434 -0.7756  0.1982
  181SLPC   H9X20773   4.020   4.523   9.567  0.5085  0.3977 -2.4973
  181SLPC   H9Y20774   4.054   4.619   9.710  0.3342  0.5991  0.5493
  181SLPC  C31020775   4.031   4.739   9.530 -0.2519 -0.6209 -0.2231
  181SLPC  H10X20776   4.014   4.832   9.589 -1.6549 -0.2823 -1.0822
  181SLPC  H10Y20777   3.953   4.749   9.450 -0.4344  0.0499  0.0306
  181SLPC  C31120778   4.177   4.740   9.476 -0.3281  1.3490  0.3968
  181SLPC  H11X20779   4.186   4.657   9.403  1.8535  0.5292  1.5303
  181SLPC  H11Y20780   4.249   4.713   9.556  0.1845  1.1397 -0.1259
  181SLPC  C31220781   4.208   4.866   9.396 -0.6120 -0.2454  0.1275
  181SLPC  H12X20782   4.127   4.906   9.331  1.5067 -1.4616 -3.5799
  181SLPC  H12Y20783   4.294   4.851   9.328  0.5859  4.0227  0.4446
  181SLPC  C31320784   4.243   4.972   9.503  0.5879  0.2612  0.3594
  181SLPC  H13X20785   4.300   4.921   9.584  0.6153  1.5631  1.1823
  181SLPC  H13Y20786   4.146   5.001   9.550  1.6882  1.8097  1.7545
  181SLPC  C31420787   4.321   5.084   9.425 -0.3367  0.0960 -0.0693
  181SLPC  H14X20788   4.314   5.171   9.494  1.5623 -1.7608  2.6538
  181SLPC  H14Y20789   4.263   5.109   9.333 -1.6744  0.7971  0.9189
  181SLPC  C31520790   4.466   5.065   9.381 -0.5668 -0.1641  0.1766
  181SLPC  H15X20791   4.483   4.989   9.302 -0.1902 -0.8223  0.8801
  181SLPC  H15Y20792   4.516   5.025   9.471  1.7785  1.6995 -0.1777
  181SLPC  C31620793   4.532   5.197   9.325  0.1820 -0.0090 -0.3795
  181SLPC  H16X20794   4.527   5.270   9.409 -1.0496 -1.0446  0.4805
  181SLPC  H16Y20795   4.482   5.242   9.237  0.9592  2.1561  0.2150
  181SLPC  C31720796   4.676   5.175   9.283 -0.0353  0.0296 -0.4281
  181SLPC  H17X20797   4.697   5.089   9.215  2.4581 -0.0888  0.4076
  181SLPC  H17Y20798   4.747   5.159   9.367 -0.6537 -0.6413 -0.0248
  181SLPC  C31820799   4.728   5.289   9.193  0.4375  0.1722  0.1229
  181SLPC  H18X20800   4.674   5.308   9.098  0.8637  3.0311  0.3634
  181SLPC  H18Y20801   4.837   5.274   9.175  0.5444  2.2239 -1.4104
  181SLPC  H18Z20802   4.719   5.379   9.258 -1.9441  1.1160 -1.3877
  182SLPC     N20803   1.990   4.894  10.855  0.2200  0.1958  0.1907
  182SLPC   C1320804   2.036   4.993  10.954 -0.6542 -0.4343  0.8271
  182SLPC  H13A20805   1.944   5.033  10.993 -0.5944 -0.7229  1.2711
  182SLPC  H13B20806   2.096   4.943  11.029 -1.1065 -1.7113  0.3575
  182SLPC  H13C20807   2.093   5.075  10.911 -1.2171 -0.8669 -0.8031
  182SLPC   C1420808   1.925   4.980  10.740  0.2036  0.7396  0.3820
  182SLPC  H14A20809   1.883   4.925  10.656  1.7455  2.0807 -1.3614
  182SLPC  H14B20810   1.852   5.051  10.774  1.0318  0.2698  3.3796
  182SLPC  H14C20811   2.002   5.035  10.686  2.6522 -1.9084  0.9443
  182SLPC   C1520812   1.884   4.808  10.916  0.0233  0.3374  0.1645
  182SLPC  H15A20813   1.839   4.732  10.853  0.3655 -1.1296  1.6082
  182SLPC  H15B20814   1.939   4.756  10.993  0.3473  2.4688  1.4379
  182SLPC  H15C20815   1.804   4.863  10.963 -0.6562 -0.0526 -0.4907
  182SLPC   C1220816   2.101   4.804  10.800  0.1824 -0.3253  0.0845
  182SLPC  H12A20817   2.056   4.726  10.740 -0.4827  0.8621 -1.0326
  182SLPC  H12B20818   2.148   4.755  10.883  1.3049  0.0071 -0.3345
  182SLPC   C1120819   2.202   4.870  10.702  0.4881 -0.2903  0.4088
  182SLPC  H11A20820   2.171   4.913  10.604  0.9793  0.6128  0.6433
  182SLPC  H11B20821   2.260   4.789  10.652 -0.4610  0.5242 -2.1741
  182SLPC     P20822   2.423   4.928  10.825  0.1847  0.3342 -0.1502
  182SLPC   O1320823   2.422   4.953  10.970 -0.1398 -0.7146  0.0594
  182SLPC   O1420824   2.469   4.795  10.776 -0.4842  0.0650 -0.2540
  182SLPC   O1220825   2.288   4.962  10.757  0.0510 -0.7057  0.0193
  182SLPC   O1120826   2.519   5.045  10.767  0.0023  0.2272 -0.4997
  182SLPC    C120827   2.477   5.116  10.648  0.0111 -0.1968  0.2950
  182SLPC    HA20828   2.379   5.165  10.665 -0.5890 -1.5961  1.0026
  182SLPC    HB20829   2.547   5.202  10.636  4.4328 -3.2785  1.7209
  182SLPC    C220830   2.465   5.040  10.519 -0.1622  0.3961  0.6237
  182SLPC    HS20831   2.387   4.961  10.524 -1.3671  1.3669 -1.4916
  182SLPC   O2120832   2.596   4.983  10.493 -0.0088  0.2156  0.1920
  182SLPC   C2120833   2.593   4.857  10.445  0.2594  0.0445 -0.4098
  182SLPC   O2220834   2.499   4.801  10.396 -0.1738 -0.2792 -0.3810
  182SLPC   C2220835   2.735   4.797  10.463  0.5781 -0.0210 -0.0886
  182SLPC   H2R20836   2.808   4.874  10.494  0.1288  0.2976  0.1796
  182SLPC   H2S20837   2.720   4.722  10.544  1.2043 -1.8172 -1.5548
  182SLPC    C320838   2.440   5.132  10.394 -1.2605  0.0006  0.1385
  182SLPC    HX20839   2.535   5.188  10.380 -0.4799 -1.1009  0.8784
  182SLPC    HY20840   2.346   5.188  10.413 -2.1606 -1.7348  1.0437
  182SLPC   O3120841   2.434   5.061  10.269 -0.6841  0.3373  0.2051
  182SLPC   C3120842   2.309   5.023  10.234 -0.6447  0.3392  0.1261
  182SLPC   O3220843   2.214   5.030  10.306 -0.1390 -0.2462 -0.2557
  182SLPC   C3220844   2.304   4.968  10.083 -0.1236  0.3350 -0.0675
  182SLPC   H2X20845   2.278   5.053  10.016 -1.5566  0.2931  0.4158
  182SLPC   H2Y20846   2.222   4.894  10.073 -0.2076  0.5858 -1.3294
  182SLPC   C2320847   2.769   4.721  10.329 -0.4084 -0.4992  0.0717
  182SLPC   H3R20848   2.764   4.796  10.248 -3.1626 -0.3218  0.3090
  182SLPC   H3S20849   2.698   4.638  10.306  0.8598 -1.8112  0.7216
  182SLPC   C2420850   2.913   4.678  10.319  0.3041 -0.3696 -0.8670
  182SLPC   H4R20851   2.936   4.600  10.395  0.5711  0.1022 -0.4567
  182SLPC   H4S20852   2.986   4.761  10.327  1.4428 -1.0821 -3.1143
  182SLPC   C2520853   2.949   4.620  10.177  0.2399 -0.6839 -0.2631
  182SLPC   H5R20854   2.927   4.512  10.164  0.3846 -0.5091 -2.3617
  182SLPC   H5S20855   3.060   4.623  10.176  0.2316  2.3582 -1.0665
  182SLPC   C2620856   2.900   4.698  10.051 -0.5765  0.3523  0.1346
  182SLPC   H6R20857   2.945   4.799  10.056 -0.2769  0.3675 -1.9311
  182SLPC   H6S20858   2.789   4.702  10.050 -0.6818 -0.0868  2.5789
  182SLPC   C2720859   2.958   4.644   9.921 -0.2763 -0.2621  0.3814
  182SLPC   H7R20860   2.908   4.547   9.901 -2.2453  0.4200  1.7072
  182SLPC   H7S20861   3.066   4.619   9.926 -0.1521  0.1851  0.0390
  182SLPC   C2820862   2.930   4.738   9.800  0.2708  0.3302 -0.5934
  182SLPC   H8R20863   2.976   4.838   9.811 -1.1778  1.1444 -1.5511
  182SLPC   H8S20864   2.827   4.776   9.817  0.4607 -0.1611  2.1368
  182SLPC   C2920865   2.950   4.672   9.665 -0.2081 -0.0752 -0.1574
  182SLPC   H9R20866   2.945   4.562   9.661  2.9892 -0.3249  0.5941
  182SLPC  C21020867   2.991   4.743   9.554  0.0897 -0.0625  0.0001
  182SLPC  H10R20868   2.996   4.687   9.459  0.5006 -1.3805  0.7746
  182SLPC  C21120869   3.016   4.890   9.557  0.1732 -0.3857  0.6243
  182SLPC  H11R20870   3.088   4.906   9.474  0.1060 -1.2870  0.3833
  182SLPC  H11S20871   3.079   4.920   9.643 -1.9356 -1.7347  2.7826
  182SLPC  C21220872   2.891   4.973   9.536 -0.1889  0.6018  0.2827
  182SLPC  H12R20873   2.861   5.031   9.624  3.0049 -0.6906  2.4438
  182SLPC  C21320874   2.815   4.977   9.425  0.6006 -0.0964  0.1630
  182SLPC  H13R20875   2.721   5.033   9.432  0.7067 -0.1358  2.5599
  182SLPC  C21420876   2.830   4.898   9.299 -0.1152  0.2467  0.4917
  182SLPC  H14R20877   2.771   4.805   9.296 -0.4249  0.4544 -1.9990
  182SLPC  H14S20878   2.938   4.871   9.297 -0.2569 -0.2788 -0.1215
  182SLPC  C21520879   2.784   4.982   9.176 -0.3305 -0.0517 -1.3425
  182SLPC  H15R20880   2.843   5.077   9.179  1.6541 -1.2536  0.8794
  182SLPC  H15S20881   2.676   5.006   9.177 -0.1512  1.0978  1.8739
  182SLPC  C21620882   2.807   4.913   9.036  0.6183 -0.5174 -1.4160
  182SLPC  H16R20883   2.713   4.920   8.977 -1.2932  2.0647  1.6340
  182SLPC  H16S20884   2.822   4.805   9.059 -0.9424 -0.6205 -0.7817
  182SLPC  C21720885   2.935   4.956   8.960  0.0110  0.0502  0.5565
  182SLPC  H17R20886   3.014   4.935   9.035 -1.8307 -1.6218  2.1574
  182SLPC  H17S20887   2.936   5.067   8.953 -2.6350  0.1497  0.6025
  182SLPC  C21820888   2.971   4.883   8.833 -0.7412 -0.2827 -0.3839
  182SLPC  H18R20889   3.079   4.873   8.813 -0.1505 -0.0517  2.3127
  182SLPC  H18S20890   2.927   4.934   8.745  1.9797  1.1841 -1.0087
  182SLPC  H18T20891   2.928   4.780   8.827 -2.7093  0.2798  1.9497
  182SLPC   C3320892   2.436   4.901  10.036 -0.6365 -0.6111  0.3640
  182SLPC   H3X20893   2.471   4.821  10.105 -0.4638  2.5117  4.2209
  182SLPC   H3Y20894   2.512   4.980  10.050 -0.3818 -0.9607  0.9538
  182SLPC   C3420895   2.451   4.857   9.889 -0.1185 -0.4695  0.6949
  182SLPC   H4X20896   2.380   4.772   9.888  0.1404 -0.7961 -3.0682
  182SLPC   H4Y20897   2.554   4.817   9.878  0.0643  0.3500 -0.9348
  182SLPC   C3520898   2.410   4.954   9.781 -0.3712  0.1970  1.1219
  182SLPC   H5X20899   2.470   5.048   9.783 -2.3660  1.5262  1.3644
  182SLPC   H5Y20900   2.305   4.982   9.805 -0.9572 -1.4482  0.5817
  182SLPC   C3620901   2.416   4.901   9.636  0.2370  0.3723  0.0834
  182SLPC   H6X20902   2.338   4.822   9.635 -0.8661  1.4361  0.5369
  182SLPC   H6Y20903   2.512   4.848   9.616  0.1267  0.2534 -0.1391
  182SLPC   C3720904   2.373   5.003   9.525 -0.1216  0.3537 -0.0986
  182SLPC   H7X20905   2.448   5.085   9.521  2.1939 -1.5990  0.7254
  182SLPC   H7Y20906   2.268   5.037   9.534 -0.5560 -0.5864 -1.3606
  182SLPC   C3820907   2.388   4.937   9.384  0.3411 -0.7175  0.0292
  182SLPC   H8X20908   2.313   4.856   9.382 -2.1866  1.4970 -0.1614
  182SLPC   H8Y20909   2.487   4.887   9.388  2.0249  2.3973  2.0177
  182SLPC   C3920910   2.402   5.042   9.265 -0.1004  0.2393 -0.0490
  182SLPC   H9X20911   2.500   5.092   9.278  0.5137 -0.9481 -0.0028
  182SLPC   H9Y20912   2.318   5.115   9.262 -1.0706 -0.8862 -1.5333
  182SLPC  C31020913   2.408   4.981   9.127 -0.5589 -0.4431 -0.4852
  182SLPC  H10X20914   2.486   4.901   9.118  0.8873  0.9748 -1.1620
  182SLPC  H10Y20915   2.431   5.065   9.059  0.9319 -1.5259 -1.3825
  182SLPC  C31120916   2.272   4.915   9.091 -0.5504  0.1309 -0.0204
  182SLPC  H11X20917   2.193   4.970   9.147 -0.4612 -1.8963  2.2425
  182SLPC  H11Y20918   2.281   4.815   9.140 -0.0891  0.0119 -0.3503
  182SLPC  C31220919   2.244   4.918   8.935  0.1995  0.5545 -0.5858
  182SLPC  H12X20920   2.330   4.865   8.888 -0.8824 -2.5376  0.7074
  182SLPC  H12Y20921   2.251   5.023   8.897 -0.3611  0.1722 -1.8093
  182SLPC  C31320922   2.109   4.854   8.892 -0.4569  0.1078 -0.2243
  182SLPC  H13X20923   2.022   4.918   8.917 -0.1192  0.4039  0.1951
  182SLPC  H13Y20924   2.085   4.762   8.950 -0.3749 -1.2795 -2.2836
  182SLPC  C31420925   2.107   4.823   8.748 -0.0532  0.4351  0.0228
  182SLPC  H14X20926   2.211   4.791   8.724 -0.7511 -0.6384 -1.7351
  182SLPC  H14Y20927   2.068   4.901   8.679 -1.8646 -1.5860 -1.3814
  182SLPC  C31520928   2.012   4.706   8.735  0.7109 -0.0093 -0.1547
  182SLPC  H15X20929   1.916   4.737   8.782  2.3239  1.7547  2.1396
  182SLPC  H15Y20930   2.042   4.614   8.789 -0.1578 -0.7556 -0.8932
  182SLPC  C31620931   1.983   4.672   8.593 -0.5675  1.0132  0.3164
  182SLPC  H16X20932   1.952   4.768   8.546 -0.8623  0.7704  0.0101
  182SLPC  H16Y20933   1.897   4.601   8.591 -0.0325  0.2687 -3.5052
  182SLPC  C31720934   2.097   4.602   8.518  0.7528 -1.0779  0.3749
  182SLPC  H17X20935   2.128   4.509   8.569 -2.0033 -2.9200 -1.0956
  182SLPC  H17Y20936   2.181   4.675   8.515  0.8617 -1.1194  1.7249
  182SLPC  C31820937   2.067   4.568   8.368  0.8437  0.0410 -0.8643
  182SLPC  H18X20938   2.168   4.572   8.323  0.3262  2.5213 -2.0122
  182SLPC  H18Y20939   2.011   4.649   8.316 -0.7420 -1.0789 -0.9572
  182SLPC  H18Z20940   2.013   4.472   8.353 -0.2072  0.1826  1.4036
  183SLPC     N20941   3.239   6.378  10.412 -0.2014  0.2609  0.1794
  183SLPC   C1320942   3.355   6.464  10.372 -0.3052  0.3670  0.3992
  183SLPC  H13A20943   3.375   6.543  10.443 -0.4255  1.7086 -1.0043
  183SLPC  H13B20944   3.439   6.398  10.366  2.1094  3.2290  0.2310
  183SLPC  H13C20945   3.340   6.515  10.278 -1.2108 -0.2482  0.1944
  183SLPC   C1420946   3.271   6.325  10.551  0.1566  0.2534  0.5288
  183SLPC  H14A20947   3.185   6.314  10.615 -1.5331  0.6653 -1.5750
  183SLPC  H14B20948   3.328   6.233  10.551 -0.2647 -0.0481 -1.3299
  183SLPC  H14C20949   3.325   6.406  10.599 -1.6022  0.8906  1.5110
  183SLPC   C1520950   3.229   6.277  10.305  0.3857  0.3746 -0.0080
  183SLPC  H15A20951   3.150   6.204  10.319 -1.5293  2.0729 -1.4030
  183SLPC  H15B20952   3.209   6.334  10.216  1.3147  0.4094 -0.1955
  183SLPC  H15C20953   3.323   6.225  10.294  0.3953  0.5741 -0.9563
  183SLPC   C1220954   3.111   6.462  10.427  0.2186 -0.3259 -0.2651
  183SLPC  H12A20955   3.123   6.523  10.339  0.1094 -1.3202 -0.9956
  183SLPC  H12B20956   3.127   6.529  10.510 -0.7864  0.8417 -0.9795
  183SLPC   C1120957   2.977   6.386  10.420  0.2018 -0.3404  0.0743
  183SLPC  H11A20958   2.959   6.317  10.334 -1.8629  1.1663 -0.7965
  183SLPC  H11B20959   2.903   6.464  10.393  1.1684  0.2177 -1.0964
  183SLPC     P20960   2.835   6.364  10.646  0.2339  0.4071 -0.0349
  183SLPC   O1320961   2.798   6.237  10.716 -0.2873  0.4427  0.2123
  183SLPC   O1420962   2.882   6.474  10.730 -0.1797  0.1445 -0.3449
  183SLPC   O1220963   2.947   6.327  10.542 -0.0542 -0.3244 -0.6146
  183SLPC   O1120964   2.721   6.418  10.547  0.4331  0.4249 -0.3725
  183SLPC    C120965   2.594   6.354  10.537 -0.5530  0.2212 -0.3636
  183SLPC    HA20966   2.573   6.280  10.617  2.5716  0.1827  0.5572
  183SLPC    HB20967   2.518   6.435  10.531 -0.4884  0.3333  0.3523
  183SLPC    C220968   2.588   6.273  10.403 -0.1949 -0.0434  0.2328
  183SLPC    HS20969   2.486   6.230  10.401 -1.3925  2.5816 -0.9241
  183SLPC   O2120970   2.686   6.173  10.391 -0.0450  0.1418  0.1078
  183SLPC   C2120971   2.687   6.081  10.294  1.0156 -0.4650  0.2759
  183SLPC   O2220972   2.587   6.042  10.240 -0.2114 -0.1809  0.4997
  183SLPC   C2220973   2.820   6.034  10.269  0.0576 -0.3221 -0.0778
  183SLPC   H2R20974   2.891   6.097  10.326 -0.7019  0.9828 -0.5361
  183SLPC   H2S20975   2.820   5.930  10.309  0.6987 -0.0864  0.5458
  183SLPC    C320976   2.597   6.383  10.291  0.1129 -0.7684 -0.0546
  183SLPC    HX20977   2.689   6.445  10.299 -1.1669  1.4816 -1.6280
  183SLPC    HY20978   2.520   6.460  10.314  1.6892  0.9305 -0.2866
  183SLPC   O3120979   2.594   6.329  10.156  0.2360 -0.5998 -0.1805
  183SLPC   C3120980   2.462   6.306  10.123  0.8174 -0.1613 -0.3640
  183SLPC   O3220981   2.362   6.322  10.195 -1.6041 -0.5842  0.0517
  183SLPC   C3220982   2.450   6.255   9.978  0.1044  0.1721 -0.3165
  183SLPC   H2X20983   2.496   6.154   9.967  2.0398  0.8148  1.2476
  183SLPC   H2Y20984   2.504   6.328   9.915 -2.0334  0.4963 -1.8790
  183SLPC   C2320985   2.857   6.053  10.120 -0.0422  0.5338 -0.3541
  183SLPC   H3R20986   2.845   6.158  10.085  0.1277  1.0946  1.1723
  183SLPC   H3S20987   2.807   5.978  10.055 -0.7781 -0.0764  0.8636
  183SLPC   C2420988   3.004   6.020  10.109 -0.0666 -0.7439 -0.1906
  183SLPC   H4R20989   3.022   5.928  10.169 -1.4863  0.1402  1.7094
  183SLPC   H4S20990   3.056   6.104  10.160  0.5722 -0.5815 -1.0920
  183SLPC   C2520991   3.044   5.997   9.967 -0.0270  0.3395 -0.3342
  183SLPC   H5R20992   2.975   6.049   9.896 -2.6567 -3.1003 -0.5586
  183SLPC   H5S20993   3.018   5.891   9.943 -1.0022  0.8105 -1.5121
  183SLPC   C2620994   3.189   6.020   9.933  0.1443  0.8811  0.6485
  183SLPC   H6R20995   3.256   5.980  10.012  1.4247 -1.1930 -1.3612
  183SLPC   H6S20996   3.204   6.130   9.929 -1.3228  1.0992  0.3203
  183SLPC   C2720997   3.236   5.967   9.801  0.1043  0.2087  0.0341
  183SLPC   H7R20998   3.192   6.034   9.723 -0.1325 -0.4963 -0.4430
  183SLPC   H7S20999   3.207   5.860   9.793  2.3478 -0.5222  0.8169
  183SLPC   C2821000   3.387   5.979   9.791  0.1776  0.4992  0.3828
  183SLPC   H8R21001   3.409   5.936   9.691 -0.9300 -0.8893  0.7004
  183SLPC   H8S21002   3.431   5.903   9.858  1.4195  0.5331 -0.3680
  183SLPC   C2921003   3.456   6.111   9.792  0.2616 -0.0699  0.1091
  183SLPC   H9R21004   3.459   6.151   9.895 -0.6607 -2.1084  0.9911
  183SLPC  C21021005   3.504   6.180   9.692 -0.0032  0.2791  0.0141
  183SLPC  H10R21006   3.564   6.269   9.718 -1.0641  1.0175  0.0260
  183SLPC  C21121007   3.503   6.140   9.549 -0.3420 -0.4980  0.8077
  183SLPC  H11R21008   3.546   6.038   9.542 -2.0304 -1.4610  3.2966
  183SLPC  H11S21009   3.554   6.212   9.482 -2.9311 -0.5368 -1.3905
  183SLPC  C21221010   3.362   6.121   9.492  0.2242 -0.4369 -0.6852
  183SLPC  H12R21011   3.283   6.146   9.564 -0.9101  0.6353 -2.2241
  183SLPC  C21321012   3.336   6.079   9.372 -0.7451 -0.9365  0.7350
  183SLPC  H13R21013   3.236   6.069   9.327 -1.0329  0.6914  0.9514
  183SLPC  C21421014   3.440   6.062   9.257 -0.6500  0.0984  0.0778
  183SLPC  H14R21015   3.470   5.955   9.247  1.0283  0.3508  1.7383
  183SLPC  H14S21016   3.535   6.108   9.292 -0.8039  0.0151  0.6169
  183SLPC  C21521017   3.400   6.130   9.130  0.6025 -0.3219 -0.7796
  183SLPC  H15R21018   3.378   6.236   9.153 -0.2604 -0.4858 -0.8073
  183SLPC  H15S21019   3.304   6.088   9.092 -0.6438  2.1254 -0.5251
  183SLPC  C21621020   3.507   6.101   9.030 -0.5168 -0.3822 -0.7626
  183SLPC  H16R21021   3.516   5.994   9.001 -2.8626 -0.2845 -2.0950
  183SLPC  H16S21022   3.607   6.126   9.072  0.0565 -0.4549 -2.0592
  183SLPC  C21721023   3.483   6.184   8.898 -0.8540 -0.1952  0.4164
  183SLPC  H17R21024   3.485   6.289   8.933  0.0021  0.0298 -0.2880
  183SLPC  H17S21025   3.384   6.163   8.852  1.3018 -1.8918 -4.0213
  183SLPC  C21821026   3.585   6.155   8.794 -0.7775  0.4049 -0.1267
  183SLPC  H18R21027   3.585   6.046   8.772  1.4349  0.5119 -0.9453
  183SLPC  H18S21028   3.689   6.184   8.822 -1.3126  1.0140  1.3050
  183SLPC  H18T21029   3.559   6.204   8.697  0.8886  1.2265 -0.1950
  183SLPC   C3321030   2.301   6.251   9.930 -0.4397 -0.2233  1.0295
  183SLPC   H3X21031   2.249   6.349   9.919  0.5999  0.0915 -1.7552
  183SLPC   H3Y21032   2.231   6.203  10.002  0.0439 -0.4756  1.3324
  183SLPC   C3421033   2.301   6.186   9.787 -0.3835  0.0395  0.1788
  183SLPC   H4X21034   2.298   6.076   9.803 -1.1500 -0.0944 -0.8676
  183SLPC   H4Y21035   2.403   6.201   9.746 -0.0855  0.2912  0.9796
  183SLPC   C3521036   2.190   6.220   9.696  0.0930  0.3390 -0.1229
  183SLPC   H5X21037   2.174   6.330   9.697 -0.3588  0.3040  2.4158
  183SLPC   H5Y21038   2.091   6.178   9.726  0.4872 -1.2041 -0.8589
  183SLPC   C3621039   2.203   6.175   9.542 -0.9201 -0.3456 -0.6327
  183SLPC   H6X21040   2.201   6.064   9.538 -0.0690 -0.4307  0.6752
  183SLPC   H6Y21041   2.305   6.204   9.508  0.3291 -1.9973  1.4575
  183SLPC   C3721042   2.108   6.244   9.443  0.2444  0.3611  0.9001
  183SLPC   H7X21043   2.092   6.346   9.484 -0.7843  0.0124  1.4057
  183SLPC   H7Y21044   2.007   6.198   9.444 -1.3759  3.6455 -0.3345
  183SLPC   C3821045   2.155   6.240   9.297 -0.2748  0.3411  0.2075
  183SLPC   H8X21046   2.264   6.256   9.304 -0.3319  0.9891 -0.2726
  183SLPC   H8Y21047   2.098   6.322   9.247  1.2634  1.8921  0.9038
  183SLPC   C3921048   2.121   6.103   9.236 -0.3115 -0.8136 -0.5487
  183SLPC   H9X21049   2.020   6.078   9.275 -0.9656  1.4141 -0.6484
  183SLPC   H9Y21050   2.201   6.031   9.262  1.1405 -0.1487 -2.8354
  183SLPC  C31021051   2.118   6.101   9.090 -0.9302  0.4552  0.4866
  183SLPC  H10X21052   2.217   6.136   9.054 -0.8831  1.3184  1.4045
  183SLPC  H10Y21053   2.035   6.162   9.048  0.9523 -0.2047 -4.9690
  183SLPC  C31121054   2.101   5.957   9.041  0.1347 -0.3147 -0.5037
  183SLPC  H11X21055   2.176   5.887   9.083 -0.3008 -1.8415 -2.1310
  183SLPC  H11Y21056   2.128   5.952   8.933 -1.2401  0.3908 -0.9142
  183SLPC  C31221057   1.953   5.909   9.051  1.0617 -0.4249 -0.1148
  183SLPC  H12X21058   1.885   5.979   8.999  0.8840  1.2669  2.2279
  183SLPC  H12Y21059   1.926   5.890   9.157  1.3329  0.5859  0.1403
  183SLPC  C31321060   1.926   5.773   8.979 -0.2687 -0.7233 -0.0749
  183SLPC  H13X21061   1.976   5.695   9.040 -1.3631 -0.6357  0.9713
  183SLPC  H13Y21062   1.957   5.779   8.872 -3.7682 -1.3253 -1.2423
  183SLPC  C31421063   1.783   5.720   8.977  0.0212  0.4696 -0.4570
  183SLPC  H14X21064   1.712   5.777   8.914 -1.5255 -1.7340 -0.8195
  183SLPC  H14Y21065   1.758   5.732   9.085 -0.1474  1.1701 -0.5716
  183SLPC  C31521066   1.776   5.569   8.936 -0.0155 -0.6938 -0.4853
  183SLPC  H15X21067   1.668   5.547   8.951  0.2381 -0.5384  1.8805
  183SLPC  H15Y21068   1.833   5.518   9.016 -1.0370  2.2003  2.2918
  183SLPC  C31621069   1.816   5.533   8.797  0.3564  0.2370  0.0845
  183SLPC  H16X21070   1.923   5.560   8.790  0.2682  0.3410 -0.9088
  183SLPC  H16Y21071   1.779   5.604   8.720  0.1542  0.0672  0.0232
  183SLPC  C31721072   1.801   5.385   8.756 -0.3054 -0.6364  0.5693
  183SLPC  H17X21073   1.818   5.386   8.647 -1.0361  0.4497  0.4529
  183SLPC  H17Y21074   1.702   5.343   8.783 -0.6515  0.7178  1.5018
  183SLPC  C31821075   1.905   5.286   8.823  0.1785 -0.2664 -0.3598
  183SLPC  H18X21076   1.897   5.189   8.769  3.1680  0.2847 -2.0375
  183SLPC  H18Y21077   1.888   5.272   8.931  1.5212  2.1866  0.2380
  183SLPC  H18Z21078   2.009   5.319   8.806  0.3832  0.9174  2.7520
  184SLPC     N21079   5.710   3.179  10.679  0.1447  0.5672  0.1543
  184SLPC   C1321080   5.660   3.195  10.825 -0.3363  0.4746  0.6328
  184SLPC  H13A21081   5.683   3.293  10.864 -0.8557  1.0700 -0.5099
  184SLPC  H13B21082   5.555   3.171  10.828  0.1335 -2.1800 -0.8010
  184SLPC  H13C21083   5.720   3.138  10.894  0.2700  2.2687  1.6706
  184SLPC   C1421084   5.637   3.274  10.586 -0.1451  0.2247 -0.4380
  184SLPC  H14A21085   5.667   3.263  10.483 -2.1327 -0.7647 -0.9681
  184SLPC  H14B21086   5.532   3.249  10.587 -0.4249  0.8777 -3.7659
  184SLPC  H14C21087   5.645   3.376  10.623 -1.9955  0.2309  0.0565
  184SLPC   C1521088   5.677   3.047  10.636  0.3747 -0.1471  0.0073
  184SLPC  H15A21089   5.709   3.026  10.535  0.4400  0.7234 -0.1566
  184SLPC  H15B21090   5.705   2.964  10.700 -1.4445 -2.9274 -2.5065
  184SLPC  H15C21091   5.569   3.047  10.632  0.3692 -0.9508  0.0177
  184SLPC   C1221092   5.857   3.217  10.676  0.6407  0.5359  0.0751
  184SLPC  H12A21093   5.918   3.154  10.740  1.7030  0.0311 -1.3840
  184SLPC  H12B21094   5.873   3.315  10.721  2.2190  0.4456 -0.2076
  184SLPC   C1121095   5.923   3.214  10.536 -0.3454  0.0850  0.4795
  184SLPC  H11A21096   5.889   3.305  10.481 -0.1884 -0.4398 -0.5121
  184SLPC  H11B21097   5.899   3.125  10.475 -3.1702  1.6914 -0.9621
  184SLPC     P21098   6.168   3.336  10.552  0.0960  0.1790 -0.1240
  184SLPC   O1321099   6.096   3.465  10.560  0.0292  0.1256  0.4901
  184SLPC   O1421100   6.282   3.315  10.636  0.1424  0.2903 -0.5871
  184SLPC   O1221101   6.064   3.222  10.573  0.3676  0.4658  0.0855
  184SLPC   O1121102   6.211   3.305  10.403  0.3744  0.1250 -0.5159
  184SLPC    C121103   6.245   3.168  10.361  0.1954  0.1044  0.2964
  184SLPC    HA21104   6.278   3.109  10.449 -0.1266  0.6878  0.8178
  184SLPC    HB21105   6.157   3.114  10.321 -0.4465 -0.1674  1.9795
  184SLPC    C221106   6.346   3.148  10.248 -0.1331 -0.6569  0.2139
  184SLPC    HS21107   6.448   3.177  10.282 -0.0303 -0.5275 -0.2022
  184SLPC   O2121108   6.306   3.222  10.127 -0.2946 -0.5163  0.3279
  184SLPC   C2121109   6.394   3.221  10.034  0.2124  0.0389  0.1446
  184SLPC   O2221110   6.508   3.178  10.047  0.4858  0.1930  0.4147
  184SLPC   C2221111   6.341   3.253   9.886 -0.2299  0.3698  0.2432
  184SLPC   H2R21112   6.305   3.157   9.843 -1.7337  1.2824 -0.6028
  184SLPC   H2S21113   6.262   3.330   9.900  0.6300  0.9465  2.4410
  184SLPC    C321114   6.353   2.988  10.209 -0.5328 -0.2218  0.3587
  184SLPC    HX21115   6.383   2.938  10.304  1.2657  0.7524  0.3462
  184SLPC    HY21116   6.434   2.964  10.137 -1.0350 -2.5332  0.4759
  184SLPC   O3121117   6.226   2.933  10.167 -0.2762 -1.1660 -0.1445
  184SLPC   C3121118   6.209   2.895  10.042  0.0388  0.7223 -0.3563
  184SLPC   O3221119   6.293   2.899   9.954 -0.6066  0.1410 -0.3341
  184SLPC   C3221120   6.073   2.828  10.028 -0.3391 -0.6321  0.0225
  184SLPC   H2X21121   6.002   2.896  10.080  0.6999 -0.9845  1.9724
  184SLPC   H2Y21122   6.058   2.734  10.086  0.0356 -0.1632  0.8988
  184SLPC   C2321123   6.462   3.290   9.794 -0.5994 -0.1472  1.2560
  184SLPC   H3R21124   6.553   3.231   9.814  0.0314  0.5225  0.4486
  184SLPC   H3S21125   6.490   3.395   9.817  1.4508  0.2925 -2.5084
  184SLPC   C2421126   6.422   3.271   9.644 -0.0027 -0.1004 -0.1771
  184SLPC   H4R21127   6.313   3.285   9.634  0.0039 -0.6140 -1.0970
  184SLPC   H4S21128   6.437   3.163   9.620  0.3209 -0.3472  1.0369
  184SLPC   C2521129   6.491   3.353   9.536  0.4738 -0.4788 -0.6256
  184SLPC   H5R21130   6.594   3.313   9.527  0.8155  0.3292 -0.4308
  184SLPC   H5S21131   6.494   3.456   9.578 -2.5430 -0.3157 -0.5889
  184SLPC   C2621132   6.417   3.339   9.399 -0.2011 -0.0966  0.0932
  184SLPC   H6R21133   6.477   3.391   9.320 -1.5989 -0.0958 -1.0111
  184SLPC   H6S21134   6.312   3.372   9.410 -1.6667 -4.0127 -0.4757
  184SLPC   C2721135   6.394   3.196   9.349 -0.7672 -0.2063  0.3458
  184SLPC   H7R21136   6.330   3.136   9.418 -0.7597 -1.1193 -0.4191
  184SLPC   H7S21137   6.494   3.148   9.343 -0.5883  0.3485 -1.4340
  184SLPC   C2821138   6.331   3.198   9.205  0.4980  0.3822  0.1396
  184SLPC   H8R21139   6.387   3.273   9.145  0.3020 -0.5912 -1.3006
  184SLPC   H8S21140   6.225   3.231   9.214  0.3677 -0.0892  0.3314
  184SLPC   C2921141   6.326   3.059   9.146 -1.1269 -0.2778 -0.9794
  184SLPC   H9R21142   6.265   2.988   9.203  0.1249 -1.2141 -0.7652
  184SLPC  C21021143   6.378   3.021   9.032  0.0342  1.0422 -0.0973
  184SLPC  H10R21144   6.363   2.917   8.999 -0.3498  0.7596  0.9506
  184SLPC  C21121145   6.467   3.107   8.944 -0.7792 -0.4708  0.1157
  184SLPC  H11R21146   6.443   3.213   8.967  0.1221  0.0547 -1.2449
  184SLPC  H11S21147   6.446   3.097   8.835 -2.4117  1.6126  0.1870
  184SLPC  C21221148   6.609   3.077   8.977 -0.3194  0.1838  1.4851
  184SLPC  H12R21149   6.637   3.119   9.075  1.2946 -0.9654  1.5508
  184SLPC  C21321150   6.710   3.037   8.890  0.0988  0.9145  0.3061
  184SLPC  H13R21151   6.812   3.020   8.927  0.6505  1.7021 -0.7792
  184SLPC  C21421152   6.685   2.996   8.745 -0.1197 -0.2038 -0.5483
  184SLPC  H14R21153   6.784   2.966   8.704  0.0054  1.1113 -1.2728
  184SLPC  H14S21154   6.659   3.086   8.686  0.7816 -0.4589 -1.3573
  184SLPC  C21521155   6.592   2.877   8.724  0.1470 -0.1450  0.5260
  184SLPC  H15R21156   6.566   2.874   8.616 -0.7779  1.8625  0.6325
  184SLPC  H15S21157   6.497   2.908   8.773  1.0062 -0.0723  2.2336
  184SLPC  C21621158   6.646   2.739   8.757 -0.4948 -0.0602 -0.2173
  184SLPC  H16R21159   6.681   2.738   8.862  0.0107  0.6558 -0.3710
  184SLPC  H16S21160   6.739   2.727   8.698 -1.3333  1.0230 -1.8186
  184SLPC  C21721161   6.544   2.618   8.733 -0.4645 -0.0875  0.3874
  184SLPC  H17R21162   6.450   2.651   8.782 -0.9985 -2.0138  0.7317
  184SLPC  H17S21163   6.584   2.526   8.780 -0.0439 -0.6298 -0.9818
  184SLPC  C21821164   6.515   2.581   8.589  0.0043 -0.1804 -0.5895
  184SLPC  H18R21165   6.598   2.527   8.540  0.3337 -0.0209 -0.2071
  184SLPC  H18S21166   6.498   2.669   8.523 -0.7902 -0.6986 -1.1035
  184SLPC  H18T21167   6.413   2.536   8.581 -1.5346  2.5454  1.8570
  184SLPC   C3321168   6.021   2.804   9.877 -0.3022  0.3374 -1.0234
  184SLPC   H3X21169   6.086   2.723   9.837  1.0575  0.7569  0.2619
  184SLPC   H3Y21170   6.032   2.903   9.829  0.2442  0.6421 -0.2956
  184SLPC   C3421171   5.873   2.773   9.873  0.2768  0.3255 -0.3058
  184SLPC   H4X21172   5.814   2.857   9.915 -0.2971  0.5967 -1.6006
  184SLPC   H4Y21173   5.854   2.681   9.933 -0.3368  0.1513 -0.7593
  184SLPC   C3521174   5.814   2.766   9.732 -0.2270 -0.3453  0.2653
  184SLPC   H5X21175   5.826   2.870   9.696  1.3904 -0.1879  1.1687
  184SLPC   H5Y21176   5.707   2.738   9.734 -0.6123  1.0601  0.3273
  184SLPC   C3621177   5.892   2.662   9.641  0.4844 -0.3765  0.3699
  184SLPC   H6X21178   5.902   2.568   9.699  1.1666  0.6887  2.0375
  184SLPC   H6Y21179   5.993   2.697   9.613 -0.1726  1.5582  0.2102
  184SLPC   C3721180   5.808   2.636   9.507 -0.5915  0.0617 -0.7346
  184SLPC   H7X21181   5.822   2.713   9.427 -0.5145  0.4280 -0.3697
  184SLPC   H7Y21182   5.703   2.648   9.542 -0.7013 -1.1263 -0.6224
  184SLPC   C3821183   5.849   2.506   9.439 -0.0438 -0.2324  0.2375
  184SLPC   H8X21184   5.840   2.414   9.501 -0.3111 -0.5796 -0.3061
  184SLPC   H8Y21185   5.955   2.528   9.416  0.1248  0.8536  1.9489
  184SLPC   C3921186   5.776   2.474   9.306  0.4661  0.1575 -1.3282
  184SLPC   H9X21187   5.772   2.567   9.245 -0.9213  1.0217  0.0037
  184SLPC   H9Y21188   5.674   2.445   9.340  0.0723  1.0546 -1.7068
  184SLPC  C31021189   5.823   2.356   9.228  0.3852  0.2440  0.7231
  184SLPC  H10X21190   5.843   2.266   9.290  0.6402 -0.0894  0.1641
  184SLPC  H10Y21191   5.920   2.392   9.188 -0.3789 -0.5733 -2.0690
  184SLPC  C31121192   5.732   2.314   9.103 -0.2868  0.3097 -0.2819
  184SLPC  H11X21193   5.709   2.412   9.056 -0.7686  0.5221  0.3762
  184SLPC  H11Y21194   5.642   2.262   9.142  1.0929 -2.8669 -1.0451
  184SLPC  C31221195   5.804   2.214   9.004  0.3124 -0.4242  0.1300
  184SLPC  H12X21196   5.809   2.116   9.055 -1.9357 -0.0898  1.0981
  184SLPC  H12Y21197   5.903   2.257   8.976 -0.4159  0.0037 -2.0009
  184SLPC  C31321198   5.713   2.198   8.880 -0.2056 -0.5845 -0.1959
  184SLPC  H13X21199   5.696   2.300   8.839  1.6247  1.1269  2.9448
  184SLPC  H13Y21200   5.617   2.146   8.903  0.8194 -1.7507  1.6862
  184SLPC  C31421201   5.767   2.101   8.769  0.4609  0.1468  0.0465
  184SLPC  H14X21202   5.816   2.025   8.835 -1.0495  0.2478  1.3447
  184SLPC  H14Y21203   5.845   2.160   8.716 -0.6624  2.1186  0.5187
  184SLPC  C31521204   5.665   2.056   8.671 -0.2716 -0.0769  0.1925
  184SLPC  H15X21205   5.599   2.131   8.621 -1.2007 -0.6617  0.5116
  184SLPC  H15Y21206   5.589   2.004   8.734  0.3323 -0.0056  0.9872
  184SLPC  C31621207   5.714   1.960   8.567  0.1843 -0.0279 -0.1999
  184SLPC  H16X21208   5.774   1.882   8.619 -2.0147 -2.5456 -1.1817
  184SLPC  H16Y21209   5.786   2.008   8.498 -0.4111 -0.3119 -1.0381
  184SLPC  C31721210   5.606   1.886   8.487 -0.7010  0.4193  0.1753
  184SLPC  H17X21211   5.571   1.951   8.404  0.3915 -0.6269 -1.1547
  184SLPC  H17Y21212   5.515   1.871   8.548 -0.0465 -0.8809  0.8640
  184SLPC  C31821213   5.659   1.754   8.411 -0.1608  0.1651 -0.1387
  184SLPC  H18X21214   5.766   1.769   8.387 -0.2760  0.9328 -0.1876
  184SLPC  H18Y21215   5.594   1.736   8.322  2.0312 -1.0506 -1.6039
  184SLPC  H18Z21216   5.658   1.666   8.478 -1.5063 -0.1843 -0.5724
  185SLPC     N21217   3.695   0.962   6.213  0.4387  0.3374  0.4222
  185SLPC   C1321218   3.828   0.926   6.152 -0.2659  0.0503  0.0452
  185SLPC  H13A21219   3.819   0.851   6.075  0.6663  0.3268 -0.3518
  185SLPC  H13B21220   3.862   1.018   6.108  0.7697  0.6903  2.0366
  185SLPC  H13C21221   3.898   0.903   6.231  0.6745 -0.9503 -1.0476
  185SLPC   C1421222   3.606   1.005   6.101 -0.8902  0.1811 -0.9346
  185SLPC  H14A21223   3.505   1.026   6.133 -0.2314  1.1685  0.5920
  185SLPC  H14B21224   3.648   1.088   6.046  1.3594  0.0203  0.3960
  185SLPC  H14C21225   3.591   0.919   6.037 -0.5673  0.1644 -0.9897
  185SLPC   C1521226   3.712   1.067   6.316 -0.4764  0.1142 -0.0787
  185SLPC  H15A21227   3.626   1.079   6.380 -0.3437  0.7542 -0.0209
  185SLPC  H15B21228   3.792   1.050   6.387  0.3525  2.7474 -0.2992
  185SLPC  H15C21229   3.737   1.165   6.279 -1.4394 -0.1205 -1.3984
  185SLPC   C1221230   3.642   0.834   6.281 -0.6422  0.5954 -0.7090
  185SLPC  H12A21231   3.562   0.855   6.350  0.3030 -1.8274  1.2835
  185SLPC  H12B21232   3.728   0.797   6.335 -1.3249  2.8463  2.0955
  185SLPC   C1121233   3.590   0.722   6.195  0.3176 -0.0666  0.3207
  185SLPC  H11A21234   3.651   0.708   6.104  2.0045  1.6334  1.1268
  185SLPC  H11B21235   3.487   0.745   6.159  0.4620 -0.8073 -0.6030
  185SLPC     P21236   3.690   0.500   6.297  0.0701  0.2583  0.2066
  185SLPC   O1321237   3.744   0.476   6.161 -0.1308 -0.2919  0.2578
  185SLPC   O1421238   3.782   0.551   6.396 -0.0202  0.0500  0.4479
  185SLPC   O1221239   3.570   0.597   6.277 -0.5058 -0.2265  0.4844
  185SLPC   O1121240   3.630   0.375   6.359  0.6589  0.1461 -0.3405
  185SLPC    C121241   3.487   0.356   6.393  0.1652 -0.1148 -0.5693
  185SLPC    HA21242   3.414   0.365   6.310 -1.0435 -3.9987 -0.1448
  185SLPC    HB21243   3.477   0.248   6.420  0.1309  0.2673  1.0443
  185SLPC    C221244   3.437   0.441   6.509  0.6435  0.6182  0.4524
  185SLPC    HS21245   3.457   0.544   6.475 -2.9460  1.1961 -0.3275
  185SLPC   O2121246   3.513   0.392   6.620 -0.3734 -0.0021  0.1630
  185SLPC   C2121247   3.600   0.478   6.670 -0.3634  0.4013  0.6479
  185SLPC   O2221248   3.600   0.598   6.636  0.5420 -0.0721  0.6024
  185SLPC   C2221249   3.704   0.412   6.759  0.4439 -0.2185  0.4170
  185SLPC   H2R21250   3.654   0.336   6.822  1.6154  0.2206  1.9499
  185SLPC   H2S21251   3.781   0.363   6.696  0.0853  0.5204 -0.6115
  185SLPC    C321252   3.287   0.417   6.537  0.0586 -0.1111 -0.2854
  185SLPC    HX21253   3.262   0.312   6.561 -1.4406  0.3064  0.1191
  185SLPC    HY21254   3.226   0.442   6.447 -0.3703  4.0081  0.9430
  185SLPC   O3121255   3.257   0.495   6.661  0.2352  0.4664  0.0401
  185SLPC   C3121256   3.236   0.624   6.627 -0.1109  0.4208  0.0145
  185SLPC   O3221257   3.213   0.672   6.520 -0.6499  0.8148  0.4785
  185SLPC   C3221258   3.206   0.703   6.748 -0.6054  0.1259 -0.1908
  185SLPC   H2X21259   3.261   0.800   6.740 -1.2537  0.4708 -0.5904
  185SLPC   H2Y21260   3.247   0.638   6.827  0.0675  0.0015 -0.6333
  185SLPC   C2321261   3.770   0.509   6.856  1.0331 -0.7577  0.1164
  185SLPC   H3R21262   3.689   0.560   6.912 -0.9390 -2.4160 -1.0667
  185SLPC   H3S21263   3.827   0.587   6.802  0.7075  0.1294  1.0240
  185SLPC   C2421264   3.870   0.438   6.942 -0.2895  0.6403  0.3036
  185SLPC   H4R21265   3.949   0.499   6.991 -1.6047  0.9211  2.1910
  185SLPC   H4S21266   3.921   0.359   6.884  1.2761  1.2619  0.7920
  185SLPC   C2521267   3.799   0.362   7.055 -0.2225 -0.2606  0.7360
  185SLPC   H5R21268   3.730   0.290   7.007  1.9176 -1.2704 -1.0349
  185SLPC   H5S21269   3.737   0.435   7.111 -0.0847  0.5056 -0.1003
  185SLPC   C2621270   3.906   0.275   7.130  0.3181 -0.5261  0.3513
  185SLPC   H6R21271   4.000   0.328   7.157  1.3219 -2.7712  1.5824
  185SLPC   H6S21272   3.935   0.175   7.090  0.5465 -1.0076  1.6632
  185SLPC   C2721273   3.835   0.236   7.258  0.0380  0.1868 -0.3838
  185SLPC   H7R21274   3.912   0.170   7.305 -0.2248  0.6401  0.7058
  185SLPC   H7S21275   3.740   0.180   7.242 -0.1813  0.5722 -0.4334
  185SLPC   C2821276   3.794   0.345   7.355 -0.6331 -0.5254  0.4045
  185SLPC   H8R21277   3.742   0.300   7.442 -3.6256 -1.7791 -1.8480
  185SLPC   H8S21278   3.722   0.414   7.306 -0.0937 -1.4358 -1.7771
  185SLPC   C2921279   3.907   0.430   7.418  0.3138  0.2937  0.2426
  185SLPC   H9R21280   3.928   0.523   7.364 -1.7495 -0.0723 -1.3160
  185SLPC  C21021281   3.990   0.394   7.515 -0.0916  0.1657 -0.1889
  185SLPC  H10R21282   4.075   0.459   7.538 -0.1243 -0.2651  1.2388
  185SLPC  C21121283   3.994   0.271   7.602 -0.3426  0.1940  0.4570
  185SLPC  H11R21284   4.095   0.264   7.649 -0.1484 -0.0461  0.0116
  185SLPC  H11S21285   4.006   0.183   7.535  1.2126  0.6791  0.0680
  185SLPC  C21221286   3.873   0.257   7.698 -0.4095 -0.2157 -0.4484
  185SLPC  H12R21287   3.801   0.340   7.691 -0.0158  0.3409  1.4219
  185SLPC  C21321288   3.871   0.163   7.790  0.0579 -0.1513  0.0095
  185SLPC  H13R21289   3.790   0.178   7.864  0.1052  0.9737 -0.1498
  185SLPC  C21421290   3.972   0.054   7.820 -0.1724 -0.4276  0.0042
  185SLPC  H14R21291   4.059   0.100   7.872  0.9269 -1.3306 -0.9789
  185SLPC  H14S21292   4.009   0.013   7.724 -0.0338  0.1208 -0.1834
  185SLPC  C21521293   3.914  -0.048   7.914  0.2775 -0.5820 -0.7906
  185SLPC  H15R21294   3.970  -0.141   7.888  0.6758 -0.5000 -0.2325
  185SLPC  H15S21295   3.808  -0.071   7.890  0.3960 -1.4990 -0.4702
  185SLPC  C21621296   3.925  -0.008   8.068 -0.0688  0.3067  0.3843
  185SLPC  H16R21297   3.884   0.091   8.098 -1.2751 -0.0210 -0.1334
  185SLPC  H16S21298   4.035  -0.015   8.082 -0.1249  1.2278  1.4257
  185SLPC  C21721299   3.851  -0.096   8.167 -0.5501 -0.0525  0.3025
  185SLPC  H17R21300   3.859  -0.203   8.137  0.6580 -0.2236  1.1742
  185SLPC  H17S21301   3.744  -0.073   8.147 -0.5252  0.5025  0.8005
  185SLPC  C21821302   3.879  -0.076   8.317 -0.1185  0.6905  0.0718
  185SLPC  H18R21303   3.983  -0.115   8.318 -0.1345  0.6632  0.5975
  185SLPC  H18S21304   3.815  -0.130   8.389  0.4051  2.0615  1.6148
  185SLPC  H18T21305   3.892   0.032   8.341 -0.6502  0.8941 -0.5395
  185SLPC   C3321306   3.055   0.739   6.772 -0.7493 -0.5597 -0.4964
  185SLPC   H3X21307   3.014   0.802   6.691 -2.0975  0.7592  1.1437
  185SLPC   H3Y21308   3.062   0.810   6.857  1.7980  0.1726 -1.2221
  185SLPC   C3421309   2.981   0.613   6.779  0.9549 -0.3476  0.2919
  185SLPC   H4X21310   3.026   0.534   6.843  0.1732 -1.9069 -0.9998
  185SLPC   H4Y21311   2.986   0.567   6.678  1.6194  0.6534 -0.1418
  185SLPC   C3521312   2.835   0.636   6.832 -0.4684 -0.0284 -0.5094
  185SLPC   H5X21313   2.791   0.725   6.782 -0.7421 -1.2550 -2.5443
  185SLPC   H5Y21314   2.848   0.650   6.941 -1.1342  1.8928 -0.6265
  185SLPC   C3621315   2.749   0.510   6.809 -0.2789 -0.4282 -0.2369
  185SLPC   H6X21316   2.792   0.413   6.843 -2.2752 -1.4951 -0.5833
  185SLPC   H6Y21317   2.737   0.518   6.699  1.4409  0.4967 -0.3910
  185SLPC   C3721318   2.607   0.518   6.876 -0.7345  0.5330 -0.2994
  185SLPC   H7X21319   2.532   0.587   6.832 -1.4871  0.8810  1.4280
  185SLPC   H7Y21320   2.614   0.546   6.983 -1.0853  0.9442 -0.3804
  185SLPC   C3821321   2.546   0.373   6.875 -0.2119  0.2880 -0.3174
  185SLPC   H8X21322   2.612   0.325   6.951  0.5048  0.1075 -1.0348
  185SLPC   H8Y21323   2.568   0.327   6.776  3.3041  0.5433  0.1999
  185SLPC   C3921324   2.394   0.368   6.907 -0.5852  0.1979 -0.3521
  185SLPC   H9X21325   2.372   0.259   6.912 -0.7229  0.0885 -2.4666
  185SLPC   H9Y21326   2.332   0.412   6.826  0.8481  1.4746 -0.7985
  185SLPC  C31021327   2.358   0.432   7.043 -0.7557 -0.6675 -0.0288
  185SLPC  H10X21328   2.247   0.434   7.048 -0.7451 -0.3671  4.3354
  185SLPC  H10Y21329   2.386   0.539   7.038 -1.0275 -0.5929  0.0544
  185SLPC  C31121330   2.433   0.378   7.168 -0.3225 -0.1172  0.2899
  185SLPC  H11X21331   2.541   0.402   7.163 -0.5353  0.7554 -3.4422
  185SLPC  H11Y21332   2.415   0.269   7.165 -1.8894  0.1275 -0.8025
  185SLPC  C31221333   2.372   0.426   7.300  0.2085 -0.3819 -0.4824
  185SLPC  H12X21334   2.263   0.407   7.310  0.0112  1.4532  1.6392
  185SLPC  H12Y21335   2.380   0.535   7.318  0.0800 -0.2831 -1.0130
  185SLPC  C31321336   2.432   0.349   7.419 -0.2775  0.1575 -0.4855
  185SLPC  H13X21337   2.543   0.360   7.419 -0.1189 -1.0574 -2.1531
  185SLPC  H13Y21338   2.406   0.243   7.401  0.5685 -0.0591 -0.4692
  185SLPC  C31421339   2.373   0.390   7.553  0.6497  0.4012  0.1346
  185SLPC  H14X21340   2.263   0.370   7.549  0.5181  1.2620 -1.4086
  185SLPC  H14Y21341   2.391   0.498   7.566 -0.2133  0.7624 -1.3527
  185SLPC  C31521342   2.429   0.305   7.670 -1.0053  0.0284 -0.2844
  185SLPC  H15X21343   2.536   0.299   7.640 -0.6471  2.3154  0.3165
  185SLPC  H15Y21344   2.384   0.205   7.655  0.4903 -0.8214  0.5647
  185SLPC  C31621345   2.404   0.360   7.812  0.6022 -1.1158  0.5350
  185SLPC  H16X21346   2.432   0.467   7.808 -1.7431 -0.4510 -0.3598
  185SLPC  H16Y21347   2.442   0.305   7.900 -0.9530  0.0707  2.0107
  185SLPC  C31721348   2.248   0.363   7.837 -0.1726  0.1726  0.0739
  185SLPC  H17X21349   2.220   0.256   7.828  1.6096 -0.1329 -3.8098
  185SLPC  H17Y21350   2.189   0.413   7.758  0.3796 -0.1717 -0.5697
  185SLPC  C31821351   2.207   0.425   7.964  0.7280  0.7674 -0.3658
  185SLPC  H18X21352   2.272   0.512   7.991  1.5085 -0.4245  1.9042
  185SLPC  H18Y21353   2.221   0.357   8.050 -1.9678  2.4265  1.5307
  185SLPC  H18Z21354   2.098   0.443   7.962  0.4496 -0.4489  1.6043
  186SLPC     N21355   4.516   2.248   6.113 -0.1241  0.5199  0.2026
  186SLPC   C1321356   4.581   2.300   5.992  0.6148 -0.0202  0.1952
  186SLPC  H13A21357   4.577   2.223   5.917 -1.1920 -1.2440  1.4871
  186SLPC  H13B21358   4.530   2.382   5.943 -0.8652 -0.7294  0.5203
  186SLPC  H13C21359   4.686   2.324   6.006  0.3792  0.7177  0.7709
  186SLPC   C1421360   4.573   2.108   6.152  0.5814  0.8971  0.6900
  186SLPC  H14A21361   4.516   2.057   6.228 -0.0816 -0.4601 -0.6458
  186SLPC  H14B21362   4.571   2.034   6.073  1.4808  1.4549  0.1257
  186SLPC  H14C21363   4.679   2.125   6.165  1.2467 -2.1312  0.0616
  186SLPC   C1521364   4.366   2.236   6.090 -0.1233 -0.1923  0.0862
  186SLPC  H15A21365   4.322   2.187   6.176 -1.3620  1.4670  0.4425
  186SLPC  H15B21366   4.319   2.332   6.077  0.8876  0.4196  0.8540
  186SLPC  H15C21367   4.339   2.175   6.004 -1.8800  1.7498 -0.8360
  186SLPC   C1221368   4.550   2.341   6.225 -0.2168 -0.5330 -0.1342
  186SLPC  H12A21369   4.646   2.388   6.208 -1.2716  3.4745  3.2120
  186SLPC  H12B21370   4.564   2.283   6.315  1.6849 -1.4229 -0.9486
  186SLPC   C1121371   4.468   2.470   6.241 -0.1339  0.1975 -0.8678
  186SLPC  H11A21372   4.493   2.523   6.336  1.2405 -2.0557  0.1001
  186SLPC  H11B21373   4.357   2.460   6.243 -0.1941  0.8940  0.6070
  186SLPC     P21374   4.626   2.638   6.123 -0.2736 -0.5914  0.5031
  186SLPC   O1321375   4.756   2.555   6.125 -0.4697 -0.1898 -0.3366
  186SLPC   O1421376   4.611   2.730   6.003  0.3497 -0.3003 -0.3799
  186SLPC   O1221377   4.497   2.554   6.136  0.6260  0.1387 -0.2507
  186SLPC   O1121378   4.622   2.722   6.254 -0.0659 -0.0352  0.0419
  186SLPC    C121379   4.585   2.860   6.252  0.6081  0.6186  0.2778
  186SLPC    HA21380   4.496   2.879   6.187  1.0170  0.4905 -0.3250
  186SLPC    HB21381   4.555   2.901   6.350 -2.5422  0.7706 -0.6361
  186SLPC    C221382   4.698   2.946   6.193  0.2531 -0.3538  0.1464
  186SLPC    HS21383   4.724   2.915   6.090 -0.3602 -0.9776  0.1617
  186SLPC   O2121384   4.813   2.928   6.286 -0.0625  0.1498  1.0771
  186SLPC   C2121385   4.923   2.967   6.232  0.1352  0.7411 -0.5431
  186SLPC   O2221386   4.936   3.012   6.118  0.8920 -0.5533 -0.0052
  186SLPC   C2221387   5.041   2.950   6.332  0.0522  0.0968  0.1588
  186SLPC   H2R21388   5.075   2.850   6.299 -0.9743  0.1013 -1.0021
  186SLPC   H2S21389   5.123   3.020   6.303  0.6025 -0.7447 -0.3590
  186SLPC    C321390   4.659   3.097   6.197 -0.0935 -0.1878  0.4170
  186SLPC    HX21391   4.578   3.111   6.122  0.0433 -0.1299  0.2801
  186SLPC    HY21392   4.737   3.168   6.162 -0.3066  1.4304  2.9359
  186SLPC   O3121393   4.608   3.134   6.326 -0.6205  0.1880 -0.1666
  186SLPC   C3121394   4.651   3.252   6.369  0.2936 -0.4513 -0.5463
  186SLPC   O3221395   4.727   3.328   6.316 -0.2441 -0.1074  0.6594
  186SLPC   C3221396   4.590   3.278   6.507 -0.1895 -0.6681  1.0392
  186SLPC   H2X21397   4.652   3.213   6.572  0.8145  0.4825  1.2826
  186SLPC   H2Y21398   4.491   3.229   6.511  0.3788 -2.0401 -0.6144
  186SLPC   C2321399   5.008   2.937   6.475  0.0285  0.1155  0.1490
  186SLPC   H3R21400   5.099   2.912   6.533 -1.5279  0.6191  3.0066
  186SLPC   H3S21401   4.934   2.860   6.505 -1.6350  1.3759 -0.5504
  186SLPC   C2421402   4.961   3.066   6.536 -0.8362 -0.1674  0.3550
  186SLPC   H4R21403   4.869   3.114   6.495 -0.2475  1.0742  0.4350
  186SLPC   H4S21404   5.050   3.129   6.514 -0.6217 -0.5890 -0.0003
  186SLPC   C2521405   4.942   3.058   6.694  0.5944 -0.0121  1.2252
  186SLPC   H5R21406   4.863   2.982   6.710 -0.5777  0.3983 -2.0360
  186SLPC   H5S21407   4.907   3.158   6.726  0.6144 -0.2278  1.9573
  186SLPC   C2621408   5.067   3.009   6.768  0.1698  0.0871 -1.0147
  186SLPC   H6R21409   5.146   3.061   6.709  0.4139  0.6227 -0.2261
  186SLPC   H6S21410   5.082   2.900   6.783 -0.8263  0.2074  1.2793
  186SLPC   C2721411   5.091   3.074   6.906  0.2162  0.6644 -0.4148
  186SLPC   H7R21412   5.013   3.031   6.972 -0.3881  0.4362 -1.2602
  186SLPC   H7S21413   5.084   3.185   6.904  0.0695  0.6459 -1.3004
  186SLPC   C2821414   5.230   3.044   6.965 -0.0812  0.3692  0.2580
  186SLPC   H8R21415   5.300   3.113   6.913 -1.5482  0.6703 -1.4208
  186SLPC   H8S21416   5.256   2.939   6.941  0.2487 -0.4246  3.6245
  186SLPC   C2921417   5.225   3.070   7.112 -0.1102  0.4570 -0.3159
  186SLPC   H9R21418   5.155   3.006   7.168  0.5371  0.3560  0.3948
  186SLPC  C21021419   5.293   3.165   7.176 -0.2858 -0.3620 -0.0753
  186SLPC  H10R21420   5.291   3.169   7.286 -0.7410  0.6833 -0.1101
  186SLPC  C21121421   5.387   3.264   7.116  0.7137 -0.2851  0.2181
  186SLPC  H11R21422   5.421   3.245   7.011 -0.7262 -2.2108  0.0502
  186SLPC  H11S21423   5.481   3.244   7.172  0.9058  1.9499  0.7995
  186SLPC  C21221424   5.353   3.411   7.137  0.1736 -0.0805 -0.7455
  186SLPC  H12R21425   5.323   3.474   7.052  0.1968 -3.1318 -3.1781
  186SLPC  C21321426   5.356   3.483   7.255 -0.2848 -0.7275  0.5409
  186SLPC  H13R21427   5.328   3.589   7.245  1.1484 -0.3443  0.3832
  186SLPC  C21421428   5.413   3.434   7.389 -0.4308 -0.2773 -0.1052
  186SLPC  H14R21429   5.476   3.508   7.444 -3.5730  1.8490  0.8697
  186SLPC  H14S21430   5.485   3.352   7.368  2.1650  1.9289 -0.3861
  186SLPC  C21521431   5.308   3.393   7.490 -0.4100  0.3286 -0.0108
  186SLPC  H15R21432   5.224   3.328   7.458 -1.1915  0.4719  1.6707
  186SLPC  H15S21433   5.253   3.482   7.527  0.1547  0.4216  0.6212
  186SLPC  C21621434   5.369   3.295   7.595  0.3298  0.0558 -0.6959
  186SLPC  H16R21435   5.447   3.232   7.547 -0.6289 -0.8572 -1.1156
  186SLPC  H16S21436   5.290   3.222   7.623  2.1908 -1.9603 -0.4755
  186SLPC  C21721437   5.450   3.360   7.709  0.2317 -0.2155 -0.5006
  186SLPC  H17R21438   5.390   3.436   7.764  0.0914 -1.3147  0.9350
  186SLPC  H17S21439   5.542   3.405   7.667  1.6504 -1.2645  1.3337
  186SLPC  C21821440   5.512   3.255   7.807 -0.1760 -0.2072 -0.9802
  186SLPC  H18R21441   5.445   3.168   7.824  0.6503 -0.5531  0.6244
  186SLPC  H18S21442   5.525   3.300   7.907  1.4332 -1.1020 -0.7549
  186SLPC  H18T21443   5.608   3.219   7.766 -0.6528 -0.5948 -1.7867
  186SLPC   C3321444   4.583   3.426   6.562 -0.1420  0.5812 -0.4570
  186SLPC   H3X21445   4.517   3.482   6.491 -1.2611 -1.2869 -0.9596
  186SLPC   H3Y21446   4.683   3.475   6.556 -0.1106  0.8921  1.8901
  186SLPC   C3421447   4.540   3.428   6.711  1.1223  0.5852  0.3468
  186SLPC   H4X21448   4.451   3.366   6.732  1.6570  0.0812  1.1820
  186SLPC   H4Y21449   4.512   3.533   6.737  0.6767  0.4747  0.3143
  186SLPC   C3521450   4.653   3.388   6.815 -0.3938 -0.2692 -0.0135
  186SLPC   H5X21451   4.735   3.461   6.796  0.5224 -0.7249  1.9167
  186SLPC   H5Y21452   4.687   3.286   6.787 -3.6150 -0.9347 -2.0365
  186SLPC   C3621453   4.612   3.400   6.967 -0.5658 -0.0976  0.4034
  186SLPC   H6X21454   4.520   3.342   6.989 -2.1009  1.3095 -1.8120
  186SLPC   H6Y21455   4.601   3.510   6.981  1.5254 -0.1041  2.7948
  186SLPC   C3721456   4.727   3.349   7.051 -0.2680 -0.4113  0.7701
  186SLPC   H7X21457   4.819   3.406   7.026 -0.7119 -0.9173 -2.3421
  186SLPC   H7Y21458   4.749   3.244   7.024 -1.6206 -0.2668 -1.0810
  186SLPC   C3821459   4.707   3.356   7.199  0.0396 -0.4015 -0.1928
  186SLPC   H8X21460   4.611   3.306   7.224  0.8844 -0.8983  2.4328
  186SLPC   H8Y21461   4.695   3.457   7.244 -0.2988 -0.2107 -0.7046
  186SLPC   C3921462   4.810   3.288   7.290 -0.1519  0.3680  0.7014
  186SLPC   H9X21463   4.909   3.338   7.285 -0.0097  0.1723  1.4046
  186SLPC   H9Y21464   4.831   3.184   7.257 -1.0693  1.1574 -2.7191
  186SLPC  C31021465   4.765   3.285   7.432 -0.2469  0.4223 -0.2019
  186SLPC  H10X21466   4.719   3.185   7.442  0.3587  0.3770  3.0433
  186SLPC  H10Y21467   4.696   3.368   7.458 -0.1870  0.2393  0.5627
  186SLPC  C31121468   4.880   3.311   7.539 -0.1578 -0.3818  0.8324
  186SLPC  H11X21469   4.934   3.402   7.504 -0.2100 -0.4455  0.5886
  186SLPC  H11Y21470   4.943   3.220   7.529 -0.0213 -0.1738 -0.3087
  186SLPC  C31221471   4.835   3.330   7.680  0.0561 -0.0614 -0.0814
  186SLPC  H12X21472   4.787   3.238   7.721  1.0850 -0.2660  0.7152
  186SLPC  H12Y21473   4.767   3.415   7.701 -0.5870 -0.4653 -0.4620
  186SLPC  C31321474   4.959   3.359   7.762  0.3595 -1.3177 -0.3756
  186SLPC  H13X21475   4.914   3.397   7.856 -0.3202 -3.9572  0.4522
  186SLPC  H13Y21476   5.016   3.446   7.722 -0.8631  0.4641  1.5182
  186SLPC  C31421477   5.034   3.226   7.793  0.3680 -0.2679  0.4204
  186SLPC  H14X21478   5.076   3.196   7.694 -2.0276 -1.3785 -0.3524
  186SLPC  H14Y21479   4.974   3.139   7.829 -0.0732 -0.4783 -0.7792
  186SLPC  C31521480   5.155   3.257   7.881  0.2769  0.3505  1.2274
  186SLPC  H15X21481   5.175   3.363   7.854  0.2720 -0.5888 -3.1779
  186SLPC  H15Y21482   5.231   3.181   7.852  0.8290  1.3630 -0.0780
  186SLPC  C31621483   5.123   3.227   8.026 -0.3674 -0.1492  0.3107
  186SLPC  H16X21484   5.103   3.118   8.037  0.9796 -0.2513  2.2796
  186SLPC  H16Y21485   5.025   3.269   8.060  0.0394  0.1945  1.0881
  186SLPC  C31721486   5.237   3.277   8.120 -0.6267 -0.4492  0.1234
  186SLPC  H17X21487   5.328   3.214   8.108  0.9991  1.5834  1.1542
  186SLPC  H17Y21488   5.202   3.256   8.224 -0.7703 -0.2234  0.1220
  186SLPC  C31821489   5.271   3.427   8.113  0.0339  0.0865  0.5325
  186SLPC  H18X21490   5.345   3.461   8.188  0.6463 -1.1947  0.5339
  186SLPC  H18Y21491   5.173   3.478   8.127 -0.7359 -0.9832 -0.7706
  186SLPC  H18Z21492   5.306   3.467   8.015 -0.7995  1.8982  0.9220
  187SLPC     N21493   5.935   0.573   6.225  0.2946 -0.2042  0.3391
  187SLPC   C1321494   5.900   0.448   6.301 -0.2359 -0.0454  0.2816
  187SLPC  H13A21495   5.978   0.374   6.310 -1.9689 -1.8768  1.1233
  187SLPC  H13B21496   5.851   0.471   6.395  0.6144  1.3440  0.4102
  187SLPC  H13C21497   5.818   0.399   6.250 -0.5028 -1.2707  1.7927
  187SLPC   C1421498   5.969   0.518   6.091 -0.0298  0.0475  0.1654
  187SLPC  H14A21499   5.878   0.480   6.049 -1.0164  0.1568  2.0678
  187SLPC  H14B21500   5.995   0.595   6.020  0.3280 -2.1230 -2.1871
  187SLPC  H14C21501   6.037   0.434   6.097 -0.7533 -0.4633  3.9862
  187SLPC   C1521502   6.043   0.641   6.293  0.6188  0.1876 -0.1968
  187SLPC  H15A21503   6.134   0.586   6.274  1.8159  0.8846  2.8700
  187SLPC  H15B21504   6.053   0.741   6.252 -1.5726 -0.5810 -2.8580
  187SLPC  H15C21505   6.020   0.655   6.398  0.5267 -1.3930  0.0096
  187SLPC   C1221506   5.802   0.656   6.215 -0.2567 -0.1332  0.7019
  187SLPC  H12A21507   5.735   0.601   6.151  0.9368 -2.0429  0.9998
  187SLPC  H12B21508   5.836   0.746   6.168  0.6051 -0.0483  1.4594
  187SLPC   C1121509   5.731   0.701   6.338 -0.2456 -0.9063 -0.5118
  187SLPC  H11A21510   5.699   0.613   6.397  1.4163 -0.5314  1.0385
  187SLPC  H11B21511   5.645   0.761   6.302 -1.1226 -0.6675  1.8601
  187SLPC     P21512   5.846   0.936   6.382  0.2575 -0.3021  0.0656
  187SLPC   O1321513   5.918   0.938   6.255  0.4778  0.0110  0.0753
  187SLPC   O1421514   5.721   1.017   6.390  0.4556 -0.0210 -0.1081
  187SLPC   O1221515   5.812   0.788   6.420 -0.3297  0.0436 -0.1589
  187SLPC   O1121516   5.951   0.972   6.492  0.2550  0.0105 -0.3321
  187SLPC    C121517   5.904   0.993   6.624 -0.2516 -0.0934 -0.0593
  187SLPC    HA21518   5.802   0.956   6.648 -0.4935  1.5337  1.5962
  187SLPC    HB21519   5.970   0.945   6.699 -1.9529 -1.0363  0.8840
  187SLPC    C221520   5.902   1.148   6.643 -0.1681  0.6286 -0.2728
  187SLPC    HS21521   5.863   1.197   6.552 -2.1621 -0.1965  0.0873
  187SLPC   O2121522   6.036   1.194   6.678  0.3601 -0.0482  0.1907
  187SLPC   C2121523   6.065   1.319   6.635  0.0864  1.0279 -0.5046
  187SLPC   O2221524   5.994   1.382   6.561 -0.4083 -0.2885 -0.1549
  187SLPC   C2221525   6.202   1.365   6.679  0.5646  0.3824  0.4386
  187SLPC   H2R21526   6.230   1.320   6.777 -3.5146 -2.2352  0.6327
  187SLPC   H2S21527   6.269   1.329   6.598  0.9761 -0.6154  1.2131
  187SLPC    C321528   5.799   1.185   6.756  0.2155  0.8410 -0.0117
  187SLPC    HX21529   5.836   1.125   6.842 -1.1507  3.0288  2.2141
  187SLPC    HY21530   5.705   1.129   6.735  1.2873 -1.5451  1.1285
  187SLPC   O3121531   5.788   1.323   6.798  0.6983 -0.5426  0.7179
  187SLPC   C3121532   5.717   1.384   6.698 -0.3232  0.1908 -0.7891
  187SLPC   O3221533   5.678   1.329   6.598 -0.3426 -0.1460 -0.4526
  187SLPC   C3221534   5.674   1.526   6.720 -0.3565  0.0337 -0.0271
  187SLPC   H2X21535   5.665   1.584   6.625  1.5132  4.5539  2.2702
  187SLPC   H2Y21536   5.751   1.582   6.778 -0.3292 -0.9699  0.9199
  187SLPC   C2321537   6.219   1.516   6.694  0.3521 -0.1516 -0.7333
  187SLPC   H3R21538   6.145   1.571   6.631 -2.0265  0.0417  2.0126
  187SLPC   H3S21539   6.321   1.550   6.667 -0.2255  0.2583 -2.5713
  187SLPC   C2421540   6.187   1.556   6.836 -0.3224  0.4712  0.1876
  187SLPC   H4R21541   6.205   1.665   6.843 -2.0444  0.8453 -0.7352
  187SLPC   H4S21542   6.254   1.492   6.898 -0.2332  0.7848  0.4156
  187SLPC   C2521543   6.046   1.535   6.885  0.3752  0.5417  0.4576
  187SLPC   H5R21544   6.021   1.427   6.881  0.4155  0.2096  4.4670
  187SLPC   H5S21545   5.976   1.590   6.818 -1.1573 -1.5709  0.2463
  187SLPC   C2621546   6.031   1.586   7.027  0.2484 -0.7496 -0.7479
  187SLPC   H6R21547   6.048   1.696   7.025  0.5122 -0.7948 -1.8945
  187SLPC   H6S21548   6.114   1.537   7.081  0.9831  1.9336  0.7437
  187SLPC   C2721549   5.893   1.541   7.084 -0.6047  0.3030  0.8369
  187SLPC   H7R21550   5.873   1.440   7.043 -1.3972  1.4249 -1.7116
  187SLPC   H7S21551   5.824   1.610   7.031 -0.0726  0.7804  0.7537
  187SLPC   C2821552   5.864   1.547   7.231 -0.2374 -0.4984  0.3849
  187SLPC   H8R21553   5.757   1.561   7.255  0.1218  2.0579  0.8303
  187SLPC   H8S21554   5.919   1.632   7.278  3.3352 -1.5435 -1.5483
  187SLPC   C2921555   5.908   1.417   7.296  0.1081 -1.5036  0.0619
  187SLPC   H9R21556   6.018   1.411   7.295  0.4304  1.9172  1.7596
  187SLPC  C21021557   5.833   1.319   7.351  0.0914  0.3807  0.3199
  187SLPC  H10R21558   5.880   1.226   7.388 -1.9237 -0.8385 -0.0446
  187SLPC  C21121559   5.686   1.315   7.364 -0.3888  0.1505  0.1021
  187SLPC  H11R21560   5.657   1.422   7.354 -0.5050  0.1936  0.8472
  187SLPC  H11S21561   5.669   1.299   7.473 -0.8504  3.4140  0.6178
  187SLPC  C21221562   5.610   1.216   7.276  0.0192 -0.2602 -0.0593
  187SLPC  H12R21563   5.646   1.203   7.173  2.9180 -0.9826  0.9585
  187SLPC  C21321564   5.515   1.140   7.330 -0.1931 -0.1201 -0.0094
  187SLPC  H13R21565   5.472   1.064   7.262 -0.3057  0.0721 -0.1555
  187SLPC  C21421566   5.459   1.138   7.467  0.0866 -0.3200 -0.0790
  187SLPC  H14R21567   5.350   1.142   7.446  0.5710 -0.0444 -2.8849
  187SLPC  H14S21568   5.478   1.238   7.511  0.6832  0.0514 -1.1496
  187SLPC  C21521569   5.506   1.034   7.571  0.5108 -0.4937  0.0020
  187SLPC  H15R21570   5.614   1.056   7.582  0.2363  1.3081 -0.4997
  187SLPC  H15S21571   5.479   0.934   7.530 -1.8125 -0.1706  0.5635
  187SLPC  C21621572   5.436   1.057   7.711  0.5166  0.5490 -0.5577
  187SLPC  H16R21573   5.411   0.961   7.760 -0.1238  0.4631 -1.0492
  187SLPC  H16S21574   5.336   1.101   7.692  0.3734  1.0834  1.2404
  187SLPC  C21721575   5.517   1.155   7.801  0.4465  0.3800 -0.1373
  187SLPC  H17R21576   5.542   1.250   7.748 -1.1827  1.0568  0.2462
  187SLPC  H17S21577   5.616   1.117   7.832 -0.2037 -1.0662  0.2600
  187SLPC  C21821578   5.427   1.194   7.924 -0.3592 -0.3544 -0.0046
  187SLPC  H18R21579   5.323   1.213   7.889 -0.8604  0.0204  1.6286
  187SLPC  H18S21580   5.481   1.282   7.967  1.7873 -2.2907  1.5039
  187SLPC  H18T21581   5.425   1.117   8.004  0.4038  1.3619  1.7419
  187SLPC   C3321582   5.536   1.536   6.790 -0.6647 -0.7015  0.1919
  187SLPC   H3X21583   5.465   1.467   6.739 -0.2187  0.7194 -2.5967
  187SLPC   H3Y21584   5.484   1.632   6.767 -0.7849 -0.8494 -0.1707
  187SLPC   C3421585   5.534   1.507   6.943  0.2873  0.6038 -0.1702
  187SLPC   H4X21586   5.605   1.575   6.994  1.1144  0.8113 -1.5817
  187SLPC   H4Y21587   5.571   1.404   6.962 -0.2978  0.6107  1.1302
  187SLPC   C3521588   5.386   1.525   6.995 -0.2886  0.0426  0.4801
  187SLPC   H5X21589   5.319   1.461   6.932 -1.3993  0.6745  0.9972
  187SLPC   H5Y21590   5.354   1.629   6.976  1.5396  0.6072  0.3281
  187SLPC   C3621591   5.372   1.497   7.142 -0.6477 -0.3086 -0.9529
  187SLPC   H6X21592   5.427   1.569   7.206 -2.1568  0.0211  0.0297
  187SLPC   H6Y21593   5.407   1.394   7.167 -0.0648  0.2320  0.5605
  187SLPC   C3721594   5.223   1.515   7.185  0.4554  0.2206  0.8750
  187SLPC   H7X21595   5.182   1.596   7.120  2.7461  0.6010 -0.2388
  187SLPC   H7Y21596   5.155   1.435   7.150  0.6810  1.1920 -2.1774
  187SLPC   C3821597   5.199   1.541   7.330  0.2933 -0.1655 -0.5138
  187SLPC   H8X21598   5.095   1.512   7.357  0.1529  2.1158  1.7803
  187SLPC   H8Y21599   5.220   1.643   7.369  2.3742 -0.8494  0.3115
  187SLPC   C3921600   5.277   1.443   7.420  0.2120  0.1985  0.1713
  187SLPC   H9X21601   5.387   1.444   7.406  0.0133 -0.5114 -1.6590
  187SLPC   H9Y21602   5.262   1.343   7.375 -1.7639 -0.0379  1.2345
  187SLPC  C31021603   5.233   1.439   7.570  0.5026  1.1902 -0.4950
  187SLPC  H10X21604   5.230   1.334   7.603  0.3868  1.5980  0.8408
  187SLPC  H10Y21605   5.127   1.471   7.583  0.7947  2.1904 -0.4754
  187SLPC  C31121606   5.326   1.534   7.660 -0.0365  0.6342 -0.1732
  187SLPC  H11X21607   5.347   1.629   7.608  1.7535  0.9227  0.9707
  187SLPC  H11Y21608   5.424   1.486   7.679  0.8998  2.8407  0.9127
  187SLPC  C31221609   5.264   1.553   7.804 -1.1384  0.3472  0.0384
  187SLPC  H12X21610   5.269   1.452   7.850  0.2521  1.1116  1.6389
  187SLPC  H12Y21611   5.156   1.573   7.792 -1.4150 -0.7304  0.5627
  187SLPC  C31321612   5.331   1.657   7.886 -0.0197  0.0211 -0.1591
  187SLPC  H13X21613   5.313   1.752   7.832 -0.6227  0.7375  1.2497
  187SLPC  H13Y21614   5.437   1.629   7.907  0.2365  1.9055  1.3706
  187SLPC  C31421615   5.274   1.681   8.033  0.3536  0.0552 -0.3384
  187SLPC  H14X21616   5.277   1.587   8.091 -1.4148  0.7541  0.9908
  187SLPC  H14Y21617   5.170   1.721   8.030  0.5172  0.4766 -0.6052
  187SLPC  C31521618   5.361   1.785   8.113 -0.0244 -0.3947  0.2915
  187SLPC  H15X21619   5.397   1.868   8.049  0.4050  0.0488  1.0918
  187SLPC  H15Y21620   5.450   1.729   8.150  1.2928  0.1273 -1.8694
  187SLPC  C31621621   5.276   1.842   8.231 -0.0091  0.6020 -0.3217
  187SLPC  H16X21622   5.180   1.885   8.197 -0.0181  1.3554  0.6016
  187SLPC  H16Y21623   5.340   1.920   8.278  1.2113 -1.3126  1.4063
  187SLPC  C31721624   5.244   1.740   8.341  0.0989 -1.1188 -0.4984
  187SLPC  H17X21625   5.336   1.692   8.382  0.1693 -0.8316 -0.3153
  187SLPC  H17Y21626   5.182   1.660   8.294  0.5780 -0.6233 -2.0365
  187SLPC  C31821627   5.165   1.801   8.458  0.1193  0.8776  0.0437
  187SLPC  H18X21628   5.068   1.840   8.423 -1.4893 -0.4151  2.6814
  187SLPC  H18Y21629   5.225   1.875   8.516  3.8307 -3.2901  2.2233
  187SLPC  H18Z21630   5.130   1.722   8.528  0.6944  0.1865 -0.4377
  188SLPC     N21631   0.267   1.307   5.844  0.0701  0.0504 -0.0116
  188SLPC   C1321632   0.162   1.387   5.918 -0.4187 -0.5348 -0.0200
  188SLPC  H13A21633   0.211   1.471   5.965  1.2555 -0.7481 -1.2999
  188SLPC  H13B21634   0.093   1.423   5.843 -1.2990  2.4782  2.0377
  188SLPC  H13C21635   0.123   1.330   6.002  0.7780 -1.3858 -0.0248
  188SLPC   C1421636   0.316   1.398   5.735  0.0967  0.3278  1.1277
  188SLPC  H14A21637   0.365   1.487   5.773  0.3852 -0.0029  1.5364
  188SLPC  H14B21638   0.390   1.342   5.680  0.9729  2.8516 -0.4707
  188SLPC  H14C21639   0.236   1.440   5.676 -0.8496  0.4959  2.4731
  188SLPC   C1521640   0.188   1.197   5.786  0.2055  0.2302  0.9410
  188SLPC  H15A21641   0.122   1.234   5.709 -1.2464  0.8664  2.4507
  188SLPC  H15B21642   0.254   1.124   5.740 -0.7651  0.8186 -1.5784
  188SLPC  H15C21643   0.134   1.150   5.866 -0.5070 -0.3577  0.1414
  188SLPC   C1221644   0.379   1.262   5.940  0.1805  0.8206  0.3691
  188SLPC  H12A21645   0.456   1.214   5.880 -1.9104 -1.5266 -0.6113
  188SLPC  H12B21646   0.342   1.178   5.997  1.8030 -0.5848 -0.5329
  188SLPC   C1121647   0.439   1.354   6.047  0.0264 -0.6084 -0.1799
  188SLPC  H11A21648   0.362   1.373   6.125 -0.7848  3.3306 -1.6790
  188SLPC  H11B21649   0.454   1.455   6.004 -0.5472 -0.6128 -0.3976
  188SLPC     P21650   0.575   1.195   6.215  0.3256  0.0996  0.2313
  188SLPC   O1321651   0.467   1.214   6.313  0.4936  0.1810 -0.1857
  188SLPC   O1421652   0.580   1.060   6.152  0.0536 -0.4962 -0.4316
  188SLPC   O1221653   0.562   1.297   6.097 -0.4839  0.0657 -0.5486
  188SLPC   O1121654   0.712   1.238   6.282  0.3324 -0.2719 -0.2422
  188SLPC    C121655   0.740   1.372   6.314  0.2175 -0.4889 -0.1762
  188SLPC    HA21656   0.847   1.394   6.293 -0.0485  0.5901 -0.4987
  188SLPC    HB21657   0.675   1.446   6.262  1.7904 -0.6981 -2.5882
  188SLPC    C221658   0.732   1.389   6.468  0.6814  0.4066 -0.3083
  188SLPC    HS21659   0.626   1.365   6.491  0.8484 -1.5498 -1.4125
  188SLPC   O2121660   0.786   1.517   6.504  0.3615  0.1793 -0.6181
  188SLPC   C2121661   0.730   1.589   6.594  0.4548 -0.1669 -0.4026
  188SLPC   O2221662   0.624   1.567   6.648  0.1999 -0.0734 -0.1367
  188SLPC   C2221663   0.816   1.708   6.623  0.0342 -0.1734 -0.8274
  188SLPC   H2R21664   0.921   1.698   6.587  0.5452  2.2551 -0.2124
  188SLPC   H2S21665   0.791   1.802   6.568  0.1700  0.3780  0.0249
  188SLPC    C321666   0.810   1.277   6.543 -0.5120 -0.1775  1.0698
  188SLPC    HX21667   0.916   1.284   6.510 -1.4024  1.1640 -1.8030
  188SLPC    HY21668   0.788   1.173   6.512  2.0758 -0.3739 -0.4459
  188SLPC   O3121669   0.808   1.284   6.684 -0.5128  0.7396  0.0477
  188SLPC   C3121670   0.699   1.249   6.736  0.5619  0.3766 -0.0140
  188SLPC   O3221671   0.608   1.179   6.691  0.0522 -0.8516 -0.2337
  188SLPC   C3221672   0.686   1.314   6.873  0.1213  0.0331  0.2787
  188SLPC   H2X21673   0.633   1.406   6.842 -1.8079 -1.3348 -0.6817
  188SLPC   H2Y21674   0.789   1.339   6.906  0.3709 -2.2992  1.5038
  188SLPC   C2321675   0.825   1.751   6.769 -0.2239  0.3625  0.7131
  188SLPC   H3R21676   0.722   1.779   6.801 -0.0665  0.8789  0.7698
  188SLPC   H3S21677   0.890   1.839   6.786 -1.3360  0.9336  2.2390
  188SLPC   C2421678   0.880   1.641   6.859 -0.8473  0.1252  0.0341
  188SLPC   H4R21679   0.980   1.608   6.823 -0.8529 -0.3799  0.4833
  188SLPC   H4S21680   0.806   1.558   6.857 -1.5563  0.5675  2.9488
  188SLPC   C2521681   0.918   1.695   7.004  0.7126 -0.1549  0.4046
  188SLPC   H5R21682   0.838   1.769   7.022 -0.8235 -1.4326 -0.8797
  188SLPC   H5S21683   1.018   1.745   7.005  0.3098  0.6639  0.4367
  188SLPC   C2621684   0.913   1.591   7.108 -0.7180  0.2827 -0.0223
  188SLPC   H6R21685   0.980   1.505   7.085 -0.3144  0.3489  0.8836
  188SLPC   H6S21686   0.813   1.544   7.112 -0.7255  0.3719  1.1179
  188SLPC   C2721687   0.963   1.650   7.242  0.4339  0.2826  0.3987
  188SLPC   H7R21688   0.888   1.723   7.280 -1.2210 -1.2616  0.2742
  188SLPC   H7S21689   1.065   1.690   7.227  0.0909  0.6263 -1.1085
  188SLPC   C2821690   0.981   1.539   7.351  0.0302 -0.7430 -0.0684
  188SLPC   H8R21691   1.048   1.594   7.422 -2.2648 -0.7437  2.2577
  188SLPC   H8S21692   1.041   1.458   7.305 -0.1460 -0.7157 -0.3483
  188SLPC   C2921693   0.858   1.478   7.413 -0.3282 -0.1782 -0.0244
  188SLPC   H9R21694   0.796   1.415   7.348  1.3856 -0.8605 -1.0709
  188SLPC  C21021695   0.837   1.472   7.547  0.6627 -0.7950 -0.0549
  188SLPC  H10R21696   0.739   1.442   7.587 -0.9658  1.2911 -2.1896
  188SLPC  C21121697   0.916   1.536   7.659  0.0461  0.1684 -0.4609
  188SLPC  H11R21698   0.871   1.634   7.686  1.1647  1.7200 -3.7005
  188SLPC  H11S21699   1.018   1.562   7.624  0.3682  1.1067  1.0816
  188SLPC  C21221700   0.930   1.433   7.776  0.9563  0.0802  0.0556
  188SLPC  H12R21701   0.998   1.350   7.751  0.7157  0.3248 -1.4946
  188SLPC  C21321702   0.858   1.435   7.890  0.2941 -0.2775 -0.6018
  188SLPC  H13R21703   0.873   1.352   7.961 -1.6693 -2.0269 -2.1134
  188SLPC  C21421704   0.758   1.541   7.946  0.1433  0.2504  0.6033
  188SLPC  H14R21705   0.656   1.531   7.904 -0.1089 -2.8174  1.6228
  188SLPC  H14S21706   0.799   1.642   7.929  1.6566 -0.5062 -0.4997
  188SLPC  C21521707   0.720   1.525   8.093  0.2263 -0.4849 -0.5107
  188SLPC  H15R21708   0.698   1.419   8.118 -1.6206  0.1223  0.6206
  188SLPC  H15S21709   0.619   1.568   8.107  0.3217  0.0413 -1.4056
  188SLPC  C21621710   0.832   1.597   8.179  0.0951  0.1610 -0.4941
  188SLPC  H16R21711   0.825   1.708   8.175  0.4865  0.1558 -1.3832
  188SLPC  H16S21712   0.931   1.558   8.147  0.2347 -1.2841  1.5086
  188SLPC  C21721713   0.825   1.576   8.330 -0.1347  0.3616  0.6912
  188SLPC  H17R21714   0.894   1.648   8.378  0.7576 -0.7773  1.1771
  188SLPC  H17S21715   0.857   1.475   8.363 -1.7078 -1.5183 -2.9409
  188SLPC  C21821716   0.687   1.589   8.383 -0.0296 -0.1337 -0.1984
  188SLPC  H18R21717   0.625   1.500   8.358  1.7386 -0.8898 -2.2066
  188SLPC  H18S21718   0.636   1.681   8.349 -1.4418 -0.7874  0.0703
  188SLPC  H18T21719   0.678   1.585   8.493 -1.6049 -0.1040 -0.3152
  188SLPC   C3321720   0.603   1.237   6.979 -0.5898 -0.2933 -0.0549
  188SLPC   H3X21721   0.644   1.134   6.984  0.9623  0.3023 -0.0274
  188SLPC   H3Y21722   0.497   1.219   6.953 -0.2135 -1.4317 -0.9123
  188SLPC   C3421723   0.622   1.292   7.120 -0.0127  0.2390  0.4953
  188SLPC   H4X21724   0.577   1.392   7.133 -0.8122 -0.3176  2.5092
  188SLPC   H4Y21725   0.729   1.310   7.146  0.6821 -0.6052 -1.6111
  188SLPC   C3521726   0.562   1.194   7.218  0.1354  0.1631 -0.4051
  188SLPC   H5X21727   0.604   1.093   7.198  0.5053 -0.0915  1.4603
  188SLPC   H5Y21728   0.456   1.186   7.184  0.7673 -2.7994 -2.0224
  188SLPC   C3621729   0.595   1.231   7.366  0.2144 -0.8964  1.2297
  188SLPC   H6X21730   0.605   1.337   7.395  0.0109 -1.0217  1.7756
  188SLPC   H6Y21731   0.700   1.197   7.377  1.2337  1.3120 -0.9329
  188SLPC   C3721732   0.513   1.158   7.467  0.3071 -0.5177 -0.5084
  188SLPC   H7X21733   0.486   1.058   7.427  0.1809 -0.3230 -0.9115
  188SLPC   H7Y21734   0.422   1.217   7.490  1.0703  0.3210  0.4633
  188SLPC   C3821735   0.582   1.147   7.604 -0.4993  0.1939 -0.4487
  188SLPC   H8X21736   0.620   1.247   7.634 -0.8413  0.6242 -1.4041
  188SLPC   H8Y21737   0.671   1.080   7.597 -0.6621 -0.3784  2.0102
  188SLPC   C3921738   0.498   1.081   7.715  0.4231 -0.3330  0.7711
  188SLPC   H9X21739   0.475   0.975   7.691  1.9154 -0.1538 -1.7498
  188SLPC   H9Y21740   0.403   1.139   7.724  0.8477  0.6120 -0.6349
  188SLPC  C31021741   0.548   1.088   7.863 -0.4398 -0.1192 -0.0795
  188SLPC  H10X21742   0.463   1.065   7.930 -0.2805 -2.0015 -0.4695
  188SLPC  H10Y21743   0.582   1.192   7.885  0.5330 -0.6680  1.1092
  188SLPC  C31121744   0.666   0.999   7.888 -0.2206  0.6236  0.2770
  188SLPC  H11X21745   0.753   1.039   7.832  0.7010  3.8846  3.6749
  188SLPC  H11Y21746   0.639   0.897   7.854  2.2371  0.0024  0.0398
  188SLPC  C31221747   0.694   0.996   8.039  0.4644 -0.5690  0.1389
  188SLPC  H12X21748   0.597   0.973   8.087  0.0206 -1.7381 -1.2486
  188SLPC  H12Y21749   0.712   1.099   8.076 -1.8858 -0.4292  1.0215
  188SLPC  C31321750   0.805   0.900   8.094 -0.8257 -0.4434 -0.2076
  188SLPC  H13X21751   0.903   0.926   8.048 -1.2523  2.6711  0.4132
  188SLPC  H13Y21752   0.780   0.795   8.069 -1.7577 -0.4545  0.6963
  188SLPC  C31421753   0.830   0.908   8.246 -0.2080 -1.0824 -0.5326
  188SLPC  H14X21754   0.730   0.920   8.294 -1.2383  1.1245 -3.0051
  188SLPC  H14Y21755   0.873   1.009   8.263 -2.9812 -0.2093  2.3483
  188SLPC  C31521756   0.915   0.789   8.291  0.1860  0.0145 -0.6290
  188SLPC  H15X21757   1.017   0.781   8.248  0.1263  0.0222 -0.7731
  188SLPC  H15Y21758   0.862   0.699   8.256 -0.6068 -0.5098  1.7659
  188SLPC  C31621759   0.933   0.780   8.445  0.4287 -0.4852  0.0114
  188SLPC  H16X21760   0.847   0.811   8.508 -1.2029 -2.2268 -1.2301
  188SLPC  H16Y21761   1.014   0.843   8.485 -0.1744 -0.3447  1.0509
  188SLPC  C31721762   0.969   0.636   8.493 -0.1594 -0.3372  0.6023
  188SLPC  H17X21763   1.059   0.611   8.432  1.2641  2.4637  1.4074
  188SLPC  H17Y21764   0.894   0.560   8.461 -0.2145  0.8374 -2.4319
  188SLPC  C31821765   0.988   0.622   8.634 -0.1840 -0.7846 -0.7806
  188SLPC  H18X21766   1.059   0.700   8.669 -0.7460 -0.7649  0.3712
  188SLPC  H18Y21767   1.037   0.529   8.668 -1.1523 -0.6305  1.2109
  188SLPC  H18Z21768   0.890   0.624   8.687 -0.1426 -0.7251 -0.7049
  189SLPC     N21769   0.536   3.573   5.759 -0.2463  0.0593 -0.5960
  189SLPC   C1321770   0.576   3.436   5.788  0.7830  0.3577  0.2815
  189SLPC  H13A21771   0.608   3.382   5.700  0.4268  0.5516  0.0334
  189SLPC  H13B21772   0.661   3.436   5.855 -1.3673  0.9388  3.2257
  189SLPC  H13C21773   0.496   3.382   5.836  1.2917 -1.9381 -1.3052
  189SLPC   C1421774   0.426   3.576   5.662 -0.5290 -0.3722  0.7217
  189SLPC  H14A21775   0.402   3.678   5.637 -2.9666 -1.1083 -0.2018
  189SLPC  H14B21776   0.447   3.515   5.575 -2.6069  1.0956 -0.9213
  189SLPC  H14C21777   0.334   3.546   5.710 -2.2940  1.3882 -1.3074
  189SLPC   C1521778   0.651   3.626   5.678  0.7134  0.2047  0.0715
  189SLPC  H15A21779   0.745   3.589   5.715  0.5266 -0.0535  0.2848
  189SLPC  H15B21780   0.639   3.592   5.576 -2.3712  0.5792  0.2136
  189SLPC  H15C21781   0.644   3.734   5.675 -1.0280  0.1394  0.8223
  189SLPC   C1221782   0.504   3.652   5.885 -0.1170  0.1614  0.4485
  189SLPC  H12A21783   0.418   3.610   5.934 -1.2190 -1.1055 -2.3576
  189SLPC  H12B21784   0.487   3.754   5.854 -1.1945  0.1297  0.9026
  189SLPC   C1121785   0.611   3.656   5.992 -0.7626 -0.4318  0.2974
  189SLPC  H11A21786   0.571   3.739   6.054 -1.0960  0.3025 -0.8741
  189SLPC  H11B21787   0.708   3.688   5.948  0.9325 -0.4896  3.6532
  189SLPC     P21788   0.711   3.512   6.190  0.1912 -0.0731  0.0719
  189SLPC   O1321789   0.662   3.396   6.263  0.4063  0.0356 -0.0584
  189SLPC   O1421790   0.854   3.515   6.158  0.7675 -0.3081 -0.1766
  189SLPC   O1221791   0.629   3.525   6.059  0.3922 -0.2165 -0.6653
  189SLPC   O1121792   0.681   3.640   6.274  0.4723  0.0390 -0.4404
  189SLPC    C121793   0.665   3.635   6.418 -0.0655 -0.5961 -0.7376
  189SLPC    HA21794   0.557   3.631   6.443 -0.5607  1.8721 -2.1369
  189SLPC    HB21795   0.710   3.542   6.460 -2.0811 -1.0461  0.5755
  189SLPC    C221796   0.738   3.745   6.493 -0.1120  0.3168  0.0608
  189SLPC    HS21797   0.801   3.813   6.430 -4.6099  2.3713 -2.7166
  189SLPC   O2121798   0.812   3.688   6.603  0.0182  0.2361 -1.3024
  189SLPC   C2121799   0.908   3.760   6.656  0.3685  0.2771 -0.4690
  189SLPC   O2221800   0.951   3.868   6.612 -0.0785  0.0588 -0.0299
  189SLPC   C2221801   0.931   3.702   6.796 -0.0703 -0.0720 -0.4074
  189SLPC   H2R21802   0.857   3.620   6.814  0.0115 -0.0189  0.2180
  189SLPC   H2S21803   1.028   3.649   6.791  0.7082  1.4714 -3.2450
  189SLPC    C321804   0.628   3.847   6.534 -0.1525  0.3784 -0.0114
  189SLPC    HX21805   0.569   3.867   6.443 -0.1195  3.1130  0.4840
  189SLPC    HY21806   0.674   3.943   6.564  0.9187  0.1901 -0.9704
  189SLPC   O3121807   0.552   3.784   6.639 -0.5123 -0.1303 -0.4818
  189SLPC   C3121808   0.541   3.857   6.755 -0.4273 -0.1098  0.5051
  189SLPC   O3221809   0.561   3.979   6.766  0.0790  0.2670 -0.3487
  189SLPC   C3221810   0.481   3.757   6.862  0.1853 -0.2951  0.6208
  189SLPC   H2X21811   0.527   3.656   6.851 -0.5857 -0.7278  1.2279
  189SLPC   H2Y21812   0.379   3.762   6.819 -0.4407  1.8812  2.2057
  189SLPC   C2321813   0.912   3.805   6.905  0.2840  1.0836 -0.0644
  189SLPC   H3R21814   0.831   3.875   6.875 -0.3888  0.5953  0.5808
  189SLPC   H3S21815   1.010   3.854   6.921  0.5471  0.8233 -0.8273
  189SLPC   C2421816   0.865   3.740   7.045 -0.1998  0.2913 -0.3780
  189SLPC   H4R21817   0.773   3.677   7.038 -0.1634  0.2180 -0.2008
  189SLPC   H4S21818   0.835   3.827   7.108  1.9066 -0.2508  1.5001
  189SLPC   C2521819   0.970   3.655   7.121  1.1416  0.2011 -0.5618
  189SLPC   H5R21820   1.057   3.723   7.117  1.8832 -0.8000 -2.7777
  189SLPC   H5S21821   1.009   3.563   7.073  1.0565 -0.9536  1.4670
  189SLPC   C2621822   0.921   3.618   7.264 -0.0674  1.0186  0.1412
  189SLPC   H6R21823   0.830   3.554   7.258 -0.7591  2.0755 -1.1060
  189SLPC   H6S21824   0.885   3.707   7.320 -0.8204  0.3970  0.6822
  189SLPC   C2721825   1.031   3.534   7.333  0.0569 -0.3406 -0.0436
  189SLPC   H7R21826   1.101   3.599   7.390  0.0153 -1.6081  1.5398
  189SLPC   H7S21827   1.099   3.484   7.262 -1.7443 -1.0615 -1.3406
  189SLPC   C2821828   0.957   3.449   7.433 -0.6780 -0.3438  0.6768
  189SLPC   H8R21829   0.891   3.381   7.374  0.5648 -1.2203  0.2551
  189SLPC   H8S21830   0.883   3.497   7.500 -1.2616 -0.0589 -0.1603
  189SLPC   C2921831   1.061   3.361   7.495 -0.0807  0.3297 -0.3425
  189SLPC   H9R21832   1.141   3.320   7.432  0.0718 -0.2976  0.2485
  189SLPC  C21021833   1.053   3.310   7.620 -0.2659 -0.2899 -0.0507
  189SLPC  H10R21834   1.134   3.243   7.654 -0.0055 -1.1860 -2.3109
  189SLPC  C21121835   0.949   3.345   7.723 -0.1656 -0.8074  0.6565
  189SLPC  H11R21836   0.866   3.414   7.698  1.2174  1.3653  1.8131
  189SLPC  H11S21837   1.002   3.409   7.796  0.8153 -0.2278 -0.5237
  189SLPC  C21221838   0.893   3.218   7.781  0.6970 -0.7973 -0.1790
  189SLPC  H12R21839   0.855   3.142   7.712 -0.7021  0.3352 -0.7067
  189SLPC  C21321840   0.878   3.194   7.914 -0.8741  0.5249  0.1559
  189SLPC  H13R21841   0.828   3.099   7.936  2.8599 -2.4481 -2.7429
  189SLPC  C21421842   0.923   3.277   8.028 -0.1116 -0.6355 -0.3748
  189SLPC  H14R21843   0.831   3.275   8.090  0.4070  0.7866  0.5041
  189SLPC  H14S21844   0.941   3.383   8.000  0.3813 -1.1089 -1.9483
  189SLPC  C21521845   1.047   3.233   8.113 -0.6911 -0.3459  0.3146
  189SLPC  H15R21846   1.079   3.319   8.175  1.9081 -0.8398 -0.2497
  189SLPC  H15S21847   1.135   3.225   8.047 -1.2888  0.7289 -0.6476
  189SLPC  C21621848   1.049   3.102   8.192 -0.3724  0.2482 -0.4639
  189SLPC  H16R21849   1.141   3.096   8.255  0.8991  1.8836 -2.0615
  189SLPC  H16S21850   1.022   3.010   8.136  0.0520  0.8521 -1.6887
  189SLPC  C21721851   0.927   3.114   8.291  0.0362  0.0550 -0.5588
  189SLPC  H17R21852   0.825   3.110   8.247 -1.6671  0.1771  3.0411
  189SLPC  H17S21853   0.935   3.212   8.343  1.2480 -1.1870  1.7264
  189SLPC  C21821854   0.927   3.011   8.408  0.0721  0.0913  1.1689
  189SLPC  H18R21855   1.022   3.015   8.465  1.9760 -1.4873 -1.6359
  189SLPC  H18S21856   0.921   2.909   8.365 -1.9637  0.5671  0.1725
  189SLPC  H18T21857   0.836   3.036   8.467 -1.8732 -1.3379 -1.0366
  189SLPC   C3321858   0.486   3.817   7.005 -0.2707  0.0618 -0.5966
  189SLPC   H3X21859   0.454   3.923   6.998 -0.1595  0.2448  1.2079
  189SLPC   H3Y21860   0.590   3.833   7.041 -0.1657  1.5159 -1.4468
  189SLPC   C3421861   0.394   3.746   7.108 -0.4082 -1.3545  0.5291
  189SLPC   H4X21862   0.311   3.688   7.062 -3.1921 -0.4533  3.9748
  189SLPC   H4Y21863   0.346   3.827   7.167 -1.5850  0.5075 -2.7273
  189SLPC   C3521864   0.474   3.656   7.202  0.2385 -0.0389 -0.3075
  189SLPC   H5X21865   0.580   3.686   7.213  0.1877 -0.0217  0.1204
  189SLPC   H5Y21866   0.483   3.553   7.160 -1.6691 -1.1768  1.8529
  189SLPC   C3621867   0.410   3.631   7.336 -0.7619  0.0941 -0.2599
  189SLPC   H6X21868   0.321   3.569   7.310 -2.1306  1.1053  1.7556
  189SLPC   H6Y21869   0.374   3.718   7.394  1.8801  2.5125 -1.9742
  189SLPC   C3721870   0.503   3.546   7.428  0.9727  0.7719  0.7593
  189SLPC   H7X21871   0.479   3.570   7.534  0.0521 -0.8509  0.9514
  189SLPC   H7Y21872   0.607   3.573   7.398  0.9246 -1.3035 -1.6477
  189SLPC   C3821873   0.486   3.391   7.413  0.2927 -0.7180  0.3489
  189SLPC   H8X21874   0.511   3.358   7.310  1.2924 -1.5179  0.8291
  189SLPC   H8Y21875   0.382   3.369   7.442  0.6018 -1.3067  1.0374
  189SLPC   C3921876   0.576   3.313   7.504  0.3003  0.1944  0.5105
  189SLPC   H9X21877   0.549   3.361   7.601 -4.8443 -1.8651  0.4290
  189SLPC   H9Y21878   0.678   3.301   7.461 -0.2932  1.6897 -1.4382
  189SLPC  C31021879   0.523   3.171   7.520 -0.0959  0.2221  0.0060
  189SLPC  H10X21880   0.513   3.129   7.418 -0.6600 -0.2611  0.2599
  189SLPC  H10Y21881   0.423   3.199   7.560 -1.5713  0.1392 -3.2909
  189SLPC  C31121882   0.599   3.087   7.617  0.2314  0.3208 -0.8932
  189SLPC  H11X21883   0.615   3.144   7.711  1.9337 -2.6863  0.8376
  189SLPC  H11Y21884   0.696   3.055   7.575  2.2863  1.0656  2.8754
  189SLPC  C31221885   0.519   2.961   7.663  0.0805 -0.4703  0.1296
  189SLPC  H12X21886   0.494   2.908   7.569  1.3572  1.1481 -1.1978
  189SLPC  H12Y21887   0.422   2.992   7.707  0.4147  0.3037  0.3385
  189SLPC  C31321888   0.604   2.887   7.761  0.1512 -0.7489  0.4218
  189SLPC  H13X21889   0.631   2.959   7.842  2.2754  0.4288 -1.2099
  189SLPC  H13Y21890   0.702   2.864   7.714  0.6759  0.4388  0.8827
  189SLPC  C31421891   0.537   2.759   7.805  0.0565  0.7818 -0.2306
  189SLPC  H14X21892   0.539   2.686   7.721  2.7424  3.4692 -2.7491
  189SLPC  H14Y21893   0.430   2.781   7.822 -0.7499 -0.9647 -2.4897
  189SLPC  C31521894   0.603   2.710   7.939 -0.3178 -0.5607  0.2209
  189SLPC  H15X21895   0.712   2.711   7.917 -0.6037 -0.8227 -1.3494
  189SLPC  H15Y21896   0.578   2.609   7.977 -1.4734 -0.5793 -0.5104
  189SLPC  C31621897   0.570   2.792   8.065  0.3094  0.1138  0.9419
  189SLPC  H16X21898   0.460   2.789   8.078  0.0891  2.4871  0.1171
  189SLPC  H16Y21899   0.592   2.897   8.038 -1.7917  0.1462 -0.9931
  189SLPC  C31721900   0.656   2.753   8.186  0.4014 -0.7860 -0.3982
  189SLPC  H17X21901   0.760   2.743   8.147 -0.3311  0.4806 -2.8446
  189SLPC  H17Y21902   0.615   2.660   8.231 -1.1263  0.7600  1.5593
  189SLPC  C31821903   0.649   2.851   8.299  0.0088 -0.6583  0.0947
  189SLPC  H18X21904   0.548   2.856   8.344  0.8466 -0.3314  2.0232
  189SLPC  H18Y21905   0.679   2.953   8.267 -0.3678 -0.1391  1.3269
  189SLPC  H18Z21906   0.718   2.817   8.379 -1.4573 -2.2932  0.7351
  190SLPC     N21907   1.431   2.774   6.413  0.2081 -0.3320 -0.0270
  190SLPC   C1321908   1.324   2.702   6.335  0.2476 -0.0101 -0.4492
  190SLPC  H13A21909   1.349   2.597   6.335 -0.1270 -0.1221  0.8098
  190SLPC  H13B21910   1.234   2.703   6.395  1.2788 -0.4648  1.1517
  190SLPC  H13C21911   1.309   2.740   6.235 -1.6012  1.6689  0.4117
  190SLPC   C1421912   1.393   2.757   6.558 -0.5884 -0.4134 -0.5332
  190SLPC  H14A21913   1.469   2.810   6.615  0.1081 -1.3773 -0.5429
  190SLPC  H14B21914   1.301   2.811   6.575 -0.4167 -0.7719  1.8117
  190SLPC  H14C21915   1.377   2.654   6.582 -0.1260 -0.7078 -1.4285
  190SLPC   C1521916   1.414   2.917   6.381  0.1589  0.4264  0.6782
  190SLPC  H15A21917   1.421   2.935   6.275 -0.7314  2.4272  0.9105
  190SLPC  H15B21918   1.317   2.953   6.412 -1.2226 -1.0287 -1.6481
  190SLPC  H15C21919   1.484   2.987   6.424 -1.9225  2.6376  0.7078
  190SLPC   C1221920   1.573   2.724   6.383 -0.4020  1.0119  0.3501
  190SLPC  H12A21921   1.645   2.784   6.435 -1.4960  1.3518  1.5336
  190SLPC  H12B21922   1.589   2.737   6.277 -2.3202  2.6144  0.2040
  190SLPC   C1121923   1.595   2.572   6.409 -0.4179  0.5545  0.2853
  190SLPC  H11A21924   1.585   2.547   6.517  1.4481  0.0100  0.3797
  190SLPC  H11B21925   1.699   2.561   6.371 -0.0727  1.4477  0.9331
  190SLPC     P21926   1.543   2.348   6.266 -0.0796 -0.1778  0.0006
  190SLPC   O1321927   1.453   2.341   6.151 -0.1845  0.6963  0.2065
  190SLPC   O1421928   1.690   2.332   6.248  0.0504 -0.0623 -0.1377
  190SLPC   O1221929   1.510   2.489   6.322  0.3572  0.1238 -0.4093
  190SLPC   O1121930   1.499   2.243   6.373  0.0162 -0.3810  0.2987
  190SLPC    C121931   1.364   2.237   6.408  0.4498 -0.5266  0.2738
  190SLPC    HA21932   1.295   2.263   6.325  0.1288 -0.2627  0.6202
  190SLPC    HB21933   1.336   2.133   6.436 -0.8794  0.2281  1.9572
  190SLPC    C221934   1.333   2.326   6.527 -0.7269  0.2144 -0.1888
  190SLPC    HS21935   1.368   2.428   6.502  0.6822 -0.4714 -1.0870
  190SLPC   O2121936   1.417   2.283   6.635 -0.8026 -0.4351 -0.3893
  190SLPC   C2121937   1.484   2.370   6.704  0.3769 -0.2177 -0.9427
  190SLPC   O2221938   1.447   2.484   6.714 -0.4101  0.0207  0.0377
  190SLPC   C2221939   1.605   2.310   6.773 -0.3756 -0.2324  0.4659
  190SLPC   H2R21940   1.572   2.251   6.861  1.4070  0.8281  1.9152
  190SLPC   H2S21941   1.648   2.243   6.695 -0.3270 -2.2883  2.1623
  190SLPC    C321942   1.187   2.321   6.562 -0.8870 -0.1917 -0.6853
  190SLPC    HX21943   1.148   2.216   6.558  0.8558 -0.8294 -3.4858
  190SLPC    HY21944   1.134   2.367   6.476  0.2453  0.6651 -0.9370
  190SLPC   O3121945   1.166   2.391   6.688 -0.3486  0.1775 -0.3764
  190SLPC   C3121946   1.142   2.517   6.682 -0.2786  0.2454 -0.8668
  190SLPC   O3221947   1.155   2.582   6.578 -0.7687 -0.0272 -0.2302
  190SLPC   C3221948   1.109   2.571   6.824  0.0506 -0.4870 -0.0716
  190SLPC   H2X21949   0.998   2.566   6.824 -0.0329  0.9706 -0.3011
  190SLPC   H2Y21950   1.122   2.681   6.831 -0.1317 -0.2315 -2.7917
  190SLPC   C2321951   1.698   2.427   6.811  0.6186  0.2739 -0.2088
  190SLPC   H3R21952   1.641   2.481   6.891 -1.1566 -0.4934 -0.8980
  190SLPC   H3S21953   1.714   2.503   6.732 -1.1429 -0.2964 -1.1744
  190SLPC   C2421954   1.831   2.381   6.866 -0.4822  0.2895 -0.0803
  190SLPC   H4R21955   1.897   2.374   6.777  2.1336  5.0346  1.1568
  190SLPC   H4S21956   1.838   2.284   6.920  1.3918 -0.0898 -0.9447
  190SLPC   C2521957   1.906   2.496   6.941 -0.7629  0.4367 -0.1334
  190SLPC   H5R21958   1.998   2.458   6.991 -0.5131  0.9993 -0.1571
  190SLPC   H5S21959   1.832   2.509   7.022 -1.6008 -0.3205 -0.7610
  190SLPC   C2621960   1.927   2.621   6.861  0.6351 -0.8050  0.1140
  190SLPC   H6R21961   1.835   2.666   6.818  1.2446 -0.1845 -0.5778
  190SLPC   H6S21962   1.997   2.605   6.776 -0.4285  1.8763 -1.4013
  190SLPC   C2721963   1.996   2.726   6.949 -0.4062 -0.0847  0.3680
  190SLPC   H7R21964   2.100   2.692   6.968 -0.9726 -2.0918  0.1184
  190SLPC   H7S21965   1.946   2.724   7.048 -0.6273 -1.1141  0.2487
  190SLPC   C2821966   2.003   2.868   6.899 -0.7714 -0.3953  1.0474
  190SLPC   H8R21967   2.066   2.928   6.968 -0.4215  1.4065 -0.7146
  190SLPC   H8S21968   1.910   2.926   6.883 -1.4591 -1.9021 -0.8206
  190SLPC   C2921969   2.069   2.868   6.762  0.3099  0.0358  0.0221
  190SLPC   H9R21970   1.985   2.854   6.691 -2.1043 -0.0104  2.6949
  190SLPC  C21021971   2.198   2.876   6.732 -0.4770  0.1590  0.1908
  190SLPC  H10R21972   2.230   2.878   6.627 -1.3077  2.5462 -0.0623
  190SLPC  C21121973   2.318   2.912   6.824 -0.3695 -0.1040 -0.5196
  190SLPC  H11R21974   2.281   2.975   6.907  1.5085 -0.0534  0.3225
  190SLPC  H11S21975   2.394   2.971   6.768  0.6995 -1.4530 -0.5532
  190SLPC  C21221976   2.379   2.775   6.863 -0.0560 -0.0230  0.1535
  190SLPC  H12R21977   2.400   2.715   6.774 -1.3468  0.0299 -0.2144
  190SLPC  C21321978   2.422   2.732   6.984 -0.6709 -0.6149  0.5566
  190SLPC  H13R21979   2.457   2.630   7.004  0.8153  0.1033  1.8461
  190SLPC  C21421980   2.395   2.808   7.116 -0.0972  0.3248  0.4872
  190SLPC  H14R21981   2.380   2.918   7.104  0.0817  0.3709  0.6789
  190SLPC  H14S21982   2.473   2.793   7.194  1.5754  4.1002 -0.2259
  190SLPC  C21521983   2.263   2.761   7.186 -0.4452  0.0546 -0.3816
  190SLPC  H15R21984   2.258   2.650   7.183  0.8786 -0.0464  0.2936
  190SLPC  H15S21985   2.176   2.805   7.132 -0.0984  0.8931 -0.2609
  190SLPC  C21621986   2.258   2.808   7.329  0.5637 -0.2488 -0.0158
  190SLPC  H16R21987   2.294   2.913   7.319 -0.0867  0.0268  0.4793
  190SLPC  H16S21988   2.327   2.758   7.401  0.3269  0.1348  0.4818
  190SLPC  C21721989   2.119   2.811   7.389  0.2586 -0.3489  0.0731
  190SLPC  H17R21990   2.078   2.708   7.387  0.4315 -0.4086 -0.3254
  190SLPC  H17S21991   2.045   2.872   7.332 -0.5082 -2.6326 -1.4849
  190SLPC  C21821992   2.107   2.876   7.525 -0.6369 -0.8620 -1.0531
  190SLPC  H18R21993   2.008   2.898   7.570  0.7823  0.7832  1.5353
  190SLPC  H18S21994   2.142   2.981   7.518 -0.3487 -0.8443  0.3902
  190SLPC  H18T21995   2.170   2.832   7.606  0.0663  3.9899  1.4371
  190SLPC   C3321996   1.184   2.489   6.939 -0.0732 -0.2927 -0.0850
  190SLPC   H3X21997   1.295   2.488   6.934 -0.0448 -2.1423  0.2296
  190SLPC   H3Y21998   1.153   2.384   6.921 -1.5674 -0.1692  1.4935
  190SLPC   C3421999   1.147   2.537   7.076 -0.3560 -0.0998  0.0753
  190SLPC   H4X22000   1.036   2.543   7.084 -0.2013  1.2747  1.6610
  190SLPC   H4Y22001   1.195   2.635   7.098  0.2292 -0.6283  1.2075
  190SLPC   C3522002   1.194   2.437   7.187  0.2049  0.0829 -0.4915
  190SLPC   H5X22003   1.299   2.415   7.160  0.2399 -2.0580  1.1154
  190SLPC   H5Y22004   1.142   2.339   7.177 -1.1480  0.8038 -0.7967
  190SLPC   C3622005   1.175   2.486   7.333 -0.6734 -0.5533 -0.3735
  190SLPC   H6X22006   1.069   2.514   7.347 -0.9021  0.0973 -2.8717
  190SLPC   H6Y22007   1.250   2.565   7.357 -2.2541  0.9822 -0.3142
  190SLPC   C3722008   1.210   2.391   7.445  0.2814  0.4519 -0.0039
  190SLPC   H7X22009   1.315   2.357   7.440 -0.0586 -0.6247 -0.2041
  190SLPC   H7Y22010   1.141   2.306   7.421  1.4773 -0.1254 -1.4979
  190SLPC   C3822011   1.188   2.445   7.592  0.2508 -0.3701  0.0956
  190SLPC   H8X22012   1.085   2.484   7.606  0.9440  1.6800 -0.0825
  190SLPC   H8Y22013   1.257   2.530   7.613 -0.6933  0.3571  0.3374
  190SLPC   C3922014   1.227   2.346   7.696  0.1597  0.7304 -0.3764
  190SLPC   H9X22015   1.321   2.299   7.661  0.6094  1.1629  0.2342
  190SLPC   H9Y22016   1.156   2.260   7.692  0.4992  0.4796 -1.3726
  190SLPC  C31022017   1.252   2.396   7.841  0.0982  0.2654  0.3024
  190SLPC  H10X22018   1.152   2.434   7.872 -0.0165  0.2178 -0.0031
  190SLPC  H10Y22019   1.323   2.481   7.849 -0.7388  1.0067  0.0464
  190SLPC  C31122020   1.283   2.280   7.934 -0.0970 -0.0375  0.2093
  190SLPC  H11X22021   1.355   2.207   7.892 -1.4876 -0.3980 -1.6613
  190SLPC  H11Y22022   1.192   2.220   7.955 -0.4677  1.2784  2.8426
  190SLPC  C31222023   1.325   2.330   8.073 -0.4602  0.2874 -0.2069
  190SLPC  H12X22024   1.300   2.249   8.145  2.7591 -0.3439  0.3605
  190SLPC  H12Y22025   1.271   2.422   8.103  1.7820  1.9485 -0.9358
  190SLPC  C31322026   1.473   2.362   8.091  0.3718  0.6734  0.2856
  190SLPC  H13X22027   1.493   2.433   8.174  1.3519  2.2299 -1.2107
  190SLPC  H13Y22028   1.504   2.422   8.003  0.1143 -1.2748 -1.1881
  190SLPC  C31422029   1.558   2.234   8.112  0.6257  0.0385 -0.8222
  190SLPC  H14X22030   1.668   2.254   8.110  0.5317  1.5966  2.4277
  190SLPC  H14Y22031   1.542   2.170   8.022  0.4396 -0.5644 -0.3714
  190SLPC  C31522032   1.528   2.153   8.236 -0.1699  0.7700 -0.0911
  190SLPC  H15X22033   1.424   2.112   8.235 -0.1445  0.6100  1.4731
  190SLPC  H15Y22034   1.530   2.219   8.325 -0.4782  0.5679  0.0675
  190SLPC  C31622035   1.646   2.050   8.251  0.1455  0.7783  0.4470
  190SLPC  H16X22036   1.747   2.094   8.243  0.4679  0.0141  0.1943
  190SLPC  H16Y22037   1.641   1.971   8.173 -1.3941  0.9271  0.3583
  190SLPC  C31722038   1.625   1.982   8.386 -0.0922  0.0752  0.2049
  190SLPC  H17X22039   1.522   1.940   8.388 -0.8990  1.9289  2.3393
  190SLPC  H17Y22040   1.628   2.056   8.469  1.5131 -0.5545  0.7343
  190SLPC  C31822041   1.725   1.870   8.415  0.3625  0.4163  0.6885
  190SLPC  H18X22042   1.686   1.817   8.505 -0.7923 -0.4322 -0.2734
  190SLPC  H18Y22043   1.829   1.901   8.437  0.3587  1.6444 -0.8416
  190SLPC  H18Z22044   1.738   1.801   8.328  1.6774  0.1027  1.1047
  191SLPC     N22045   1.216   6.469   5.659 -0.6601 -0.0072 -0.4642
  191SLPC   C1322046   1.200   6.372   5.541  0.2205  0.1403 -0.1743
  191SLPC  H13A22047   1.235   6.272   5.563  0.4249  0.7938  2.8438
  191SLPC  H13B22048   1.096   6.350   5.520  0.5460 -0.2511 -1.4479
  191SLPC  H13C22049   1.251   6.407   5.453  0.1395 -0.1699 -0.3457
  191SLPC   C1422050   1.159   6.596   5.620 -0.0159 -0.0951  0.0821
  191SLPC  H14A22051   1.207   6.634   5.531  1.0519 -0.2233  0.5900
  191SLPC  H14B22052   1.053   6.585   5.605  0.2512 -2.5172 -0.4017
  191SLPC  H14C22053   1.183   6.673   5.693  1.1705  0.3976 -0.7822
  191SLPC   C1522054   1.359   6.494   5.698 -0.8434 -0.3266  0.3361
  191SLPC  H15A22055   1.376   6.552   5.787 -0.9823  0.2037  0.0226
  191SLPC  H15B22056   1.419   6.405   5.702 -1.3138 -0.6929 -0.4399
  191SLPC  H15C22057   1.406   6.551   5.619 -2.6915 -1.7852 -1.9770
  191SLPC   C1222058   1.133   6.422   5.773  0.1866 -0.2550  0.0430
  191SLPC  H12A22059   1.036   6.399   5.730  0.5696 -0.9862 -0.4415
  191SLPC  H12B22060   1.124   6.504   5.843  0.6176 -1.3334  1.4120
  191SLPC   C1122061   1.178   6.302   5.860 -0.5843 -0.5244  0.3466
  191SLPC  H11A22062   1.107   6.285   5.944  1.1475 -1.6750  1.6465
  191SLPC  H11B22063   1.276   6.322   5.910 -0.7255  1.1184  0.0070
  191SLPC     P22064   1.092   6.068   5.782  0.4350  0.2008  0.1691
  191SLPC   O1322065   0.957   6.111   5.729 -0.7143 -0.3362  0.5059
  191SLPC   O1422066   1.152   5.956   5.701 -0.0897  0.1118  0.0523
  191SLPC   O1222067   1.186   6.188   5.787 -0.2397  0.0109  0.3565
  191SLPC   O1122068   1.086   6.040   5.935  0.8548 -0.1149  0.5551
  191SLPC    C122069   1.206   5.994   6.007  0.3938 -0.1825 -0.2356
  191SLPC    HA22070   1.233   5.890   5.980  2.5638  0.5003 -0.9457
  191SLPC    HB22071   1.296   6.049   5.972  0.3244  0.1476  0.0973
  191SLPC    C222072   1.192   6.026   6.161  0.7470 -0.3143 -0.1869
  191SLPC    HS22073   1.286   5.998   6.212  1.7728 -1.3487 -2.4901
  191SLPC   O2122074   1.078   5.946   6.221  0.9393 -0.2354 -0.1727
  191SLPC   C2122075   1.120   5.824   6.269  0.6875  0.0390  0.3555
  191SLPC   O2222076   1.226   5.776   6.259 -0.0273  0.6504  0.7398
  191SLPC   C2222077   1.001   5.753   6.340  0.7177 -0.0361 -0.0354
  191SLPC   H2R22078   0.951   5.814   6.418  0.7798 -1.1826  0.9190
  191SLPC   H2S22079   0.920   5.740   6.265 -1.6627 -1.2359  2.5995
  191SLPC    C322080   1.161   6.173   6.181 -0.3775  0.6643 -0.0177
  191SLPC    HX22081   1.069   6.207   6.129 -0.3909  2.8664  1.3099
  191SLPC    HY22082   1.244   6.227   6.132 -0.9388  1.1992 -0.3856
  191SLPC   O3122083   1.159   6.196   6.324  0.4383 -0.3832 -0.3567
  191SLPC   C3122084   1.044   6.201   6.389  0.6148  0.6048  0.6827
  191SLPC   O3222085   0.934   6.194   6.335 -0.4589  0.1172 -0.3053
  191SLPC   C3222086   1.063   6.211   6.546 -0.2537  0.0349  0.0302
  191SLPC   H2X22087   1.122   6.302   6.570  1.2391 -1.4452  2.3636
  191SLPC   H2Y22088   1.130   6.129   6.577  0.4586  0.5009 -0.2372
  191SLPC   C2322089   1.035   5.610   6.393  0.1616 -0.0180  0.0130
  191SLPC   H3R22090   1.135   5.606   6.441 -0.2342  0.0720  0.8570
  191SLPC   H3S22091   1.041   5.543   6.305  0.3765  1.5798 -1.2282
  191SLPC   C2422092   0.938   5.560   6.495  0.2146  0.5663  0.8132
  191SLPC   H4R22093   0.945   5.450   6.506  2.0479  0.4800 -0.5505
  191SLPC   H4S22094   0.835   5.575   6.456  1.5405  0.2452 -3.4239
  191SLPC   C2522095   0.961   5.625   6.633  0.6673 -0.3524  0.2932
  191SLPC   H5R22096   0.976   5.731   6.606  1.6770 -0.7085 -0.6301
  191SLPC   H5S22097   1.054   5.580   6.673  2.2113 -0.3319 -2.9332
  191SLPC   C2622098   0.847   5.608   6.738 -0.4435  0.2696  0.2282
  191SLPC   H6R22099   0.844   5.506   6.782  2.7848  0.8380  2.1025
  191SLPC   H6S22100   0.751   5.634   6.688  1.2680  1.4081 -2.7574
  191SLPC   C2722101   0.870   5.718   6.851 -0.2546 -0.0160 -0.2529
  191SLPC   H7R22102   0.877   5.819   6.805 -0.3716  1.1328  2.0684
  191SLPC   H7S22103   0.969   5.710   6.901  0.0158 -1.5123 -0.9580
  191SLPC   C2822104   0.769   5.721   6.972 -0.3263  0.6855  1.1809
  191SLPC   H8R22105   0.664   5.731   6.938 -0.6100 -0.7644  1.5565
  191SLPC   H8S22106   0.799   5.815   7.024  3.3133  0.5222 -0.3168
  191SLPC   C2922107   0.783   5.594   7.051  0.0608  0.7522 -0.1547
  191SLPC   H9R22108   0.744   5.501   7.007 -1.4310  1.2970 -0.0593
  191SLPC  C21022109   0.827   5.584   7.178  0.0623 -1.1541 -0.0161
  191SLPC  H10R22110   0.826   5.487   7.230 -0.8003 -0.5327  1.1798
  191SLPC  C21122111   0.883   5.689   7.273  0.0940  0.0162 -0.3256
  191SLPC  H11R22112   0.887   5.790   7.226  1.6552 -0.1344 -0.5805
  191SLPC  H11S22113   0.981   5.656   7.316 -0.9739  1.7433  4.0597
  191SLPC  C21222114   0.794   5.703   7.397 -0.9791  0.0339 -0.0363
  191SLPC  H12R22115   0.692   5.733   7.366 -0.9261 -0.1386 -0.3796
  191SLPC  C21322116   0.825   5.677   7.530  0.3874  0.1852  0.7280
  191SLPC  H13R22117   0.744   5.681   7.604 -0.4009  0.5580 -0.1409
  191SLPC  C21422118   0.958   5.636   7.586 -0.2315  0.6281 -0.0684
  191SLPC  H14R22119   0.969   5.690   7.682 -0.4230  0.0629  0.2789
  191SLPC  H14S22120   1.037   5.668   7.515  0.4534  0.0674  0.4348
  191SLPC  C21522121   0.988   5.486   7.606  0.3129  0.3186  0.4306
  191SLPC  H15R22122   0.992   5.441   7.505 -1.7862 -2.2056  1.3908
  191SLPC  H15S22123   0.909   5.438   7.667  0.2761 -2.3385 -1.5374
  191SLPC  C21622124   1.113   5.451   7.686  0.2308  0.1973  0.0023
  191SLPC  H16R22125   1.200   5.479   7.623 -1.4863  1.1777 -2.0888
  191SLPC  H16S22126   1.114   5.343   7.711  0.6027  0.2136  0.0661
  191SLPC  C21722127   1.150   5.541   7.807  0.5304 -0.1506 -0.4743
  191SLPC  H17R22128   1.064   5.529   7.877  1.7480 -1.2575  0.9094
  191SLPC  H17S22129   1.163   5.645   7.772 -0.1832  0.1929  0.2391
  191SLPC  C21822130   1.277   5.492   7.889  0.4415 -0.1717 -0.2075
  191SLPC  H18R22131   1.287   5.393   7.939  1.9732 -0.1508 -0.4209
  191SLPC  H18S22132   1.295   5.565   7.971  1.9480  0.0676 -0.7226
  191SLPC  H18T22133   1.366   5.501   7.823  0.9308  0.5828  0.5228
  191SLPC   C3322134   0.942   6.197   6.640 -0.1544  0.9237 -0.0495
  191SLPC   H3X22135   0.867   6.128   6.594  1.8434 -2.2111  1.0567
  191SLPC   H3Y22136   0.904   6.301   6.647  0.4782  1.4171 -2.7971
  191SLPC   C3422137   0.966   6.135   6.778 -0.0332 -0.8730 -0.3413
  191SLPC   H4X22138   1.057   6.179   6.824 -0.5797  0.8354 -0.8282
  191SLPC   H4Y22139   0.980   6.025   6.768 -1.5286 -1.0978 -0.1984
  191SLPC   C3522140   0.856   6.173   6.878 -0.1180 -0.3958 -0.1712
  191SLPC   H5X22141   0.753   6.146   6.847 -0.2726 -0.4221  0.3669
  191SLPC   H5Y22142   0.855   6.284   6.867 -1.3271 -0.1851  1.6491
  191SLPC   C3622143   0.897   6.127   7.016  0.3883  0.1555  0.3877
  191SLPC   H6X22144   0.978   6.195   7.051 -0.2945  0.8223  0.6813
  191SLPC   H6Y22145   0.928   6.020   7.007 -1.7003 -0.5624  1.1560
  191SLPC   C3722146   0.781   6.123   7.121  0.3905 -0.2184 -0.0041
  191SLPC   H7X22147   0.720   6.035   7.091 -1.8147  1.3655 -0.4691
  191SLPC   H7Y22148   0.710   6.207   7.108 -2.2433 -2.1980  0.7960
  191SLPC   C3822149   0.832   6.109   7.267  0.8663  0.5330  0.5449
  191SLPC   H8X22150   0.934   6.064   7.272 -0.1094 -1.6179  2.6503
  191SLPC   H8Y22151   0.762   6.033   7.308 -1.3757  1.5262 -1.1943
  191SLPC   C3922152   0.819   6.238   7.355  0.2653  0.8018 -0.3527
  191SLPC   H9X22153   0.722   6.290   7.342  0.6555  2.1740  1.6953
  191SLPC   H9Y22154   0.893   6.313   7.319  1.1788 -0.6190 -1.5402
  191SLPC  C31022155   0.853   6.207   7.503  0.4571 -0.4853  0.0206
  191SLPC  H10X22156   0.895   6.304   7.537  2.3299 -1.1368 -0.2927
  191SLPC  H10Y22157   0.942   6.141   7.509  0.4964 -0.5652 -1.0836
  191SLPC  C31122158   0.741   6.149   7.592  0.2856  0.0779 -0.7099
  191SLPC  H11X22159   0.725   6.052   7.541  2.4907  0.2276 -1.7976
  191SLPC  H11Y22160   0.650   6.214   7.593  1.3164  1.5999 -0.9866
  191SLPC  C31222161   0.784   6.127   7.739  0.7828 -0.1807 -0.5351
  191SLPC  H12X22162   0.689   6.105   7.794  1.2049 -1.1491 -0.1739
  191SLPC  H12Y22163   0.840   6.215   7.776  1.5144  0.4427 -2.9396
  191SLPC  C31322164   0.868   6.003   7.767  0.1721 -0.1842 -0.3932
  191SLPC  H13X22165   0.970   6.007   7.721  1.2035 -0.0705  1.8026
  191SLPC  H13Y22166   0.813   5.925   7.711 -0.3673 -1.2280  1.5336
  191SLPC  C31422167   0.867   5.963   7.915 -0.3548  0.1615 -0.0313
  191SLPC  H14X22168   0.914   5.863   7.909 -1.6109 -0.4004 -0.8365
  191SLPC  H14Y22169   0.761   5.960   7.947 -0.4440  1.6838 -0.1159
  191SLPC  C31522170   0.949   6.054   8.006  0.4174  0.2552  0.2267
  191SLPC  H15X22171   0.906   6.156   7.991 -0.4910 -0.3140 -1.2620
  191SLPC  H15Y22172   1.055   6.046   7.976  0.7666  1.4947  1.0139
  191SLPC  C31622173   0.946   6.008   8.155 -0.3411  1.1059  0.8192
  191SLPC  H16X22174   0.995   6.088   8.215 -0.8676  2.3645 -0.3714
  191SLPC  H16Y22175   1.007   5.916   8.162  0.1903  1.3443 -0.3439
  191SLPC  C31722176   0.805   5.982   8.214 -0.0525 -0.8244  0.2608
  191SLPC  H17X22177   0.810   5.948   8.319 -0.5093 -0.9328  0.2513
  191SLPC  H17Y22178   0.756   5.902   8.154 -2.1453 -0.3538  1.2437
  191SLPC  C31822179   0.715   6.109   8.214  0.0526 -0.0155  0.1896
  191SLPC  H18X22180   0.616   6.073   8.249 -1.4346  0.6475 -2.9597
  191SLPC  H18Y22181   0.703   6.164   8.118  2.2281  0.7643  0.3206
  191SLPC  H18Z22182   0.766   6.176   8.286  2.8179 -0.5280 -1.1681
  192SLPC     N22183   2.256   4.863   5.875 -0.3620 -0.2691  0.3407
  192SLPC   C1322184   2.195   4.910   5.737  0.7853  0.3241 -0.2522
  192SLPC  H13A22185   2.171   5.015   5.748  2.3894  0.5761  1.1856
  192SLPC  H13B22186   2.256   4.894   5.649 -0.9980  1.3971 -1.7646
  192SLPC  H13C22187   2.105   4.851   5.726 -0.8842  2.5784  0.4594
  192SLPC   C1422188   2.376   4.939   5.902 -0.2780 -0.2813  0.1625
  192SLPC  H14A22189   2.458   4.934   5.831  1.1533 -0.4197  1.7709
  192SLPC  H14B22190   2.363   5.046   5.903  1.1697  0.0047  3.7669
  192SLPC  H14C22191   2.420   4.929   6.000  3.1558  0.8726 -1.0767
  192SLPC   C1522192   2.281   4.719   5.856 -0.1727  0.3797  0.0372
  192SLPC  H15A22193   2.313   4.678   5.950  0.7063 -0.3589 -0.5748
  192SLPC  H15B22194   2.183   4.676   5.841 -1.1013  2.0443  1.0076
  192SLPC  H15C22195   2.358   4.700   5.783  1.0767  1.6596  0.9716
  192SLPC   C1222196   2.147   4.886   5.985 -0.0568 -0.6623 -0.1463
  192SLPC  H12A22197   2.047   4.855   5.954 -0.7592 -1.3005  2.4838
  192SLPC  H12B22198   2.142   4.990   6.011  0.8564 -1.0293  1.6534
  192SLPC   C1122199   2.177   4.815   6.119  0.7971  0.2699 -0.5649
  192SLPC  H11A22200   2.171   4.705   6.110 -1.7611  0.1387  1.7529
  192SLPC  H11B22201   2.094   4.848   6.185  0.4949 -0.6093 -0.4995
  192SLPC     P22202   2.414   4.766   6.228 -0.2206  0.0989  0.1066
  192SLPC   O1322203   2.417   4.636   6.154 -0.3376 -0.0908 -0.2844
  192SLPC   O1422204   2.548   4.834   6.208  0.0028 -0.1430 -0.8383
  192SLPC   O1222205   2.291   4.865   6.187  0.5424  0.3453 -0.0381
  192SLPC   O1122206   2.390   4.739   6.386  0.3726  0.0854  0.2006
  192SLPC    C122207   2.412   4.856   6.468 -0.4104 -0.7318 -0.0319
  192SLPC    HA22208   2.521   4.859   6.486 -0.2297  0.3429 -1.1968
  192SLPC    HB22209   2.390   4.952   6.418  0.7726 -0.2712  0.3018
  192SLPC    C222210   2.339   4.846   6.603 -0.8830 -0.0135  0.4328
  192SLPC    HS22211   2.346   4.747   6.652  2.9390 -0.2662 -0.3302
  192SLPC   O2122212   2.204   4.889   6.586 -0.0154 -0.6966 -0.3084
  192SLPC   C2122213   2.122   4.789   6.561  0.7383  0.1179 -0.2646
  192SLPC   O2222214   2.152   4.670   6.577  0.0777  0.6181  0.0301
  192SLPC   C2222215   1.980   4.843   6.548 -0.2696 -0.7320  0.2351
  192SLPC   H2R22216   1.970   4.915   6.633  2.6041 -0.8837  0.7736
  192SLPC   H2S22217   1.974   4.891   6.448  0.7218  0.1626  0.5840
  192SLPC    C322218   2.403   4.932   6.719 -0.5267  0.1298  0.1973
  192SLPC    HX22219   2.408   5.034   6.677  0.0333  0.0968  0.1754
  192SLPC    HY22220   2.507   4.897   6.733  0.7352  2.5987 -2.0886
  192SLPC   O3122221   2.326   4.934   6.840  0.2801 -0.1987 -0.3201
  192SLPC   C3122222   2.386   4.978   6.949  0.1566  0.7023 -0.5394
  192SLPC   O3222223   2.506   5.001   6.952 -0.0876 -0.1716  0.3852
  192SLPC   C3222224   2.286   5.017   7.058  0.8358 -0.1562 -0.2201
  192SLPC   H2X22225   2.212   4.935   7.069  0.6908 -0.4290 -2.6130
  192SLPC   H2Y22226   2.221   5.104   7.032  2.5552  1.1478 -0.3286
  192SLPC   C2322227   1.876   4.729   6.557 -0.1639 -0.0908 -0.2811
  192SLPC   H3R22228   1.906   4.649   6.487  2.5592  1.1475 -0.6412
  192SLPC   H3S22229   1.776   4.772   6.532  0.3262  1.1323 -0.1781
  192SLPC   C2422230   1.861   4.672   6.706  0.5732 -0.0809  0.1179
  192SLPC   H4R22231   1.864   4.755   6.780 -0.1373 -1.0712  1.2845
  192SLPC   H4S22232   1.953   4.610   6.712  0.4190 -0.4181 -0.8087
  192SLPC   C2522233   1.733   4.580   6.727 -0.3804 -0.2022  0.3724
  192SLPC   H5R22234   1.715   4.506   6.646  0.9926 -0.9910  0.7653
  192SLPC   H5S22235   1.643   4.644   6.742  0.2208  0.5768  0.7362
  192SLPC   C2622236   1.732   4.495   6.859 -0.4949  0.1083 -0.2083
  192SLPC   H6R22237   1.839   4.464   6.863 -0.5738 -0.3189 -1.2358
  192SLPC   H6S22238   1.685   4.395   6.852  2.1168 -1.1277 -2.0499
  192SLPC   C2722239   1.707   4.572   6.990 -0.1572  0.5884 -0.0185
  192SLPC   H7R22240   1.623   4.644   6.982 -0.3849  0.3938  0.5818
  192SLPC   H7S22241   1.804   4.624   7.005  0.4015 -1.1503  3.2645
  192SLPC   C2822242   1.686   4.472   7.101 -0.1574  0.5933 -1.0201
  192SLPC   H8R22243   1.619   4.392   7.062  0.1099  0.1166 -0.5091
  192SLPC   H8S22244   1.633   4.512   7.190  0.7383 -0.1303 -0.1365
  192SLPC   C2922245   1.818   4.413   7.136  0.2358  0.7874 -0.1759
  192SLPC   H9R22246   1.889   4.395   7.054 -0.9018 -1.7150 -0.7124
  192SLPC  C21022247   1.854   4.370   7.259  0.0916 -0.3159 -0.0248
  192SLPC  H10R22248   1.958   4.337   7.269  0.8588  1.8325 -0.2944
  192SLPC  C21122249   1.777   4.376   7.386  0.0595 -1.1249 -0.2332
  192SLPC  H11R22250   1.692   4.446   7.373  1.1484  0.3448  0.3214
  192SLPC  H11S22251   1.847   4.419   7.460  0.4475 -0.1786 -1.1164
  192SLPC  C21222252   1.722   4.248   7.435 -0.0441  0.0117  0.7462
  192SLPC  H12R22253   1.680   4.181   7.359  0.4697  1.7146 -1.1310
  192SLPC  C21322254   1.716   4.218   7.568  0.3467 -0.4687  0.7498
  192SLPC  H13R22255   1.676   4.117   7.584  0.5741 -0.8145 -0.7202
  192SLPC  C21422256   1.761   4.298   7.684 -0.2023 -0.4217 -0.6247
  192SLPC  H14R22257   1.676   4.318   7.753 -0.3034  1.9692 -1.3500
  192SLPC  H14S22258   1.807   4.397   7.660  0.2991 -0.4990  0.0021
  192SLPC  C21522259   1.865   4.226   7.762  0.1704  0.2614 -0.4330
  192SLPC  H15R22260   1.947   4.212   7.688 -0.5046 -0.3957 -1.0813
  192SLPC  H15S22261   1.834   4.123   7.787  0.7901 -0.1712 -1.3636
  192SLPC  C21622262   1.907   4.292   7.894 -0.6106 -0.3215  0.1088
  192SLPC  H16R22263   1.929   4.398   7.868  0.8320 -0.7843 -0.6380
  192SLPC  H16S22264   1.993   4.239   7.938 -0.6093 -0.7217 -0.3702
  192SLPC  C21722265   1.798   4.281   8.004  0.3223 -0.0699  0.2838
  192SLPC  H17R22266   1.720   4.359   8.008  1.9710  1.6209  1.3689
  192SLPC  H17S22267   1.750   4.182   7.994 -3.1194  1.5509 -0.5432
  192SLPC  C21822268   1.858   4.304   8.146  1.0014 -0.3445 -0.4696
  192SLPC  H18R22269   1.898   4.407   8.161 -0.1668  0.0068  0.3787
  192SLPC  H18S22270   1.929   4.226   8.181  2.0527  0.3682 -0.9429
  192SLPC  H18T22271   1.771   4.296   8.215 -0.3955 -0.5352 -2.2131
  192SLPC   C3322272   2.357   5.056   7.186 -0.8205 -0.4893  0.0779
  192SLPC   H3X22273   2.289   5.117   7.250 -0.3756  0.1740 -0.0844
  192SLPC   H3Y22274   2.449   5.115   7.171  0.0448 -0.6081  3.8702
  192SLPC   C3422275   2.390   4.927   7.265  0.0254 -0.3764  0.6159
  192SLPC   H4X22276   2.452   4.856   7.206  0.2633  0.7642 -0.5679
  192SLPC   H4Y22277   2.291   4.885   7.293  1.1289 -2.5676  1.4217
  192SLPC   C3522278   2.468   4.952   7.392 -0.5708  0.2647 -0.3397
  192SLPC   H5X22279   2.429   5.048   7.433  0.1844 -0.7022  3.0036
  192SLPC   H5Y22280   2.575   4.969   7.368  0.0640  0.6972  2.3758
  192SLPC   C3622281   2.462   4.841   7.498  0.7344  0.4975  0.1099
  192SLPC   H6X22282   2.489   4.741   7.458 -3.0330 -1.4028  1.7942
  192SLPC   H6Y22283   2.357   4.837   7.534  1.0333  1.7162  1.1955
  192SLPC   C3722284   2.545   4.879   7.624  0.4521  0.8432  0.5529
  192SLPC   H7X22285   2.501   4.970   7.672  0.4950  0.7113  0.8432
  192SLPC   H7Y22286   2.646   4.909   7.588  0.8886 -0.4699  0.6370
  192SLPC   C3822287   2.552   4.765   7.732  0.1480 -0.2222  0.4073
  192SLPC   H8X22288   2.571   4.669   7.678  1.9425 -0.2383  0.9748
  192SLPC   H8Y22289   2.456   4.746   7.784 -0.1491  0.1146 -0.0086
  192SLPC   C3922290   2.659   4.805   7.832 -0.4865  0.4746 -0.3481
  192SLPC   H9X22291   2.628   4.889   7.897  0.5814 -0.6115  1.6830
  192SLPC   H9Y22292   2.738   4.854   7.773  0.4174 -0.2941  0.1969
  192SLPC  C31022293   2.697   4.685   7.929 -0.3221 -0.4086 -0.1195
  192SLPC  H10X22294   2.708   4.592   7.869 -2.5613 -0.2859 -0.7921
  192SLPC  H10Y22295   2.608   4.666   7.992 -1.3614  0.8441 -1.1284
  192SLPC  C31122296   2.798   4.724   8.029 -0.0832 -0.0573 -0.0623
  192SLPC  H11X22297   2.778   4.831   8.053 -1.0412 -0.3434  0.4941
  192SLPC  H11Y22298   2.900   4.716   7.987 -0.3750 -0.7394 -0.6703
  192SLPC  C31222299   2.795   4.647   8.163  0.7139  0.1747 -0.2816
  192SLPC  H12X22300   2.690   4.626   8.194  1.1602 -0.1013  1.1409
  192SLPC  H12Y22301   2.832   4.717   8.241 -1.2960  2.3660 -1.1584
  192SLPC  C31322302   2.863   4.510   8.155 -0.5479 -0.2788  0.4592
  192SLPC  H13X22303   2.963   4.523   8.107 -1.1010  0.0775 -0.6277
  192SLPC  H13Y22304   2.803   4.444   8.090 -2.5326  1.4336  0.4411
  192SLPC  C31422305   2.883   4.444   8.294 -0.1505 -0.4731  0.3424
  192SLPC  H14X22306   2.863   4.513   8.379 -0.5385 -0.1935  0.0285
  192SLPC  H14Y22307   2.986   4.402   8.299  0.3071  0.5151 -0.4473
  192SLPC  C31522308   2.779   4.342   8.327  0.5650 -0.1063 -0.3389
  192SLPC  H15X22309   2.787   4.255   8.258  2.7438  0.4927 -0.9115
  192SLPC  H15Y22310   2.679   4.383   8.303  1.4222  1.5554 -1.2833
  192SLPC  C31622311   2.790   4.285   8.464  0.3760  0.4510  0.1232
  192SLPC  H16X22312   2.783   4.372   8.534 -0.2018  1.5296 -1.2233
  192SLPC  H16Y22313   2.880   4.221   8.467 -1.2368 -2.3343 -3.6727
  192SLPC  C31722314   2.685   4.173   8.497  0.7182  0.3239 -0.1626
  192SLPC  H17X22315   2.724   4.072   8.472  1.5750  0.3300  1.0923
  192SLPC  H17Y22316   2.600   4.182   8.426 -0.4355 -1.9807  0.8241
  192SLPC  C31822317   2.625   4.161   8.640  0.3109 -0.4210 -0.0288
  192SLPC  H18X22318   2.556   4.074   8.650 -0.1570  0.1142  1.7334
  192SLPC  H18Y22319   2.570   4.251   8.676  0.4480 -0.8612  1.3333
  192SLPC  H18Z22320   2.702   4.142   8.717  1.3768  1.8469 -0.4632
  193SOD    SOD22321   4.088   4.780  11.004  0.1547  0.6220  0.5736
  194SOD    SOD22322   4.888   2.397   3.644  0.6274  0.0625  0.1240
  195SOD    SOD22323   5.242   5.844  15.504  0.2769  0.2519  0.0283
  196SOD    SOD22324   6.665   3.093  14.065 -0.2636 -0.1294 -0.3624
  197SOD    SOD22325   5.113   1.377  12.007  0.0046  0.0365  0.2885
  198SOD    SOD22326   1.323   6.465   0.068  0.0731 -0.4546  0.0834
  199SOD    SOD22327   6.281   5.173   2.165 -0.2637 -0.4914 -0.0676
  200SOD    SOD22328   0.212   5.138   4.753 -0.3187 -0.3209 -0.3661
  201SOD    SOD22329   2.050   0.978  11.493  0.3934  0.1639  0.2373
  202SOD    SOD22330   5.769   3.374   5.629 -0.5865 -0.1792  0.5899
  203SOD    SOD22331   5.723   6.727   2.310 -0.3060 -0.5305 -0.3559
  204SOD    SOD22332   1.055   0.699  13.668 -0.0958 -0.0325 -0.2885
  205SOD    SOD22333   2.700   2.214  16.433  0.4333 -0.1001  0.2078
  206SOD    SOD22334   2.352   2.577   3.476  0.0930  0.7067 -0.4138
  207SOD    SOD22335   6.093   0.746  15.614 -0.2887  0.0053  0.5694
  208SOD    SOD22336   3.195   1.261   0.602  0.4170 -0.3875  0.0660
  209SOD    SOD22337   5.341   0.582   1.706 -0.2582  0.3603 -0.0183
  210SOD    SOD22338   5.210   1.540  10.881 -0.1459  0.3310  0.2600
  211SOD    SOD22339   4.917   3.626   4.664 -0.4448 -0.0284 -0.1099
  212SOD    SOD22340   5.580   1.499  15.282 -0.1065 -0.1847  0.2694
  213SOD    SOD22341   2.545   1.749  14.241  0.7414  0.0960  0.0980
  214SOD    SOD22342   4.125   4.003  16.240 -0.0233  0.5158 -0.1923
  215SOD    SOD22343   6.204   2.332  12.592 -0.1577 -0.1485  0.1173
  216SOD    SOD22344   0.933   3.942   6.143 -0.1892 -0.1963 -0.0165
  217SOD    SOD22345   6.446   3.974   1.675  0.0664 -0.2914  0.3167
  218SOD    SOD22346   5.836   5.602  13.570 -0.5123 -0.2930  0.4360
  219SOD    SOD22347   3.529   4.821  13.996  0.1246 -0.1179  0.0187
  220SOD    SOD22348   4.114   1.493  13.671 -0.3365 -0.4498 -0.0820
  221SOD    SOD22349   0.294   6.023   5.010  0.3870  0.5773  0.0602
  222SOD    SOD22350   1.466   3.021   3.641  1.0449  0.4090  0.1942
  223SOD    SOD22351   6.064   5.462   6.266 -0.5395 -0.1837 -0.5463
  224SOD    SOD22352   3.129   2.671   1.917  0.2394  0.3418  0.1916
  225SOD    SOD22353   4.674   2.336  10.851 -0.1383 -0.3268  0.3420
  226SOD    SOD22354   3.473   1.168   5.615  0.1062 -0.3140 -0.5893
  227SOD    SOD22355   4.624   6.343   5.751  0.1000 -0.6549 -0.0350
  228SOD    SOD22356   0.122   5.607   1.969  0.1600  0.0479 -0.3627
  229SOD    SOD22357   6.844   5.563  14.712  0.0961  0.0174 -0.2827
  230SOD    SOD22358   0.642   6.043   5.222 -0.4645  0.0550  0.3885
  231SOD    SOD22359   2.594   1.560   5.944  0.0179  0.1476  0.5240
  232SOD    SOD22360   2.209   2.141   6.245  0.0584 -0.0397 -0.0459
  233SOD    SOD22361   2.918   5.299   2.709  0.2709 -0.0519 -0.2635
  234SOD    SOD22362   2.951   1.152   4.173  0.2284 -0.2314 -0.1854
  235SOD    SOD22363   6.554   4.251  17.072 -0.0635 -0.0620  0.2512
  236SOD    SOD22364   6.130   1.840   0.434 -0.0835  0.0294 -0.3480
  237SOD    SOD22365   6.390   2.357  11.149  0.3093 -0.3289  0.1513
  238SOD    SOD22366   3.352   2.208   0.240  0.0666 -0.2003  0.2861
  239SOD    SOD22367   4.294   5.788   1.904  0.1093 -0.1131  0.3039
  240SOD    SOD22368   0.932   6.831   2.475  0.5469 -0.1998 -0.1283
  241SOD    SOD22369   2.298   5.943   2.208  0.1947  0.4062 -0.0997
  242SOD    SOD22370   2.077   4.680  11.308  0.1019  0.1828  0.3060
  243SOD    SOD22371   0.379   4.666  11.015  0.3574  0.0195 -0.0611
  244SOD    SOD22372   5.118   5.806   5.896  0.3207 -0.1336 -0.1472
  245SOD    SOD22373   2.170   5.012  13.615  0.3279 -0.3171 -0.3253
  246SOD    SOD22374   5.092   4.292   1.535  0.0012  0.1012  0.3142
  247SOD    SOD22375   5.831   0.397  12.196 -0.6184  0.0440  0.7008
  248SOD    SOD22376   0.765   1.554   2.796  0.5736  0.0888  0.0618
  249SOD    SOD22377   4.789   5.228  15.092  0.0800 -0.2073  0.1469
  250SOD    SOD22378   1.095   2.183  15.276 -0.3003 -0.1393 -0.2414
  251SOD    SOD22379   1.701   2.846   0.952  0.3081 -0.5148 -0.5523
  252SOD    SOD22380   3.346   2.242  11.746  0.0473 -0.0273  0.1712
  253SOD    SOD22381   3.392   1.393  13.371  0.0531 -0.2399 -0.1999
  254SOD    SOD22382   3.517   1.997  16.532 -0.5692 -0.1542  0.2956
  255SOD    SOD22383   2.617   4.805   2.328  0.1649 -0.3292 -0.2083
  256SOD    SOD22384   3.379   6.565   4.615  0.1397  0.1073  0.2456
  257SOD    SOD22385   2.929   4.520   6.014  0.1856 -0.1137  0.1894
  258SOD    SOD22386   2.100   3.768  10.739  0.5597  0.2617 -0.1195
  259SOD    SOD22387   4.434   3.313   1.877  0.4142  0.4525  0.2518
  260SOD    SOD22388   2.838   5.607  11.754  0.1778 -0.3019  0.0069
  261SOD    SOD22389   3.420   3.695  11.814  0.0679 -0.0381  0.5665
  262SOD    SOD22390   3.501   5.338   6.474  0.6013  0.1764 -0.0893
  263SOD    SOD22391   6.656   4.811   5.658 -0.2475 -0.4580 -0.0560
  264SOD    SOD22392   4.521   5.114  13.813 -0.0970 -0.0664  0.3507
  265SOD    SOD22393   2.336   2.095   5.461  0.0848 -0.1719 -0.2299
  266CLA    CLA22394   1.607   0.019  14.740 -0.1640 -0.2685  0.2724
  267CLA    CLA22395   3.253   1.964  16.497 -0.2024  0.1533  0.0222
  268CLA    CLA22396   2.941   5.038   2.805  0.2279 -0.1344 -0.2444
  269CLA    CLA22397   1.086   1.218  12.660 -0.2110  0.0095  0.4568
  270CLA    CLA22398   2.468   3.590   5.008  0.2427 -0.5427  0.1406
  271CLA    CLA22399   2.549   3.935  15.528  0.0512  0.2479  0.0561
  272CLA    CLA22400   3.329   1.967   2.806 -0.3501  0.5223  0.1284
  273CLA    CLA22401   4.010   3.748   5.626 -0.1258  0.4280 -0.2272
  274CLA    CLA22402   0.293   1.638  16.093  0.0650 -0.4331  0.0362
  275CLA    CLA22403   6.548   6.380   4.674  0.4596  0.2137  0.2351
  276CLA    CLA22404   5.598   3.974  16.543 -0.2880  0.0210 -0.0860
  277CLA    CLA22405   0.141   5.752   5.329 -0.2260 -0.2394 -0.1543
  278CLA    CLA22406   4.752   4.031   1.250 -0.6450  0.0964  0.2579
  279CLA    CLA22407   2.660   1.858   5.160  0.2318 -0.0890  0.2057
  280CLA    CLA22408   4.972   3.352   1.378  0.1034  0.0452  0.1534
  281CLA    CLA22409   6.468   0.441   2.294  0.1093 -0.1153  0.1337
  282CLA    CLA22410   4.644   0.939  15.873 -0.2974  0.4153 -0.1410
  283CLA    CLA22411   4.796   5.524   4.997 -0.5417 -0.1021 -0.4924
  284CLA    CLA22412   3.961   3.326   2.060 -0.0864 -0.4730 -0.0171
  285CLA    CLA22413   1.840   6.260   2.485 -0.1177  0.2807  0.4324
  286CLA    CLA22414   4.731   6.408   0.317  0.1322 -0.0652  0.2899
  287CLA    CLA22415   0.838   6.817   3.336  0.4202  0.0341 -0.0148
  288CLA    CLA22416   4.926   5.402  13.950  0.0386 -0.0844  0.3360
  289CLA    CLA22417   4.262   1.298  12.961  0.0671  0.0846  0.3200
  290CLA    CLA22418   0.163   4.113   1.371  0.2669 -0.2669 -0.2024
  291CLA    CLA22419   2.640   5.668   2.177 -0.5034  0.0501 -0.3345
  292CLA    CLA22420   1.397   0.058   2.470 -0.0955  0.4781 -0.5469
  293CLA    CLA22421   6.301   2.384   1.707  0.7321  0.1612  0.2255
  294CLA    CLA22422   4.954   4.124   0.107 -0.1954  0.4193  0.0223
  295CLA    CLA22423   4.982   6.063  13.553 -0.5022  0.0756 -0.2542
  296CLA    CLA22424   4.294   1.336   0.197  0.2497 -0.1424 -0.2442
  297CLA    CLA22425   1.378   5.531  12.115  0.0568 -0.1943  0.4219
  298CLA    CLA22426   4.049   3.005  14.024  0.1409 -0.0012 -0.0204
  299CLA    CLA22427   6.607   3.186   2.850 -0.0768  0.3947  0.2228
  300CLA    CLA22428   2.350   3.914  16.625  0.1060  0.0269 -0.3170
  301CLA    CLA22429   2.144   2.132  13.514  0.1691 -0.4950  0.1844
  302CLA    CLA22430   1.987   1.988   3.738  0.1613  0.4260  0.3014
  303CLA    CLA22431   5.734   0.377  13.184  0.3194 -0.0267 -0.4717
  304CLA    CLA22432   0.935   1.511   4.217 -0.1428  0.1123 -0.1949
  305CLA    CLA22433   1.536   3.344  14.710 -0.4266 -0.2246  0.1568
  306CLA    CLA22434   3.945   4.859  11.386  0.1163 -0.0209 -0.2896
  307CLA    CLA22435   3.947   3.318   5.398  0.1353 -0.1447 -0.0676
  308CLA    CLA22436   1.254   1.478  12.358 -0.0781  0.2154  0.3475
  309CLA    CLA22437   4.947   6.622   6.171  0.0113  0.2583  0.1397
  310CLA    CLA22438   4.670   6.143   2.377  0.0563  0.1680  0.7970
  311CLA    CLA22439   3.873   1.042   1.991  0.0646 -0.3073  0.5939
  312CLA    CLA22440   5.667   1.385  12.118 -0.1992 -0.1972  0.4396
  313CLA    CLA22441   1.897   3.677   3.979 -0.1357  0.0170  0.1558
  314CLA    CLA22442   4.774   0.674   1.230  0.2507 -0.1529  0.1559
  315CLA    CLA22443   0.614   6.398  12.117  0.0561 -0.0034  0.2568
  316CLA    CLA22444   6.371   5.279   0.671  0.1693 -0.3750 -0.3651
  317CLA    CLA22445   3.551   1.941   4.669  0.1668  0.1066  0.1069
  318CLA    CLA22446   2.016   0.812  15.019  0.3039 -0.2150  0.1335
  319TIP3   OH222447   6.472   4.331   2.811 -0.0918 -0.4912  0.5278
  319TIP3    H122448   6.408   4.272   2.851  0.3410 -3.0835 -2.1872
  319TIP3    H222449   6.430   4.361   2.730  0.9620  0.2911  0.2477
  320TIP3   OH222450   6.776   0.104  15.787 -0.0632 -0.4206  0.6132
  320TIP3    H122451   6.819   0.158  15.721  0.4634 -0.3571  1.0046
  320TIP3    H222452   6.689   0.088  15.751 -0.5715  1.4624  0.9103
  321TIP3   OH222453   4.157   0.821   1.051 -0.0051  0.2029  0.2527
  321TIP3    H122454   4.229   0.765   1.083  0.3907  0.0612 -0.8458
  321TIP3    H222455   4.173   0.828   0.957 -1.4013  0.2365  0.0022
  322TIP3   OH222456   0.749   2.620   5.216 -0.3032 -0.4359  0.1396
  322TIP3    H122457   0.675   2.671   5.248  0.2176  0.4250  0.0076
  322TIP3    H222458   0.823   2.680   5.220  0.2884 -1.1248 -0.2156
  323TIP3   OH222459   4.039   2.720   4.793  0.1032  0.2593 -0.0086
  323TIP3    H122460   3.978   2.647   4.779  0.7738 -0.7530  1.9230
  323TIP3    H222461   4.016   2.753   4.880  0.2679  1.9400 -0.5681
  324TIP3   OH222462   4.074   1.428  13.888 -0.0294  0.0132 -0.1841
  324TIP3    H122463   3.998   1.484  13.899  0.0167  0.5277 -2.0374
  324TIP3    H222464   4.146   1.475  13.931 -0.4911  0.1428  0.4514
  325TIP3   OH222465   0.358   2.097  14.636  0.0123 -0.1952  0.6071
  325TIP3    H122466   0.426   2.033  14.614  0.1913  0.5499 -1.1492
  325TIP3    H222467   0.284   2.073  14.582 -0.3413  0.3603  0.8357
  326TIP3   OH222468   2.742   6.504   1.999 -0.8221  0.5759 -0.3741
  326TIP3    H122469   2.837   6.516   2.005 -1.1803  3.4992  1.4561
  326TIP3    H222470   2.729   6.410   2.012  1.7760  0.1859 -0.0922
  327TIP3   OH222471   0.633   6.051  11.476  0.2298  0.4117 -0.0720
  327TIP3    H122472   0.683   6.080  11.552  0.4285 -0.8847  0.3085
  327TIP3    H222473   0.542   6.052  11.505  0.2658  0.3369  0.0430
  328TIP3   OH222474   1.512   1.408  11.657  0.2263  0.5387  0.6058
  328TIP3    H122475   1.567   1.444  11.587 -0.2506  1.6162  0.7628
  328TIP3    H222476   1.569   1.347  11.703  1.5469  2.1294  1.1988
  329TIP3   OH222477   3.542   0.980  13.592  0.6770 -0.2176  0.2181
  329TIP3    H122478   3.452   1.010  13.582  1.1954  1.1820 -0.6578
  329TIP3    H222479   3.538   0.886  13.580 -0.5142 -0.0389 -0.9815
  330TIP3   OH222480   6.392   3.328   4.502  0.3203 -0.6376  0.0732
  330TIP3    H122481   6.486   3.325   4.486  0.2105  0.4468 -0.9265
  330TIP3    H222482   6.365   3.237   4.510  1.4167 -0.9626  0.1717
  331TIP3   OH222483   0.631   4.563   5.107  0.1634  0.1334  0.7114
  331TIP3    H122484   0.550   4.578   5.155  0.2010 -1.5150  1.3108
  331TIP3    H222485   0.606   4.574   5.015 -0.6455  0.0190  0.9125
  332TIP3   OH222486   3.392   1.194   2.453  0.0177 -0.4015 -0.9162
  332TIP3    H122487   3.477   1.237   2.458 -0.6614  0.9236  2.4545
  332TIP3    H222488   3.329   1.263   2.475 -1.6390 -1.9479 -0.5646
  333TIP3   OH222489   1.544   0.766  15.034 -0.5157 -0.4498 -1.0376
  333TIP3    H122490   1.536   0.778  14.940 -1.4678  1.0245 -0.7821
  333TIP3    H222491   1.457   0.740  15.063  0.0426 -2.1098 -0.6869
  334TIP3   OH222492   0.981   3.752   4.550 -0.4015  0.4155 -0.5154
  334TIP3    H122493   1.060   3.767   4.602  0.5601  2.0310 -2.3334
  334TIP3    H222494   0.963   3.837   4.509 -1.7064 -0.5449 -2.0279
  335TIP3   OH222495   0.420   3.074  16.298 -0.1413  0.1008 -0.2146
  335TIP3    H122496   0.451   3.030  16.377 -0.7936  0.7687  0.4295
  335TIP3    H222497   0.480   3.045  16.230 -0.8087 -2.1494  0.0617
  336TIP3   OH222498   1.084   5.465  15.661 -0.7686 -0.1024 -0.0390
  336TIP3    H122499   1.171   5.474  15.700 -0.2078  0.9421 -1.4239
  336TIP3    H222500   1.064   5.372  15.667  0.0775 -0.2268  1.0589
  337TIP3   OH222501   0.670   0.049  16.850  0.1760  0.1108  0.1739
  337TIP3    H122502   0.575   0.053  16.840  0.1024  1.8681  1.3070
  337TIP3    H222503   0.685  -0.028  16.905 -0.7805  1.0187  1.7736
  338TIP3   OH222504   2.208   0.906   4.608 -0.3447  0.2651 -0.0965
  338TIP3    H122505   2.239   0.925   4.520  1.3324  0.6284  0.5219
  338TIP3    H222506   2.286   0.918   4.664 -1.1169 -0.8717  1.3114
  339TIP3   OH222507   6.739   6.700  12.558 -0.2993  0.1188  0.0454
  339TIP3    H122508   6.752   6.664  12.470 -0.1022 -0.4155  0.2908
  339TIP3    H222509   6.755   6.794  12.548  0.5973 -0.0607 -0.3208
  340TIP3   OH222510   6.588   1.877   2.825 -0.0453 -0.3307  0.1887
  340TIP3    H122511   6.543   1.839   2.900 -0.8847  0.0270 -0.1213
  340TIP3    H222512   6.589   1.806   2.760 -0.0551 -0.3778  0.2398
  341TIP3   OH222513   2.798   5.992   3.387 -0.1275  0.4233 -0.1288
  341TIP3    H122514   2.754   6.068   3.350 -1.7746 -0.8671 -0.9412
  341TIP3    H222515   2.807   5.931   3.314  0.3228 -0.5221  0.6912
  342TIP3   OH222516   3.147   4.799   4.483 -0.3742 -0.1272  0.4772
  342TIP3    H122517   3.151   4.802   4.388 -1.3878 -3.2677  0.2019
  342TIP3    H222518   3.195   4.876   4.512  1.1580  0.2091 -2.5502
  343TIP3   OH222519   6.762   0.150   4.817 -0.3996  0.5047 -0.2924
  343TIP3    H122520   6.774   0.057   4.835 -2.5981  0.1946 -0.1755
  343TIP3    H222521   6.767   0.192   4.903  0.7432  0.5499 -0.3613
  344TIP3   OH222522   1.648   0.396   4.527 -0.1778 -1.0830  0.1889
  344TIP3    H122523   1.667   0.302   4.522  0.1491 -1.2547  2.9428
  344TIP3    H222524   1.563   0.401   4.572 -0.6697 -0.0607 -0.8218
  345TIP3   OH222525   2.512   0.954  11.471 -0.2990 -0.5616 -0.4353
  345TIP3    H122526   2.531   0.894  11.399 -1.1472 -1.9943  0.4873
  345TIP3    H222527   2.589   0.948  11.528 -0.7588 -1.4967  0.1090
  346TIP3   OH222528   3.486   2.840   0.360 -0.6064  0.0840  0.3561
  346TIP3    H122529   3.444   2.921   0.389 -0.6954  0.2726 -0.2734
  346TIP3    H222530   3.459   2.831   0.269  1.8310  0.9698 -0.5439
  347TIP3   OH222531   3.521   1.643  15.501 -0.6426  0.4153 -0.2225
  347TIP3    H122532   3.431   1.638  15.532 -0.3334 -0.6396  0.5985
  347TIP3    H222533   3.527   1.574  15.435  0.0856 -1.0326  1.2670
  348TIP3   OH222534   5.748   4.870  16.460  0.2338 -0.4616 -0.5216
  348TIP3    H122535   5.795   4.851  16.541 -0.6185  1.9744  0.6407
  348TIP3    H222536   5.700   4.790  16.441 -0.7520 -0.6472  2.2613
  349TIP3   OH222537   3.207   4.146  12.286  0.0457 -0.3072  0.8284
  349TIP3    H122538   3.138   4.170  12.224  0.9678  2.0532  0.6077
  349TIP3    H222539   3.160   4.119  12.365 -1.1136 -0.3682  0.1453
  350TIP3   OH222540   3.078   3.626   1.328  0.0210 -0.6887 -0.2532
  350TIP3    H122541   3.108   3.554   1.272  1.9573  0.4707 -0.8196
  350TIP3    H222542   2.984   3.631   1.312  0.1313 -1.9471 -1.5727
  351TIP3   OH222543   6.232   0.542  13.766  0.1681  0.0309  0.2668
  351TIP3    H122544   6.272   0.613  13.716  2.0249 -0.9520  0.2573
  351TIP3    H222545   6.268   0.462  13.728 -0.8487 -0.8776  1.1272
  352TIP3   OH222546   0.355   0.459   1.501  0.4218 -0.2631 -0.0739
  352TIP3    H122547   0.374   0.366   1.495  0.0283 -0.3473 -0.0540
  352TIP3    H222548   0.278   0.471   1.445  1.4369  0.3321 -1.4175
  353TIP3   OH222549   6.663   2.594  10.862  0.5649  0.1129  0.2207
  353TIP3    H122550   6.665   2.661  10.794  2.4692  1.1003  1.1512
  353TIP3    H222551   6.655   2.511  10.815  1.1638  0.8137 -1.1596
  354TIP3   OH222552   1.175   4.667   1.749  0.4199 -0.3764  0.2243
  354TIP3    H122553   1.238   4.603   1.781 -0.0087 -0.4682  0.9128
  354TIP3    H222554   1.185   4.665   1.654  0.8375 -1.0241  0.2739
  355TIP3   OH222555   2.588   3.937  11.160 -0.0322  0.6563 -0.1434
  355TIP3    H122556   2.675   3.971  11.142  0.6891 -0.4447  1.0918
  355TIP3    H222557   2.576   3.867  11.096 -0.5967  1.7212 -1.2210
  356TIP3   OH222558   4.888   6.421   0.060 -0.6329  0.2215  0.0448
  356TIP3    H122559   4.827   6.391   0.127 -0.4713  1.8288  0.9641
  356TIP3    H222560   4.841   6.490   0.014  0.0630  0.6962  0.0193
  357TIP3   OH222561   1.526   0.773   2.471  0.1042 -0.9481 -0.6485
  357TIP3    H122562   1.475   0.765   2.551 -0.7868  1.3248 -0.9030
  357TIP3    H222563   1.466   0.749   2.401  0.2470 -0.9971 -0.7545
  358TIP3   OH222564   6.266   5.524  15.170  0.0054 -0.1357 -0.0284
  358TIP3    H122565   6.338   5.547  15.111 -1.0316 -0.1521 -1.3556
  358TIP3    H222566   6.307   5.474  15.240  1.3451  0.2290 -0.5226
  359TIP3   OH222567   3.606   5.624  15.388 -0.0284  0.2243  0.4927
  359TIP3    H122568   3.631   5.538  15.421 -2.7749 -1.4794 -1.4943
  359TIP3    H222569   3.600   5.678  15.467  1.6864 -1.3479  1.8112
  360TIP3   OH222570   0.130   0.746   2.681 -0.4543  0.3185  0.0225
  360TIP3    H122571   0.223   0.723   2.673  0.0281  1.4453  1.8050
  360TIP3    H222572   0.084   0.673   2.640  1.1643 -1.1406  0.6652
  361TIP3   OH222573   4.855   3.647  14.336  0.0459 -0.8378 -0.4854
  361TIP3    H122574   4.842   3.729  14.383  0.1412 -1.1733  0.1500
  361TIP3    H222575   4.944   3.620  14.360 -0.5466 -1.9216  0.6177
  362TIP3   OH222576   4.019   2.210   0.382 -0.0074 -0.4829  0.6855
  362TIP3    H122577   3.964   2.265   0.326 -0.4177  0.0670  1.5955
  362TIP3    H222578   4.032   2.263   0.461  1.0587 -0.9937  0.8637
  363TIP3   OH222579   1.422   4.934  16.040  0.4619  0.3992 -0.4480
  363TIP3    H122580   1.387   4.956  15.954  0.2883 -1.1840 -0.8092
  363TIP3    H222581   1.422   4.839  16.042  0.2725  0.4094  1.3895
  364TIP3   OH222582   5.037   1.377  12.533  0.1571  0.3024  0.2824
  364TIP3    H122583   4.975   1.437  12.493 -2.4076 -1.8381  0.7742
  364TIP3    H222584   5.048   1.410  12.623  0.5813  1.2621 -0.1093
  365TIP3   OH222585   6.489   4.446  12.244 -0.3776 -0.2263  0.4206
  365TIP3    H122586   6.492   4.527  12.194 -0.2809  0.6445  1.7867
  365TIP3    H222587   6.464   4.379  12.180  2.7117  0.2468 -1.4527
  366TIP3   OH222588   2.100   5.473  11.968 -0.1209 -0.0204  0.0258
  366TIP3    H122589   2.088   5.383  11.999  0.2175 -0.2949 -0.6297
  366TIP3    H222590   2.053   5.526  12.032  0.4654 -0.5873  0.9572
  367TIP3   OH222591   1.498   2.733  11.374 -0.3537 -0.6882  0.1514
  367TIP3    H122592   1.533   2.694  11.454  1.8025  0.5665 -0.0811
  367TIP3    H222593   1.534   2.678  11.304 -0.8430 -0.7934 -0.0160
  368TIP3   OH222594   0.656   4.552  16.672  0.3021  0.2273 -0.1984
  368TIP3    H122595   0.736   4.570  16.622  0.8999  1.4784  1.1239
  368TIP3    H222596   0.607   4.634  16.670 -0.2130 -0.0609  0.3052
  369TIP3   OH222597   2.245   2.408   2.396 -0.1063 -0.0035  0.1180
  369TIP3    H122598   2.219   2.375   2.482  1.8518 -1.4860  0.2080
  369TIP3    H222599   2.301   2.483   2.416  2.0961 -1.6101  0.3090
  370TIP3   OH222600   1.099   3.986   3.834  0.0790 -0.2968  0.1417
  370TIP3    H122601   1.172   3.986   3.895 -0.2539 -0.9057  0.5487
  370TIP3    H222602   1.135   3.952   3.753  0.4870  0.3788  0.0312
  371TIP3   OH222603   1.603   3.127  15.080 -0.1289  0.2407 -0.2480
  371TIP3    H122604   1.615   3.222  15.077  2.4361  0.0757  1.4322
  371TIP3    H222605   1.636   3.096  14.996 -1.1425  0.8233 -0.8758
  372TIP3   OH222606   3.458   3.680   2.953 -0.0911 -0.7959 -0.4428
  372TIP3    H122607   3.411   3.728   2.885 -0.7416  1.0567  1.2343
  372TIP3    H222608   3.507   3.747   3.000 -1.8701 -1.4941  2.6831
  373TIP3   OH222609   6.024   6.740  14.755  0.2511 -0.3431 -0.2972
  373TIP3    H122610   6.053   6.660  14.712  0.7471 -1.1008  1.3732
  373TIP3    H222611   5.999   6.713  14.844 -4.1088  0.5208 -1.0212
  374TIP3   OH222612   5.011   5.334   4.421  0.4185 -0.0510  0.3171
  374TIP3    H122613   4.940   5.271   4.435 -0.3821  0.6301 -0.5607
  374TIP3    H222614   5.010   5.389   4.500  0.5701 -0.5925  0.7071
  375TIP3   OH222615   3.992   2.058   4.680 -0.7633  0.1113 -0.2962
  375TIP3    H122616   3.982   2.142   4.726 -2.3747 -0.6219  0.7570
  375TIP3    H222617   4.036   2.001   4.743  1.5820  0.4586 -1.4698
  376TIP3   OH222618   5.448   2.889   5.320  0.0197 -0.2824 -0.2092
  376TIP3    H122619   5.493   2.840   5.250 -0.3110  0.8488 -1.2558
  376TIP3    H222620   5.518   2.915   5.379  0.6272  0.4853 -1.2237
  377TIP3   OH222621   4.922   1.408   3.546 -0.7622  0.4303  0.3442
  377TIP3    H122622   4.834   1.407   3.508 -1.1276  0.0033  1.1608
  377TIP3    H222623   4.951   1.317   3.543  0.0075  0.7016 -0.6955
  378TIP3   OH222624   2.071   0.313   0.175 -0.5278  0.0696 -0.0044
  378TIP3    H122625   2.152   0.262   0.168 -2.4655 -3.4991  0.9952
  378TIP3    H222626   2.013   0.273   0.110 -1.7920  1.9719 -0.0985
  379TIP3   OH222627   3.387   1.887  14.199  0.0153  0.0046 -0.3033
  379TIP3    H122628   3.321   1.928  14.255 -0.3978 -1.8092  0.6363
  379TIP3    H222629   3.340   1.864  14.119 -0.2092 -0.2482 -0.1010
  380TIP3   OH222630   5.673   6.558   1.414 -0.1778  0.3513 -0.1038
  380TIP3    H122631   5.642   6.470   1.437  0.6601  0.2363  0.6491
  380TIP3    H222632   5.761   6.564   1.453 -0.1140  1.4261 -0.3674
  381TIP3   OH222633   2.187   4.138   5.242 -0.3935 -0.1546 -0.0688
  381TIP3    H122634   2.158   4.204   5.305 -2.3367  0.3970 -1.4459
  381TIP3    H222635   2.106   4.104   5.205  0.6576 -1.6975 -1.0308
  382TIP3   OH222636   6.021   4.795   1.749  0.0407  0.5810  0.6992
  382TIP3    H122637   6.036   4.889   1.745  1.3711  0.4071  1.0390
  382TIP3    H222638   6.107   4.757   1.765 -0.0621 -0.8394 -1.4938
  383TIP3   OH222639   5.545   2.852   1.103 -0.3987  0.2176 -0.5653
  383TIP3    H122640   5.602   2.870   1.177  0.2287 -2.5815 -0.2718
  383TIP3    H222641   5.458   2.844   1.141 -0.8977  3.1767 -0.8374
  384TIP3   OH222642   0.977   4.940   6.009  0.0446  0.3081  0.2292
  384TIP3    H122643   1.061   4.904   5.980  2.2501  4.2262  1.1201
  384TIP3    H222644   0.938   4.976   5.929  0.4890  0.7899  0.2253
  385TIP3   OH222645   6.728   2.333   3.715  0.3288 -0.6219 -0.1380
  385TIP3    H122646   6.718   2.275   3.790  0.0016 -0.3222  0.0537
  385TIP3    H222647   6.675   2.410   3.737  1.0965 -0.0618 -0.1942
  386TIP3   OH222648   1.143   1.251   0.206  0.5101  0.5255  0.2302
  386TIP3    H122649   1.127   1.297   0.124  1.6676  0.8808  0.1795
  386TIP3    H222650   1.098   1.304   0.272  1.8024  1.7546  0.1683
  387TIP3   OH222651   6.116   0.853  11.266  0.4613  0.3950 -0.3039
  387TIP3    H122652   6.198   0.839  11.218  0.0011 -0.1163 -0.9479
  387TIP3    H222653   6.143   0.900  11.345  1.7523 -1.9410  0.7418
  388TIP3   OH222654   0.853   1.934  14.787 -0.1117  0.3199 -0.1079
  388TIP3    H122655   0.930   1.960  14.837  0.6321  0.1784 -1.1463
  388TIP3    H222656   0.856   1.987  14.708  0.5790 -1.7153 -1.5428
  389TIP3   OH222657   0.314   5.788  14.448  0.2768  0.0430 -0.3417
  389TIP3    H122658   0.336   5.840  14.371  1.0664 -0.7096 -0.6371
  389TIP3    H222659   0.398   5.770  14.491 -0.2191  1.2258  1.2305
  390TIP3   OH222660   0.619   1.033  15.572  0.0800  0.1281 -0.4862
  390TIP3    H122661   0.655   0.972  15.507  1.5095  0.1685  0.2329
  390TIP3    H222662   0.596   0.978  15.646 -0.6238  0.2116 -0.6335
  391TIP3   OH222663   2.067   1.695   4.147  0.1810 -1.0405  0.2062
  391TIP3    H122664   2.073   1.612   4.100  0.9924 -0.4966 -0.6786
  391TIP3    H222665   2.058   1.670   4.239 -0.6641 -2.1128 -0.1482
  392TIP3   OH222666   3.958   0.310   2.810  0.4376 -0.1850 -0.2046
  392TIP3    H122667   3.964   0.403   2.789  1.4879 -0.3389 -0.6287
  392TIP3    H222668   4.033   0.270   2.767 -1.0030 -1.5325 -1.6136
  393TIP3   OH222669   2.864   0.204  12.665 -0.4454 -0.6339  0.1756
  393TIP3    H122670   2.855   0.135  12.731 -1.4904 -0.3336  0.3646
  393TIP3    H222671   2.774   0.225  12.640 -0.2252  1.3131  0.8136
  394TIP3   OH222672   3.500   2.637  12.612 -0.2559  1.0882 -0.4690
  394TIP3    H122673   3.495   2.707  12.546  1.5872  1.1572 -0.5898
  394TIP3    H222674   3.592   2.611  12.611 -1.1073 -2.3880 -1.5036
  395TIP3   OH222675   5.109   4.021   6.553  0.1789  0.2353 -0.8335
  395TIP3    H122676   5.015   4.009   6.535  0.2158  0.3476 -1.0984
  395TIP3    H222677   5.112   4.097   6.611  0.1251  0.3957 -1.0388
  396TIP3   OH222678   5.266   0.798   1.631 -0.1961 -0.5870  0.1155
  396TIP3    H122679   5.306   0.876   1.593 -2.3529  0.4508 -0.2167
  396TIP3    H222680   5.171   0.814   1.623 -0.7110 -3.2405  0.0314
  397TIP3   OH222681   2.739   1.235  14.721 -1.1486 -0.0798  0.2857
  397TIP3    H122682   2.670   1.208  14.781 -1.0132 -0.6616  0.1855
  397TIP3    H222683   2.815   1.183  14.746 -1.0896 -0.3284 -0.3848
  398TIP3   OH222684   4.594   3.464  16.160 -0.2637  0.0070 -0.0267
  398TIP3    H122685   4.544   3.415  16.224  0.2916  0.1685  0.5360
  398TIP3    H222686   4.685   3.450  16.184 -0.0602  0.3089 -0.6005
  399TIP3   OH222687   5.101   3.854  14.932  0.7798  0.4488 -0.0166
  399TIP3    H122688   5.175   3.902  14.971  1.0904 -0.7910  0.9840
  399TIP3    H222689   5.141   3.801  14.863  0.9365 -0.5718  0.8279
  400TIP3   OH222690   2.292   1.044  16.142 -0.0392 -0.2000 -0.2907
  400TIP3    H122691   2.364   1.107  16.144  1.5356 -1.9160  0.6960
  400TIP3    H222692   2.218   1.092  16.179  1.6938  0.4713  2.6745
  401TIP3   OH222693   2.796   5.300  14.124  0.4329 -0.4917  0.1366
  401TIP3    H122694   2.869   5.361  14.135  0.1655  0.0751 -1.0412
  401TIP3    H222695   2.744   5.311  14.204 -0.0535  1.4653 -0.3849
  402TIP3   OH222696   2.836   5.302   3.019 -0.1875  0.3827  0.0365
  402TIP3    H122697   2.748   5.314   2.983  0.1501  0.2908 -0.8508
  402TIP3    H222698   2.855   5.209   3.005  0.0269  0.3892  0.2794
  403TIP3   OH222699   2.713   1.356  13.567 -0.0625  0.1191 -0.0125
  403TIP3    H122700   2.630   1.389  13.531 -0.6975  0.0873  1.3486
  403TIP3    H222701   2.687   1.311  13.647  1.1107 -1.3009 -0.3951
  404TIP3   OH222702   2.471   5.949   5.369 -0.5015 -0.0950  0.1903
  404TIP3    H122703   2.527   5.893   5.422 -0.2510 -0.3167 -0.3067
  404TIP3    H222704   2.416   5.889   5.319 -0.6565  0.1116  0.1067
  405TIP3   OH222705   6.367   0.599  15.376 -0.2822 -0.5290 -0.1299
  405TIP3    H122706   6.414   0.551  15.307  0.6284  0.5391 -0.2903
  405TIP3    H222707   6.338   0.531  15.437 -2.1249 -1.6516 -2.1028
  406TIP3   OH222708   2.432   4.801   4.738 -0.2688  0.0867  0.0085
  406TIP3    H122709   2.371   4.856   4.688 -0.0484  1.3286  1.0403
  406TIP3    H222710   2.377   4.753   4.799 -0.3750 -0.1729 -0.2872
  407TIP3   OH222711   2.888   4.033  13.753  1.0641  0.3625 -0.4517
  407TIP3    H122712   2.924   4.059  13.838  0.5178  1.6741 -0.5981
  407TIP3    H222713   2.817   3.973  13.775  1.7691 -0.3443 -0.0532
  408TIP3   OH222714   0.358   0.521   3.159 -0.0747 -0.2420 -0.0267
  408TIP3    H122715   0.317   0.437   3.139  2.1863 -1.8601  1.6194
  408TIP3    H222716   0.406   0.544   3.080 -0.8921 -0.3560 -0.5694
  409TIP3   OH222717   4.605   0.505  11.991 -0.2686  0.0955 -0.0054
  409TIP3    H122718   4.545   0.435  12.017  0.1479 -1.1754 -2.2549
  409TIP3    H222719   4.549   0.572  11.952 -0.3498 -0.6382 -1.1785
  410TIP3   OH222720   4.594   3.694  12.523 -0.3111  0.4409  0.2251
  410TIP3    H122721   4.671   3.669  12.575  1.8043  0.8341 -2.4706
  410TIP3    H222722   4.566   3.777  12.560  0.7191  0.4040  1.1459
  411TIP3   OH222723   6.243   5.891  13.512  0.0865  0.6020  0.3919
  411TIP3    H122724   6.278   5.902  13.601 -1.6337  2.1798  0.9229
  411TIP3    H222725   6.277   5.966  13.464  1.5692 -0.6047 -0.5264
  412TIP3   OH222726   3.796   5.141  16.838 -0.0227  0.1001  0.2607
  412TIP3    H122727   3.755   5.055  16.827 -1.3748  0.8135 -0.5870
  412TIP3    H222728   3.819   5.168  16.749 -0.1338  0.8440  0.4506
  413TIP3   OH222729   6.525   4.733   2.131  0.4840  0.1667 -0.0886
  413TIP3    H122730   6.568   4.769   2.054 -1.3934  3.9831  0.4137
  413TIP3    H222731   6.571   4.771   2.205  0.0219 -0.5704  0.6012
  414TIP3   OH222732   1.256   2.441  13.851  0.4488  0.7598 -0.0306
  414TIP3    H122733   1.281   2.430  13.943  1.1219 -1.0676 -0.3980
  414TIP3    H222734   1.205   2.522  13.850 -1.7505 -0.4704  2.3676
  415TIP3   OH222735   0.076   3.050  11.728 -0.0883 -0.2160 -0.1520
  415TIP3    H122736   0.110   3.032  11.816  0.0443  1.9718  0.2991
  415TIP3    H222737   0.035   3.136  11.735  0.1291  0.1172 -2.3110
  416TIP3   OH222738   5.630   0.178   1.306  0.4741 -0.7907  0.4478
  416TIP3    H122739   5.578   0.247   1.348  0.9538  0.3807 -0.7934
  416TIP3    H222740   5.612   0.188   1.212  0.9290 -2.0612  0.2019
  417TIP3   OH222741   2.239   1.776   6.013 -0.0441 -0.3440  0.6424
  417TIP3    H122742   2.168   1.729   6.056 -0.5434 -0.0340  0.1708
  417TIP3    H222743   2.209   1.786   5.923  0.1482  0.7083  0.6929
  418TIP3   OH222744   5.852   1.574  10.644  0.0195  0.4491 -0.5642
  418TIP3    H122745   5.834   1.480  10.639  2.0509  0.0643 -2.0022
  418TIP3    H222746   5.827   1.608  10.557  0.8561  0.9080 -0.6321
  419TIP3   OH222747   0.163   5.888  15.234  0.0439  0.5755  0.3711
  419TIP3    H122748   0.075   5.886  15.196 -0.5657 -1.0970  1.7713
  419TIP3    H222749   0.154   5.943  15.312  0.5267  1.3057 -0.0729
  420TIP3   OH222750   2.766   6.298   4.273  0.1475 -0.0352  0.1439
  420TIP3    H122751   2.733   6.380   4.235 -0.7767 -0.6532 -0.4152
  420TIP3    H222752   2.817   6.327   4.349 -1.0075  1.0151  0.5612
  421TIP3   OH222753   1.312   1.637  14.943  0.5487 -0.2193  0.3589
  421TIP3    H122754   1.217   1.621  14.942  0.3040  1.0250  1.2680
  421TIP3    H222755   1.349   1.561  14.899 -0.9166 -0.3873 -0.6627
  422TIP3   OH222756   3.003   4.984  14.793  0.2750  0.0615  0.6097
  422TIP3    H122757   2.992   5.012  14.883 -0.4639 -0.9719  0.8616
  422TIP3    H222758   2.927   4.928  14.776 -1.2827  2.5991 -1.6087
  423TIP3   OH222759   4.788   2.190  11.365  0.3327  0.5744 -0.4696
  423TIP3    H122760   4.711   2.230  11.326  0.7513  0.3546 -1.5483
  423TIP3    H222761   4.814   2.251  11.434 -1.3108  0.2166  0.5170
  424TIP3   OH222762   2.898   1.464   5.186  0.1093  0.3762 -0.0191
  424TIP3    H122763   2.810   1.446   5.219  0.0422  0.0398 -0.3818
  424TIP3    H222764   2.913   1.398   5.118  1.6823 -1.2907  1.8456
  425TIP3   OH222765   3.887   0.943  11.174  0.2336 -0.4287 -0.2315
  425TIP3    H122766   3.816   0.882  11.150 -2.8871  1.5111  3.0948
  425TIP3    H222767   3.859   1.027  11.138 -0.7761  0.9480  3.3638
  426TIP3   OH222768   1.801   1.502   3.366 -0.3969  0.1545 -0.1966
  426TIP3    H122769   1.747   1.564   3.317 -1.7078 -0.0297  0.9296
  426TIP3    H222770   1.890   1.537   3.361 -0.4218  0.0513 -2.7995
  427TIP3   OH222771   2.935   0.657  15.739 -0.3897 -0.1104 -0.2532
  427TIP3    H122772   3.021   0.615  15.735  0.2294  1.1518 -0.8022
  427TIP3    H222773   2.887   0.608  15.807  0.0975 -1.9957 -1.2097
  428TIP3   OH222774   3.382   0.549  13.351 -0.2887  0.0733  0.2937
  428TIP3    H122775   3.450   0.574  13.289 -0.1696  0.6174  0.6339
  428TIP3    H222776   3.325   0.490  13.302  0.1207  0.0513 -0.1579
  429TIP3   OH222777   5.478   5.637  14.139  0.5326  0.1308 -0.5545
  429TIP3    H122778   5.405   5.672  14.088  0.0402  1.2629  0.8533
  429TIP3    H222779   5.450   5.550  14.165  0.4102 -0.1011 -1.4526
  430TIP3   OH222780   0.502   2.805   1.986  0.4480 -0.0454  0.1238
  430TIP3    H122781   0.466   2.888   1.956 -1.0782 -1.2320 -1.5222
  430TIP3    H222782   0.592   2.804   1.954 -0.0482  0.2845 -1.3743
  431TIP3   OH222783   4.545   0.625  15.316  0.6278  0.4672 -0.7953
  431TIP3    H122784   4.640   0.626  15.308  0.5694 -1.7609 -2.5171
  431TIP3    H222785   4.527   0.559  15.384  0.2916  2.1359  0.8367
  432TIP3   OH222786   2.756   4.187   4.267 -0.0705  0.1350 -0.5285
  432TIP3    H122787   2.699   4.246   4.317 -1.4166  0.1800 -2.0372
  432TIP3    H222788   2.729   4.099   4.294 -0.1980  0.1762 -0.5194
  433TIP3   OH222789   0.728   3.352  16.832  0.1505  0.1822 -0.7056
  433TIP3    H122790   0.708   3.432  16.879 -0.6856  0.0178 -0.7648
  433TIP3    H222791   0.817   3.364  16.799  0.0651  1.0377 -0.6266
  434TIP3   OH222792   5.089   0.677  13.461 -0.0868 -0.6824 -0.4261
  434TIP3    H122793   5.161   0.697  13.521 -1.0799 -0.7137  0.7882
  434TIP3    H222794   5.123   0.605  13.408  0.6068 -1.0202  0.4461
  435TIP3   OH222795   2.708   3.922   4.364 -0.4135  0.1168 -0.2279
  435TIP3    H122796   2.658   3.840   4.372 -1.0147  0.3632 -1.2440
  435TIP3    H222797   2.730   3.946   4.454 -1.6077 -0.3360  0.2072
  436TIP3   OH222798   3.708   5.892   3.485 -0.8757 -0.2749  0.2859
  436TIP3    H122799   3.668   5.946   3.553 -2.1768  0.1270 -0.7594
  436TIP3    H222800   3.732   5.954   3.416 -0.6026 -0.7997 -0.1000
  437TIP3   OH222801   0.289   3.831  11.847  0.5537 -0.0818  0.5993
  437TIP3    H122802   0.359   3.829  11.912  1.7151  1.7925 -0.4980
  437TIP3    H222803   0.226   3.894  11.882  1.5404  1.5072 -0.3437
  438TIP3   OH222804   3.361   0.669  14.963 -0.2668  0.4509  0.2894
  438TIP3    H122805   3.403   0.642  15.044 -1.3164  0.1131  0.7301
  438TIP3    H222806   3.348   0.763  14.973 -1.1678  0.2660  0.8762
  439TIP3   OH222807   3.611   4.626  13.213 -0.1355  0.5240  0.1838
  439TIP3    H122808   3.602   4.649  13.305  0.4532  2.0992 -0.1259
  439TIP3    H222809   3.540   4.563  13.197  0.9731 -1.3722  2.1818
  440TIP3   OH222810   2.783   2.817  12.181  0.2319  0.7051 -0.4279
  440TIP3    H122811   2.834   2.826  12.262  1.2313  1.3485 -1.1223
  440TIP3    H222812   2.701   2.864  12.199  0.5361  1.0282  0.1359
  441TIP3   OH222813   2.991   6.436   1.938 -0.7889 -0.1851 -0.5978
  441TIP3    H122814   2.996   6.436   1.843  1.6993  1.6393 -0.5442
  441TIP3    H222815   3.069   6.390   1.967 -1.4340 -0.5816  0.6009
  442TIP3   OH222816   1.319   3.231  15.303  0.4140  0.1877  0.0719
  442TIP3    H122817   1.320   3.217  15.209 -2.8285 -0.2652 -0.0175
  442TIP3    H222818   1.403   3.272  15.323  1.0265  0.6553 -3.0523
  443TIP3   OH222819   6.270   3.348  13.844  0.5364  0.3222  0.7550
  443TIP3    H122820   6.363   3.355  13.866  0.3021  0.4386  1.7200
  443TIP3    H222821   6.268   3.357  13.748  1.5940 -0.5468  0.6336
  444TIP3   OH222822   2.285   4.306  14.389  0.1260 -0.0460  0.0921
  444TIP3    H122823   2.247   4.375  14.443  1.9080  0.3084  0.9604
  444TIP3    H222824   2.256   4.224  14.430  0.6626  0.2191  1.0401
  445TIP3   OH222825   1.854   6.015  13.626 -0.3228 -0.5413  0.0061
  445TIP3    H122826   1.930   6.068  13.603 -0.9833 -0.3666 -1.9759
  445TIP3    H222827   1.890   5.927  13.639  0.3055 -0.3307 -0.2481
  446TIP3   OH222828   4.327   0.856   2.987  0.1230 -0.0339 -0.5640
  446TIP3    H122829   4.299   0.821   2.902 -0.6518  0.9419 -0.7414
  446TIP3    H222830   4.247   0.893   3.024  0.9467  1.9798 -0.6365
  447TIP3   OH222831   3.269   5.266  12.220 -0.3537  0.5519 -0.0885
  447TIP3    H122832   3.297   5.260  12.129 -3.3093 -1.4319 -0.9976
  447TIP3    H222833   3.316   5.195  12.264 -1.1228 -0.3910 -0.7582
  448TIP3   OH222834   3.094   1.828   2.109  0.6173 -0.5904 -0.3855
  448TIP3    H122835   3.048   1.901   2.068  0.3574 -0.7710 -0.4177
  448TIP3    H222836   3.027   1.761   2.120  0.4789 -0.2293  1.1486
  449TIP3   OH222837   0.132   3.495  13.983  0.4281  0.1046  0.1780
  449TIP3    H122838   0.131   3.554  14.058  1.5207  0.2143  0.1218
  449TIP3    H222839   0.225   3.488  13.959  0.0104  1.0856 -1.9748
  450TIP3   OH222840   3.300   1.728   4.259  0.2542  0.8365  0.3007
  450TIP3    H122841   3.389   1.758   4.274 -0.0300  0.9219  1.9156
  450TIP3    H222842   3.245   1.789   4.308 -0.4651 -1.1688  2.1236
  451TIP3   OH222843   6.118   0.292  14.385  0.3888 -0.1826  0.1499
  451TIP3    H122844   6.087   0.311  14.297  1.1730  0.2325 -0.0443
  451TIP3    H222845   6.043   0.311  14.441  0.4517  1.3750 -0.2530
  452TIP3   OH222846   5.135   1.665   5.826 -0.2592 -0.5062  0.6531
  452TIP3    H122847   5.129   1.641   5.919  0.0966  0.1395  0.8450
  452TIP3    H222848   5.119   1.759   5.825 -2.1414 -0.7863 -0.1457
  453TIP3   OH222849   2.364   2.638   2.372  0.1535  0.0183 -0.1528
  453TIP3    H122850   2.376   2.633   2.277  1.3547  0.3874 -0.0431
  453TIP3    H222851   2.374   2.731   2.392 -1.2274  0.1016  0.2128
  454TIP3   OH222852   2.015   5.215   1.436 -0.3514  0.0655  0.1241
  454TIP3    H122853   1.994   5.162   1.513  0.2348 -0.0470  0.2132
  454TIP3    H222854   2.101   5.252   1.455  0.8502 -1.7309 -1.3840
  455TIP3   OH222855   6.311   4.165   2.059 -0.3649 -0.0659 -0.6180
  455TIP3    H122856   6.376   4.233   2.040  2.3499 -1.9009  1.3015
  455TIP3    H222857   6.279   4.137   1.973 -0.0600  2.1864 -1.5341
  456TIP3   OH222858   6.772   3.005   2.198 -0.0700  0.0477  0.3899
  456TIP3    H122859   6.682   3.030   2.174  1.1099  3.5759 -1.1302
  456TIP3    H222860   6.786   2.921   2.154 -3.2014 -1.7578  2.4632
  457TIP3   OH222861   6.355   6.307   5.571  0.4966 -0.0017  0.1740
  457TIP3    H122862   6.323   6.225   5.533 -0.0144  1.3268 -2.4743
  457TIP3    H222863   6.328   6.302   5.663 -0.8453 -2.1430 -0.2476
  458TIP3   OH222864   2.341   1.193  15.453  0.0237 -0.2746 -0.2670
  458TIP3    H122865   2.256   1.159  15.427  0.8569 -2.2109 -0.6405
  458TIP3    H222866   2.404   1.131  15.418  1.6465  1.2963 -0.3173
  459TIP3   OH222867   5.467   3.505   5.265  0.0416  0.2568 -0.5325
  459TIP3    H122868   5.447   3.412   5.251 -0.4391  0.1334  0.7941
  459TIP3    H222869   5.435   3.548   5.186  0.5377 -0.7299 -1.3001
  460TIP3   OH222870   5.306   0.221   2.598  0.2481 -0.0342 -0.6012
  460TIP3    H122871   5.274   0.307   2.627 -0.5804  0.0092 -1.5919
  460TIP3    H222872   5.393   0.215   2.636 -0.1428  0.7255  0.4959
  461TIP3   OH222873   3.391   6.558   5.024 -0.5609 -0.9539 -0.3998
  461TIP3    H122874   3.334   6.489   4.989 -0.6988 -0.5321 -1.0294
  461TIP3    H222875   3.364   6.637   4.978 -1.5541 -0.1183  1.5368
  462TIP3   OH222876   2.964   1.677  14.066  0.9952  0.0042  0.1412
  462TIP3    H122877   2.874   1.665  14.096  1.1395 -1.7480  0.0121
  462TIP3    H222878   2.956   1.723  13.982  0.3773  1.6850  1.0853
  463TIP3   OH222879   2.951   5.338  12.342  0.4893 -0.0286  0.3172
  463TIP3    H122880   2.955   5.408  12.407  1.1189 -0.3004  0.5738
  463TIP3    H222881   2.989   5.262  12.386 -2.9472 -1.4387  1.1623
  464TIP3   OH222882   5.569   6.587   2.416  0.1031  0.7602 -0.4145
  464TIP3    H122883   5.490   6.634   2.389 -0.8561 -0.0841  0.8162
  464TIP3    H222884   5.565   6.585   2.511 -0.0889 -2.0578 -0.3855
  465TIP3   OH222885   1.302   2.092   4.529  0.0266  0.5131  0.2280
  465TIP3    H122886   1.302   2.014   4.586  0.3626  0.9925  0.9081
  465TIP3    H222887   1.210   2.116   4.520 -0.1256 -0.2689 -0.4302
  466TIP3   OH222888   0.161   6.825   2.931 -0.1034  0.3592  0.1953
  466TIP3    H122889   0.075   6.863   2.949 -0.1612  0.3872 -0.1455
  466TIP3    H222890   0.216   6.856   3.003 -0.0545  1.3792 -0.2743
  467TIP3   OH222891   0.461   4.814   1.231  0.2811 -0.0252  0.3383
  467TIP3    H122892   0.407   4.839   1.305  0.1586  1.0641 -0.1100
  467TIP3    H222893   0.547   4.852   1.250 -0.1452  1.6004 -0.7806
  468TIP3   OH222894   3.830   6.532   3.707  0.2743  0.0312  0.2129
  468TIP3    H122895   3.879   6.598   3.658 -1.0051  2.0659  1.5390
  468TIP3    H222896   3.839   6.559   3.798 -1.8916 -0.4783  0.6236
  469TIP3   OH222897   4.233   5.390   3.725 -0.3855 -0.1644 -0.1717
  469TIP3    H122898   4.326   5.406   3.735 -0.8467  2.1542  1.0873
  469TIP3    H222899   4.220   5.301   3.759  1.3652 -0.6267 -0.6379
  470TIP3   OH222900   6.045   2.722   0.925  0.4589 -0.3144  0.3087
  470TIP3    H122901   6.058   2.701   0.833 -0.5744  3.1778 -0.7956
  470TIP3    H222902   5.955   2.754   0.929  0.4683 -0.4364  2.5612
  471TIP3   OH222903   1.709   4.165  13.073  0.2587 -0.2356 -0.1777
  471TIP3    H122904   1.670   4.090  13.029 -0.0005 -1.0821  1.4193
  471TIP3    H222905   1.755   4.128  13.148  1.2452  1.0851 -0.0896
  472TIP3   OH222906   2.121   4.227  12.268 -0.4022 -0.0587 -0.1192
  472TIP3    H122907   2.199   4.210  12.216 -1.6884  0.1387 -2.2252
  472TIP3    H222908   2.119   4.323  12.277 -0.9730  0.0294 -1.0552
  473TIP3   OH222909   6.246   0.010   5.712  0.0288  0.3631 -0.6306
  473TIP3    H122910   6.276   0.100   5.711  1.1311  0.0964  1.7006
  473TIP3    H222911   6.205  -0.001   5.798 -2.8386 -0.5756 -1.9716
  474TIP3   OH222912   1.526   4.008   0.886 -0.0931 -0.1935  0.2724
  474TIP3    H122913   1.556   3.944   0.821 -0.5268 -0.1790  0.0521
  474TIP3    H222914   1.514   4.089   0.837  1.8531  0.4702  0.8271
  475TIP3   OH222915   3.365   6.837  10.304  0.1380  0.2606  0.3740
  475TIP3    H122916   3.377   6.932  10.295 -0.9663  0.5976  2.0502
  475TIP3    H222917   3.329   6.810  10.219  1.3707  1.1526 -0.4722
  476TIP3   OH222918   1.074   0.023   0.042 -0.0999  0.2270  0.2599
  476TIP3    H122919   1.165   0.051   0.030 -0.2797  0.4110 -0.7197
  476TIP3    H222920   1.031   0.046  -0.039 -0.2622 -2.9211 -0.6833
  477TIP3   OH222921   5.396   3.759   4.117 -0.4478  0.0752 -0.3494
  477TIP3    H122922   5.491   3.766   4.104 -0.3026  0.2932  0.7318
  477TIP3    H222923   5.367   3.698   4.049  0.2324  1.1447 -1.6469
  478TIP3   OH222924   6.429   4.064   0.503  0.0896  0.3564 -0.4801
  478TIP3    H122925   6.517   4.064   0.465 -0.8418 -0.0602 -2.7970
  478TIP3    H222926   6.398   4.154   0.491 -0.7974 -0.1475 -2.2809
  479TIP3   OH222927   1.971   5.566  14.655  0.6755 -0.0697  0.2061
  479TIP3    H122928   2.001   5.490  14.605 -0.3456 -0.7286  0.5703
  479TIP3    H222929   2.035   5.635  14.634  1.2438 -0.8287 -0.6394
  480TIP3   OH222930   2.406   5.447  12.692 -0.1082  0.0545 -0.2702
  480TIP3    H122931   2.370   5.443  12.604  0.9118  0.8490 -0.7427
  480TIP3    H222932   2.460   5.526  12.692 -0.8659  0.6182  1.3602
  481TIP3   OH222933   6.329   5.506   0.142 -0.3668  0.1055  0.1773
  481TIP3    H122934   6.269   5.576   0.117 -1.3587 -0.9968 -0.6653
  481TIP3    H222935   6.273   5.429   0.151  0.6970 -0.5950  1.0588
  482TIP3   OH222936   3.525   6.242  12.675  0.0195 -0.4899 -0.5166
  482TIP3    H122937   3.492   6.179  12.739  0.7158  0.4198  0.7735
  482TIP3    H222938   3.447   6.276  12.632 -0.5497 -0.3585  0.5831
  483TIP3   OH222939   3.184   6.174   4.788  0.3702 -0.4383 -0.3562
  483TIP3    H122940   3.093   6.143   4.793 -0.0309  0.7495  0.1025
  483TIP3    H222941   3.216   6.143   4.703 -0.6585 -0.3610 -0.7839
  484TIP3   OH222942   5.309   4.557   2.611 -0.0910  0.5165 -0.2328
  484TIP3    H122943   5.232   4.579   2.559 -1.9402 -0.1375  2.0849
  484TIP3    H222944   5.338   4.640   2.649 -1.3656  0.3936  1.0657
  485TIP3   OH222945   0.245   5.017  11.148  0.3543  0.1440  0.6070
  485TIP3    H122946   0.182   5.032  11.218  0.0382 -0.6409  0.5076
  485TIP3    H222947   0.291   5.100  11.138 -0.0175  0.4451  1.3257
  486TIP3   OH222948   4.739   0.714   0.178  0.0732 -0.5287  0.6171
  486TIP3    H122949   4.768   0.787   0.122  1.3435 -0.9450  0.6934
  486TIP3    H222950   4.773   0.735   0.265  0.0783 -0.9909  0.7316
  487TIP3   OH222951   0.575   1.087  14.494 -0.1508 -0.3173  0.8399
  487TIP3    H122952   0.502   1.030  14.471 -0.4303  0.5443 -0.5354
  487TIP3    H222953   0.583   1.147  14.420  0.7013  0.8564  1.8289
  488TIP3   OH222954   2.506   0.842  16.075  0.0255  0.6151 -0.4268
  488TIP3    H122955   2.542   0.839  15.986  1.0527 -1.2107 -0.0049
  488TIP3    H222956   2.431   0.900  16.069 -0.5203 -0.2313 -2.7230
  489TIP3   OH222957   4.792   3.530  14.093  0.2190 -0.1409 -0.2066
  489TIP3    H122958   4.814   3.558  14.182  2.5941  1.3418 -1.1719
  489TIP3    H222959   4.717   3.583  14.069 -0.2235 -0.3054  0.7553
  490TIP3   OH222960   2.080   5.934  14.504 -0.1263  0.1753 -0.6937
  490TIP3    H122961   1.989   5.926  14.476 -0.3049  0.7599 -0.2837
  490TIP3    H222962   2.127   5.873  14.447 -0.5701  0.8783 -1.8523
  491TIP3   OH222963   2.646   3.357   6.551  0.6658 -0.0816  0.1257
  491TIP3    H122964   2.614   3.283   6.500 -0.5110  0.8703 -0.5789
  491TIP3    H222965   2.581   3.369   6.620 -0.3870  1.6030 -1.0628
  492TIP3   OH222966   3.730   4.335  13.417  0.3056  0.1317  0.3074
  492TIP3    H122967   3.805   4.302  13.467 -1.6789 -0.1090  3.3870
  492TIP3    H222968   3.763   4.345  13.328  3.5512 -1.3806  1.1950
  493TIP3   OH222969   1.005   1.638  14.423 -0.5494  0.3397 -0.5665
  493TIP3    H122970   0.952   1.560  14.442  0.2972 -0.4756 -1.4833
  493TIP3    H222971   1.002   1.688  14.505 -1.9320 -0.1515 -0.2838
  494TIP3   OH222972   1.946   6.408  13.736 -0.1760 -0.8899  0.3705
  494TIP3    H122973   2.022   6.429  13.789 -0.6736  1.3861  0.3059
  494TIP3    H222974   1.964   6.321  13.700  2.1217 -0.6402  0.7838
  495TIP3   OH222975   4.316   3.904   3.691 -0.4414  0.0778 -0.1946
  495TIP3    H122976   4.271   3.906   3.606 -0.3972 -0.3145 -0.2289
  495TIP3    H222977   4.406   3.929   3.670 -0.0080 -1.6501 -0.5411
  496TIP3   OH222978   3.275   4.420   3.492  0.3107 -0.4806  0.0616
  496TIP3    H122979   3.321   4.353   3.442  0.0760 -0.2874 -0.4215
  496TIP3    H222980   3.224   4.371   3.557  1.1254 -0.6960  0.5475
  497TIP3   OH222981   5.406   1.705  12.017  1.1610  0.4826 -0.5439
  497TIP3    H122982   5.501   1.709  12.019  1.1436  0.8763  0.4785
  497TIP3    H222983   5.380   1.704  12.109  0.2411 -2.1293 -0.7530
  498TIP3   OH222984   5.532   1.737  16.036 -0.4024  0.3583  0.0586
  498TIP3    H122985   5.472   1.726  16.109 -1.2574 -0.1948 -0.7059
  498TIP3    H222986   5.594   1.804  16.065 -0.9414  0.4017  1.1394
  499TIP3   OH222987   3.040   2.492  16.491 -0.4329 -0.3050 -0.1138
  499TIP3    H122988   3.107   2.497  16.423 -0.4491  3.3870 -0.0980
  499TIP3    H222989   2.958   2.488  16.443 -0.3407 -2.6262 -0.1604
  500TIP3   OH222990   4.200   0.680   0.013 -0.4463  0.2880  0.1013
  500TIP3    H122991   4.256   0.710  -0.058  0.2719 -0.1467  0.4767
  500TIP3    H222992   4.231   0.727   0.091  0.8795 -1.5514  0.7550
  501TIP3   OH222993   0.136   2.417   0.839 -0.9134  1.0261  0.1105
  501TIP3    H122994   0.078   2.485   0.871 -1.6720  1.5303 -2.1224
  501TIP3    H222995   0.079   2.358   0.789  0.3326  1.0863 -1.4692
  502TIP3   OH222996   5.263   6.582  12.538  0.5409 -0.7835  0.6641
  502TIP3    H122997   5.175   6.563  12.506  0.4848  0.1629  0.2004
  502TIP3    H222998   5.316   6.592  12.459  0.5255  1.0321  0.8416
  503TIP3   OH222999   0.461   3.312  14.149 -0.0053  0.3916  0.3300
  503TIP3    H123000   0.519   3.319  14.225 -1.7714 -1.1075  1.9038
  503TIP3    H223001   0.471   3.222  14.119  1.6047  1.2744 -2.1102
  504TIP3   OH223002   0.451   4.655  11.239 -0.0138  0.0825 -0.0817
  504TIP3    H123003   0.397   4.593  11.288  0.2172  0.9495  1.2970
  504TIP3    H223004   0.535   4.656  11.285  0.7737 -0.2866 -1.4529
  505TIP3   OH223005   3.989   4.431   3.054  0.7354 -0.3397 -0.0694
  505TIP3    H123006   3.926   4.367   3.086  1.0547 -0.3643  0.5078
  505TIP3    H223007   4.057   4.434   3.121  0.3238  1.2036  0.3090
  506TIP3   OH223008   6.470   3.172   6.456 -0.3290 -0.4417 -0.3623
  506TIP3    H123009   6.506   3.112   6.521  1.5957  0.5651 -0.4427
  506TIP3    H223010   6.546   3.204   6.408 -1.3912  1.3174 -0.9655
  507TIP3   OH223011   0.490   5.765  12.775  0.2067  0.0041 -0.4634
  507TIP3    H123012   0.416   5.704  12.777 -0.2579  0.5204 -1.2686
  507TIP3    H223013   0.461   5.835  12.717 -0.2943  2.3375  2.3979
  508TIP3   OH223014   5.675   4.550   1.951  0.1493 -0.2320  0.0024
  508TIP3    H123015   5.770   4.556   1.957  0.2639 -2.3514  1.4839
  508TIP3    H223016   5.644   4.568   2.040 -0.7040 -1.1734 -0.0830
  509TIP3   OH223017   0.246   3.176  11.515  0.1743  0.5232  0.2846
  509TIP3    H123018   0.206   3.141  11.594  1.9931 -1.1111  0.5443
  509TIP3    H223019   0.309   3.241  11.546  0.0052  0.7999  0.0651
  510TIP3   OH223020   0.035   3.971   4.789  0.2783 -0.0349  0.5760
  510TIP3    H123021  -0.060   3.985   4.789  0.3280  0.3072  0.7749
  510TIP3    H223022   0.070   4.046   4.837  0.7136  0.2830 -0.2280
  511TIP3   OH223023   5.548   2.080  12.409  0.5720  0.3949  0.2549
  511TIP3    H123024   5.573   2.004  12.356 -0.9091 -0.3811  0.5933
  511TIP3    H223025   5.625   2.098  12.463  0.8590 -1.0727  0.3804
  512TIP3   OH223026   0.358   4.950  13.240 -0.2433 -0.0068  0.3770
  512TIP3    H123027   0.372   4.902  13.322  2.2235  0.1752  0.1594
  512TIP3    H223028   0.420   4.910  13.179 -2.3786 -0.4942 -1.6125
  513TIP3   OH223029   0.814   5.407  13.393 -0.2200 -0.2651 -0.1080
  513TIP3    H123030   0.883   5.388  13.329 -0.1392  1.0187 -0.4352
  513TIP3    H223031   0.738   5.361  13.360 -0.2450  0.5814 -1.3081
  514TIP3   OH223032   2.096   6.748  16.190 -1.1142 -0.2302 -0.1092
  514TIP3    H123033   2.092   6.653  16.183 -1.7584 -0.1944 -0.2602
  514TIP3    H223034   2.136   6.777  16.108 -1.6263 -0.3238 -0.3973
  515TIP3   OH223035   3.958   5.316  12.419 -0.3965 -0.4343  0.2643
  515TIP3    H123036   3.911   5.235  12.438 -1.2892  0.2641  1.1239
  515TIP3    H223037   3.896   5.386  12.438  0.3590  0.4663 -0.4533
  516TIP3   OH223038   6.101   2.791  11.325 -0.3200 -0.0147 -0.7570
  516TIP3    H123039   6.142   2.733  11.388 -2.1185 -2.9928 -2.1189
  516TIP3    H223040   6.129   2.758  11.239 -1.7271  0.8319 -1.5927
  517TIP3   OH223041   3.102   2.544   5.280  0.1539  0.6922  0.1996
  517TIP3    H123042   3.031   2.606   5.295  0.2044  0.4237  1.7396
  517TIP3    H223043   3.177   2.598   5.253 -0.3597  1.0735 -0.4706
  518TIP3   OH223044   0.154   6.649   2.252  0.2228 -0.6754  0.6456
  518TIP3    H123045   0.152   6.573   2.195 -0.5529 -0.7043  0.7046
  518TIP3    H223046   0.174   6.723   2.194  1.7453 -1.0144  0.7057
  519TIP3   OH223047   0.015   3.067   3.845  0.5646  0.5791 -0.1581
  519TIP3    H123048   0.072   3.017   3.786  1.5767  0.8667  0.5614
  519TIP3    H223049  -0.054   3.005   3.868  0.7221  0.1398 -0.8290
  520TIP3   OH223050   0.229   6.485  13.108  0.6004  0.4049 -0.0857
  520TIP3    H123051   0.293   6.500  13.038 -0.7207  0.3482 -1.3430
  520TIP3    H223052   0.280   6.493  13.189  2.7403 -2.1579 -1.0559
  521TIP3   OH223053   3.787   6.034   3.268  0.0627 -0.2480 -0.5156
  521TIP3    H123054   3.862   6.021   3.211 -1.6651  1.2267 -3.4099
  521TIP3    H223055   3.770   6.128   3.264 -0.5841 -0.1949  1.9549
  522TIP3   OH223056   3.780   0.036   2.262 -0.2998  0.4497  0.0508
  522TIP3    H123057   3.807   0.039   2.354  3.5736 -1.0150 -0.8311
  522TIP3    H223058   3.772  -0.057   2.242 -1.9598  0.7663 -0.9450
  523TIP3   OH223059   6.171   6.010  12.385 -0.8582 -0.0131  0.0188
  523TIP3    H123060   6.201   5.930  12.343  0.5597  0.8866 -0.7598
  523TIP3    H223061   6.093   6.036  12.335 -0.8357 -0.4497 -0.2489
  524TIP3   OH223062   1.752   6.591  16.248 -0.0365 -0.7314  0.5842
  524TIP3    H123063   1.817   6.525  16.271  1.9187  0.7412 -0.3761
  524TIP3    H223064   1.767   6.661  16.312 -0.7091 -0.3897  0.3730
  525TIP3   OH223065   6.858   3.649   2.398 -0.2519  0.2221 -0.5787
  525TIP3    H123066   6.814   3.576   2.354  1.1352  0.1280 -1.8976
  525TIP3    H223067   6.879   3.710   2.327  0.8052  0.7448  0.1562
  526TIP3   OH223068   0.445   4.394  12.032  0.5969 -0.3548  1.1078
  526TIP3    H123069   0.352   4.377  12.021  0.3559  0.8208  1.2044
  526TIP3    H223070   0.464   4.364  12.121  0.5065 -1.3254  0.8168
  527TIP3   OH223071   0.086   4.890   0.258  0.0523  0.1815  0.0472
  527TIP3    H123072   0.143   4.825   0.216  0.0947  0.0574  0.2931
  527TIP3    H223073   0.015   4.838   0.297 -0.1201  0.3173 -0.0847
  528TIP3   OH223074   6.272   5.811  10.975 -0.3299  0.5570 -0.0024
  528TIP3    H123075   6.308   5.784  10.890  3.0083 -0.1144  1.4478
  528TIP3    H223076   6.319   5.757  11.038 -2.3943  1.3392  2.3472
  529TIP3   OH223077   4.449   2.585  13.222 -0.0863 -0.6398 -0.0289
  529TIP3    H123078   4.545   2.591  13.225 -0.0799  1.1816 -2.0009
  529TIP3    H223079   4.419   2.670  13.255 -1.0334 -1.1064  0.3414
  530TIP3   OH223080   5.576   4.009   0.045  0.4804 -0.6546  0.0461
  530TIP3    H123081   5.489   4.040   0.019  0.0480 -0.3183  1.7870
  530TIP3    H223082   5.578   3.917   0.017  0.1740 -0.2533 -1.3802
  531TIP3   OH223083   1.130   5.602  13.174  0.5368  0.0745  0.2748
  531TIP3    H123084   1.219   5.627  13.148  0.0254  0.2583 -1.3640
  531TIP3    H223085   1.139   5.578  13.267  2.8094 -2.3709 -0.4529
  532TIP3   OH223086   1.748   2.094   4.365 -0.1180  0.0775 -0.2434
  532TIP3    H123087   1.669   2.058   4.326  0.2448  0.4947 -1.4118
  532TIP3    H223088   1.718   2.167   4.418 -0.4944  0.4904 -1.0080
  533TIP3   OH223089   3.132   4.839   3.318 -0.8238 -0.0344  0.1940
  533TIP3    H123090   3.165   4.891   3.244  0.5009 -1.5484 -0.3501
  533TIP3    H223091   3.138   4.749   3.287 -0.8377 -0.6623  1.9432
  534TIP3   OH223092   3.318   3.109  11.357 -0.1447  0.9169 -0.6700
  534TIP3    H123093   3.265   3.038  11.319 -0.1864  0.3790  0.3695
  534TIP3    H223094   3.407   3.091  11.325 -0.3388  1.0441 -1.3074
  535TIP3   OH223095   0.160   5.884  12.021 -0.5614  0.4352 -0.4518
  535TIP3    H123096   0.177   5.790  12.015 -1.1496  0.3656 -1.1841
  535TIP3    H223097   0.109   5.894  12.101  0.8721  0.3591  0.5139
  536TIP3   OH223098   6.166   3.193   0.080 -0.1397  0.6255 -0.0999
  536TIP3    H123099   6.082   3.174   0.123  0.1976 -1.7921 -0.3756
  536TIP3    H223100   6.221   3.229   0.150  0.2058 -2.6753  1.5209
  537TIP3   OH223101   1.705   6.085   0.620  0.5372 -0.0397  0.1592
  537TIP3    H123102   1.666   6.144   0.555 -1.2429  0.3065  1.4513
  537TIP3    H223103   1.746   6.144   0.683  1.5625 -0.3399 -0.2184
  538TIP3   OH223104   4.750   6.360   6.258  0.0268  0.3157  0.3637
  538TIP3    H123105   4.806   6.437   6.244  0.0852  0.2097 -0.0145
  538TIP3    H223106   4.733   6.328   6.169  0.2067 -0.2541  0.5322
  539TIP3   OH223107   4.373   4.312  15.144 -0.6395  0.6194 -0.4209
  539TIP3    H123108   4.425   4.381  15.186  1.2369 -1.5311  1.0406
  539TIP3    H223109   4.405   4.231  15.183 -2.6662 -1.1323 -2.1405
  540TIP3   OH223110   0.640   4.759  16.990 -0.2634  0.4173 -0.3070
  540TIP3    H123111   0.620   4.820  16.919 -1.5462 -0.7680 -1.0037
  540TIP3    H223112   0.556   4.717  17.010  0.0813  0.6244  1.8480
  541TIP3   OH223113   0.488   0.824  12.574 -0.0860 -0.1360 -0.2948
  541TIP3    H123114   0.416   0.859  12.626 -0.6767 -1.7390  0.0286
  541TIP3    H223115   0.448   0.795  12.492  0.5384  0.7220 -0.9185
  542TIP3   OH223116   2.415   5.916  11.363 -0.4004  0.1608 -0.6810
  542TIP3    H123117   2.335   5.869  11.339 -0.4794  0.0223 -0.1545
  542TIP3    H223118   2.477   5.894  11.294  0.2012 -2.3415  0.5522
  543TIP3   OH223119   6.369   1.764   1.434 -0.1759 -0.1622  0.9992
  543TIP3    H123120   6.282   1.757   1.394 -1.5501 -2.3550  3.9937
  543TIP3    H223121   6.356   1.826   1.506  0.8236 -0.3891  1.3820
  544TIP3   OH223122   4.148   0.665   6.129 -0.1372  0.0716 -0.0467
  544TIP3    H123123   4.117   0.719   6.201 -1.7402  0.4466 -0.9650
  544TIP3    H223124   4.070   0.647   6.077  0.4062 -2.8247  0.0032
  545TIP3   OH223125   2.194   5.473   5.878 -0.0370 -0.2126  0.0729
  545TIP3    H123126   2.271   5.416   5.886 -0.6608 -1.3346 -1.5332
  545TIP3    H223127   2.194   5.524   5.960  1.9755 -0.6997  0.4382
  546TIP3   OH223128   6.133   1.451   1.559  0.6003  0.0385  0.0710
  546TIP3    H123129   6.145   1.545   1.572  0.6977  0.2294 -1.2657
  546TIP3    H223130   6.208   1.411   1.603  1.3375  0.6815 -0.5713
  547TIP3   OH223131   0.489   5.300  12.714  0.6300 -0.2172  0.3672
  547TIP3    H123132   0.471   5.320  12.806  1.4878  1.5197  0.2074
  547TIP3    H223133   0.403   5.278  12.677  0.1015  0.1638  1.3340
  548TIP3   OH223134   5.978   3.294   4.584 -0.1583  0.4489 -0.5588
  548TIP3    H123135   5.940   3.347   4.654 -0.8959 -0.3901 -0.2984
  548TIP3    H223136   6.045   3.241   4.628 -1.4706 -0.9931 -0.1894
  549TIP3   OH223137   6.570   1.767   5.519 -0.5205 -0.5321  0.4910
  549TIP3    H123138   6.598   1.677   5.536 -0.1379 -0.5249 -0.0760
  549TIP3    H223139   6.484   1.758   5.477 -0.2971 -0.6512  0.0562
  550TIP3   OH223140   5.740   1.048  12.086  0.1142 -0.2135  0.5894
  550TIP3    H123141   5.719   1.140  12.098  0.4119 -0.1032  0.2604
  550TIP3    H223142   5.808   1.030  12.152 -1.1462 -0.6367  1.8375
  551TIP3   OH223143   2.706   3.162  11.224  0.2170 -0.5827 -0.4197
  551TIP3    H123144   2.786   3.215  11.219 -0.9287  1.1903 -0.7758
  551TIP3    H223145   2.682   3.146  11.133 -0.9782  0.7483 -0.3698
  552TIP3   OH223146   4.155   3.845  12.426  0.2587 -0.1600  0.2626
  552TIP3    H123147   4.204   3.788  12.367 -0.2562 -0.4645  0.1237
  552TIP3    H223148   4.221   3.904  12.462  0.7553 -0.6835  0.2225
  553TIP3   OH223149   6.439   0.793  16.286 -0.5276  0.0112 -0.0036
  553TIP3    H123150   6.520   0.822  16.245 -0.9746 -0.4196 -1.2264
  553TIP3    H223151   6.434   0.699  16.266  0.2605 -0.7151  2.7926
  554TIP3   OH223152   6.298   1.586  15.614  0.6583  0.0092  0.0547
  554TIP3    H123153   6.348   1.589  15.696 -0.6654 -0.1722  0.8844
  554TIP3    H223154   6.260   1.673  15.606 -1.0636 -0.6375  0.8362
  555TIP3   OH223155   2.067   0.143  14.223  0.2304 -0.2115  0.0212
  555TIP3    H123156   2.054   0.159  14.317  3.7068  0.0825  0.5829
  555TIP3    H223157   2.132   0.072  14.220  1.5059  0.9598 -2.0845
  556TIP3   OH223158   6.419   5.159   3.248 -0.0070 -0.1704  0.0421
  556TIP3    H123159   6.466   5.167   3.331  1.0201 -0.9628 -0.4377
  556TIP3    H223160   6.457   5.226   3.192 -0.8021  0.4633  0.2337
  557TIP3   OH223161   3.034   3.070  16.590  0.2157 -0.3663  0.2185
  557TIP3    H123162   2.942   3.047  16.582  0.0065  0.4026  0.3514
  557TIP3    H223163   3.046   3.146  16.533  0.6741 -0.2245  0.4913
  558TIP3   OH223164   1.695   6.839  13.808 -0.6928 -0.2584 -0.7223
  558TIP3    H123165   1.664   6.825  13.898  1.3095  0.0521  0.0710
  558TIP3    H223166   1.654   6.769  13.757 -1.9314 -0.3947  0.4066
  559TIP3   OH223167   0.655   5.869  12.963  0.1429  0.1174  0.7846
  559TIP3    H123168   0.578   5.834  12.919 -0.3636 -0.1847  1.8700
  559TIP3    H223169   0.696   5.793  13.005  0.9539  0.2994  0.3392
  560TIP3   OH223170   0.147   0.117   1.773  0.5973  0.0250  0.4585
  560TIP3    H123171   0.105   0.203   1.765  0.0674 -0.3990 -2.9735
  560TIP3    H223172   0.236   0.131   1.739  0.4701 -0.7582 -0.2312
  561TIP3   OH223173   3.417   6.149   5.265 -0.0773  0.0901 -0.0291
  561TIP3    H123174   3.327   6.120   5.256  0.0271 -0.2475  0.0066
  561TIP3    H223175   3.469   6.068   5.265  0.0527  0.1160  2.2420
  562TIP3   OH223176   4.442   1.983   3.407 -0.3243 -0.2165  0.2469
  562TIP3    H123177   4.519   2.032   3.435 -1.0757  1.4127 -0.4296
  562TIP3    H223178   4.418   1.931   3.484  0.7230  0.1533  0.8488
  563TIP3   OH223179   2.924   4.384  14.906 -0.0464  0.2523  0.2241
  563TIP3    H123180   2.981   4.309  14.887 -0.5895 -0.1857  0.2937
  563TIP3    H223181   2.837   4.356  14.876 -0.7020  0.0185  2.2170
  564TIP3   OH223182   3.939   5.326  15.613 -0.7787 -0.0074  0.5508
  564TIP3    H123183   3.891   5.250  15.645  0.7647 -0.9224  0.8058
  564TIP3    H223184   4.029   5.295  15.601 -0.7686  0.8554 -2.6217
  565TIP3   OH223185   3.861   2.833  14.221 -0.4038  0.3028  0.1009
  565TIP3    H123186   3.920   2.776  14.169  0.9609  0.5217  1.3433
  565TIP3    H223187   3.866   2.918  14.178  1.7634  0.8327  1.2679
  566TIP3   OH223188   4.261   5.714   5.077 -0.6727 -0.6432  0.6627
  566TIP3    H123189   4.218   5.699   4.993 -0.1614  0.4750  0.1851
  566TIP3    H223190   4.343   5.757   5.055  1.0247 -3.1803  1.5121
  567TIP3   OH223191   0.284   5.014  14.346 -0.6104 -0.6577 -0.0650
  567TIP3    H123192   0.293   5.073  14.422  0.7341  0.3327 -0.9467
  567TIP3    H223193   0.318   4.930  14.377  1.9232  0.2773 -0.1268
  568TIP3   OH223194   2.157   4.962   0.502  0.3585  0.4159  0.4812
  568TIP3    H123195   2.068   4.979   0.533  0.7571  1.1265  1.2956
  568TIP3    H223196   2.148   4.891   0.438 -0.8407  0.7806  0.2238
  569TIP3   OH223197   0.690   4.330  16.844  0.0470  0.2243 -0.1211
  569TIP3    H123198   0.681   4.412  16.795  2.8973  1.8339  1.7591
  569TIP3    H223199   0.765   4.287  16.803 -1.3920 -1.4956 -1.0501
  570TIP3   OH223200   5.001   5.010   6.294 -0.0342 -0.4152  0.9138
  570TIP3    H123201   5.063   5.067   6.339  1.8718 -2.3443  0.8915
  570TIP3    H223202   5.021   5.022   6.201 -2.3289  1.7462  0.5981
  571TIP3   OH223203   0.279   5.109  13.027  0.1178  0.6490 -0.3326
  571TIP3    H123204   0.203   5.062  12.993  1.7960 -1.6465 -1.1522
  571TIP3    H223205   0.306   5.059  13.104  1.2011  1.0452 -0.4403
  572TIP3   OH223206   4.181   2.192   1.456 -0.5275  0.1829  0.0887
  572TIP3    H123207   4.120   2.224   1.523 -0.0429 -3.0419  2.2757
  572TIP3    H223208   4.157   2.101   1.443  2.1056 -0.4446 -1.0387
  573TIP3   OH223209   0.549   2.037  14.359 -0.1767 -0.4716  0.7574
  573TIP3    H123210   0.545   2.012  14.266 -1.5423 -0.3882  0.7710
  573TIP3    H223211   0.476   2.098  14.370  1.7081  1.7887  1.2488
  574TIP3   OH223212   5.172   6.664   1.519 -0.2295 -0.2680  0.0289
  574TIP3    H123213   5.185   6.576   1.483  0.4605 -0.1526 -0.0061
  574TIP3    H223214   5.260   6.700   1.527 -0.4194  0.0181  1.0498
  575TIP3   OH223215   5.453   5.455  12.276  0.3255 -0.1686  0.4166
  575TIP3    H123216   5.425   5.365  12.289 -1.5170  0.2796 -0.1504
  575TIP3    H223217   5.529   5.449  12.219  0.0569 -1.3509  0.1576
  576TIP3   OH223218   1.690   5.632   1.800  1.1291  0.3402 -0.0472
  576TIP3    H123219   1.605   5.644   1.842  0.3529 -1.7951 -0.8651
  576TIP3    H223220   1.733   5.565   1.853  1.4053 -0.1469 -0.8732
  577TIP3   OH223221   4.909   6.299   4.427 -0.0876  0.2818  0.2644
  577TIP3    H123222   4.996   6.324   4.396 -0.4774 -0.3057 -1.4055
  577TIP3    H223223   4.925   6.228   4.489  0.6091 -0.3222 -0.5832
  578TIP3   OH223224   1.448   2.971  11.228  0.0144  0.4550  0.1406
  578TIP3    H123225   1.424   2.901  11.289 -1.8454  0.8705 -0.0299
  578TIP3    H223226   1.530   3.006  11.263 -1.4481  1.3325  3.0509
  579TIP3   OH223227   2.326   0.385  15.016 -0.4884  0.3996 -0.0610
  579TIP3    H123228   2.321   0.474  15.052 -0.0209  0.1346  0.6661
  579TIP3    H223229   2.270   0.333  15.073  1.0499 -0.2239  0.9513
  580TIP3   OH223230   0.552   1.462  17.118 -0.0333  0.5490 -0.1316
  580TIP3    H123231   0.516   1.536  17.167 -0.7357 -0.9594  1.7571
  580TIP3    H223232   0.502   1.387  17.148  0.3202 -0.6679 -2.3592
  581TIP3   OH223233   1.888   0.323   4.044 -0.5685  0.0021  0.9196
  581TIP3    H123234   1.810   0.303   3.993  0.0078  0.4744 -0.1740
  581TIP3    H223235   1.880   0.416   4.065 -0.0423  0.1778  0.3494
  582TIP3   OH223236   4.438   5.791  16.210 -0.3643  0.6515 -0.1006
  582TIP3    H123237   4.462   5.724  16.274  0.4848  0.8754 -0.1850
  582TIP3    H223238   4.344   5.778  16.197  0.0241 -1.3832 -1.1180
  583TIP3   OH223239   1.904   2.897   3.578  0.3525  0.0445 -0.1403
  583TIP3    H123240   1.831   2.836   3.571  0.1767  0.2405 -0.0156
  583TIP3    H223241   1.914   2.933   3.490 -0.3033  0.7125  0.0539
  584TIP3   OH223242   5.340   1.656  10.699 -0.1881  0.3799 -0.0305
  584TIP3    H123243   5.392   1.649  10.620  1.9338  0.7497  1.2509
  584TIP3    H223244   5.257   1.694  10.670 -0.6922 -2.2812 -2.5019
  585TIP3   OH223245   2.602   5.485  15.089 -0.3867 -0.3068 -0.0774
  585TIP3    H123246   2.570   5.528  15.168  0.7872 -1.0125  0.7981
  585TIP3    H223247   2.576   5.544  15.018  0.9219  1.7434  1.0565
  586TIP3   OH223248   3.578   1.686   1.743  0.2359 -0.2317  0.2202
  586TIP3    H123249   3.495   1.725   1.770  0.0416 -0.4400 -0.0789
  586TIP3    H223250   3.605   1.633   1.818 -0.8458 -1.6885 -0.3663
  587TIP3   OH223251   5.280   1.037   3.288  0.4447 -0.3328 -0.0199
  587TIP3    H123252   5.312   0.993   3.367 -1.2415  0.0291  0.9037
  587TIP3    H223253   5.204   0.986   3.262  0.5023  0.0400 -0.9469
  588TIP3   OH223254   0.189   5.288   3.240  0.0521 -0.2813  0.2363
  588TIP3    H123255   0.167   5.375   3.208 -1.4402 -1.1414 -1.2635
  588TIP3    H223256   0.107   5.239   3.235  1.2243 -2.2794 -0.7680
  589TIP3   OH223257   0.842   6.227  11.334  0.6757 -0.6229  0.0056
  589TIP3    H123258   0.875   6.318  11.337 -0.4228 -0.2307  1.3084
  589TIP3    H223259   0.796   6.216  11.417 -0.3180 -1.9744 -0.6915
  590TIP3   OH223260   0.908   5.121   0.520  0.1818  0.4328  0.2400
  590TIP3    H123261   0.865   5.037   0.504 -1.5730  1.5738 -1.4713
  590TIP3    H223262   0.954   5.141   0.439 -1.7761  2.3695 -0.5049
  591TIP3   OH223263   5.526   2.530   4.562 -0.0756 -0.0977  0.1750
  591TIP3    H123264   5.545   2.608   4.614  1.8857 -1.0120  0.9026
  591TIP3    H223265   5.504   2.463   4.627  2.2052 -1.1964 -0.0840
  592TIP3   OH223266   0.326   4.383   1.229 -0.4163  0.5644 -0.7124
  592TIP3    H123267   0.314   4.355   1.138 -0.0300  1.7470 -1.1494
  592TIP3    H223268   0.309   4.304   1.281 -0.0703 -0.2778 -1.8349
  593TIP3   OH223269   2.280   3.995   2.432 -0.2643  0.0931 -0.2366
  593TIP3    H123270   2.361   4.043   2.416  0.2842 -0.9302 -0.6378
  593TIP3    H223271   2.253   4.022   2.520  1.3191 -0.6396  0.5079
  594TIP3   OH223272   1.310   5.680   2.482 -0.4022  0.6441  0.2408
  594TIP3    H123273   1.362   5.619   2.535  0.8255  1.3514 -0.0913
  594TIP3    H223274   1.227   5.687   2.528 -0.0013 -0.0856  1.1202
  595TIP3   OH223275   5.776   2.482   3.224 -0.0306  0.4087  0.4945
  595TIP3    H123276   5.774   2.389   3.246  1.1619 -0.0605 -1.1935
  595TIP3    H223277   5.814   2.524   3.301 -0.4621 -0.5095  1.2251
  596TIP3   OH223278   2.050   4.355   2.183 -0.2696  0.0804  0.3374
  596TIP3    H123279   1.980   4.300   2.149  2.9521 -2.5280 -2.9281
  596TIP3    H223280   2.089   4.304   2.254 -0.6433  0.7958  1.0768
  597TIP3   OH223281   6.853   4.186  13.568  0.2772 -0.1433  0.5696
  597TIP3    H123282   6.773   4.228  13.536 -0.6645 -0.6747  2.1247
  597TIP3    H223283   6.876   4.123  13.500 -0.0755  0.6661 -0.3250
  598TIP3   OH223284   4.239   5.624   5.719  0.4358 -0.3808 -0.1760
  598TIP3    H123285   4.186   5.703   5.715 -0.7446 -1.1940 -2.1366
  598TIP3    H223286   4.227   5.591   5.808  0.0219  1.0020  0.3111
  599TIP3   OH223287   1.812   2.403  17.081  0.3228 -0.1117  0.2323
  599TIP3    H123288   1.780   2.417  17.170  0.1333  0.3518  0.0926
  599TIP3    H223289   1.844   2.313  17.082  0.9527  0.1058  0.9586
  600TIP3   OH223290   5.852   4.865   0.196 -0.6021  0.4820  0.4392
  600TIP3    H123291   5.942   4.898   0.198 -0.2399 -0.5358  1.0617
  600TIP3    H223292   5.837   4.844   0.104 -0.4825  1.3888  0.2016
  601TIP3   OH223293   2.491   3.145  11.768  0.4838 -0.6177  0.4953
  601TIP3    H123294   2.584   3.121  11.765  0.0331 -2.4396 -0.9579
  601TIP3    H223295   2.469   3.163  11.676 -0.5487 -0.0096  0.8576
  602TIP3   OH223296   2.916   4.604  15.525 -0.1954  0.3537 -0.0934
  602TIP3    H123297   2.838   4.658  15.520  0.2234  0.9610 -0.1403
  602TIP3    H223298   2.989   4.664  15.509  0.2061 -0.4249 -1.3816
  603TIP3   OH223299   1.051   4.920  15.281  0.2027  0.4726 -0.1806
  603TIP3    H123300   1.102   4.972  15.218  1.1687  0.8925  0.9041
  603TIP3    H223301   1.117   4.880  15.338 -0.6321 -0.1733  0.3593
  604TIP3   OH223302   2.490   3.107   4.687  0.3522  0.0120  0.2787
  604TIP3    H123303   2.475   3.132   4.596 -1.2984 -1.2682  0.1619
  604TIP3    H223304   2.547   3.176   4.721  1.5033  0.2179 -1.8643
  605TIP3   OH223305   1.060   0.512   3.675  0.5835  0.3949  0.1401
  605TIP3    H123306   1.084   0.592   3.628 -2.0601  0.8075 -0.6694
  605TIP3    H223307   1.061   0.444   3.608  0.1022  0.3302  0.1913
  606TIP3   OH223308   6.701   1.203  15.652 -0.6713  0.0540  0.1595
  606TIP3    H123309   6.640   1.212  15.578 -1.4356  0.2699  0.8070
  606TIP3    H223310   6.667   1.130  15.703  1.0591 -1.5244 -0.8055
  607TIP3   OH223311   0.319   3.477  16.878  0.0380  0.5502  0.7094
  607TIP3    H123312   0.288   3.392  16.911 -0.6773  1.1530  1.6590
  607TIP3    H223313   0.319   3.467  16.783  0.0008 -0.5235  0.8001
  608TIP3   OH223314   6.259   0.978   2.615  0.6398  0.1300 -0.4780
  608TIP3    H123315   6.226   0.899   2.658 -0.2931  0.1695 -1.0980
  608TIP3    H223316   6.353   0.961   2.604  0.4331 -0.9635 -0.7439
  609TIP3   OH223317   4.939   5.538   2.297  0.3739 -0.0540 -0.1068
  609TIP3    H123318   4.903   5.483   2.366  0.4423  0.2240  0.1523
  609TIP3    H223319   4.869   5.600   2.276  0.6721  0.4529  0.3616
  610TIP3   OH223320   3.341   2.169   1.516 -0.4519 -0.1925 -0.6361
  610TIP3    H123321   3.270   2.118   1.477  0.2538 -2.1145  0.4870
  610TIP3    H223322   3.404   2.104   1.547  0.5245  1.3608  0.8105
  611TIP3   OH223323   6.830   0.942  11.925  0.0302 -0.5263  0.9034
  611TIP3    H123324   6.827   1.026  11.879 -0.2731 -0.8543  0.3111
  611TIP3    H223325   6.763   0.949  11.993  0.0003 -0.2958  0.8482
  612TIP3   OH223326   0.232   0.103   1.269 -0.3220 -0.5968 -0.4524
  612TIP3    H123327   0.277   0.030   1.227 -0.7331 -0.7246 -0.6821
  612TIP3    H223328   0.139   0.085   1.255 -0.4203  0.4632 -1.3830
  613TIP3   OH223329   3.784   3.699  12.855  0.7007 -0.0846 -0.8098
  613TIP3    H123330   3.704   3.664  12.816  1.5562 -2.1724 -0.8200
  613TIP3    H223331   3.840   3.720  12.780  0.8785 -0.4516 -0.7834
  614TIP3   OH223332   5.604   2.553  15.320  0.1224  0.0863 -0.3238
  614TIP3    H123333   5.602   2.636  15.367  0.0376  0.2498 -0.6189
  614TIP3    H223334   5.642   2.574  15.235  1.4112 -0.4218  0.0914
  615TIP3   OH223335   5.188   4.495   2.950 -0.0442  0.5402 -0.1515
  615TIP3    H123336   5.246   4.461   2.883 -0.1550  1.2633 -0.6261
  615TIP3    H223337   5.114   4.532   2.902 -1.3159 -1.0811  0.4728
  616TIP3   OH223338   1.425   5.101  11.102  0.5266  0.6597 -0.3892
  616TIP3    H123339   1.366   5.111  11.027  2.3372  2.4608 -1.6704
  616TIP3    H223340   1.404   5.174  11.159  1.0942  0.9765 -0.5750
  617TIP3   OH223341   4.221   2.457   1.208  0.0560  0.8622  0.3229
  617TIP3    H123342   4.169   2.377   1.200 -0.6596  1.2824  0.6734
  617TIP3    H223343   4.311   2.428   1.197 -0.2214  0.0655  0.0510
  618TIP3   OH223344   4.202   0.756   0.765  0.2925 -0.2452  0.2645
  618TIP3    H123345   4.280   0.722   0.720 -0.5503  0.4717 -1.8556
  618TIP3    H223346   4.132   0.695   0.743 -0.5387  1.0923 -0.9993
  619TIP3   OH223347   6.412   6.105  16.309  0.1434 -0.2055  0.1442
  619TIP3    H123348   6.331   6.064  16.340 -0.3709 -0.0276 -0.8959
  619TIP3    H223349   6.481   6.067  16.364 -0.7742  0.6889  1.9901
  620TIP3   OH223350   3.403   0.034  14.255  0.0451 -0.2242 -0.0004
  620TIP3    H123351   3.341   0.025  14.328 -0.8555 -1.0194 -0.8363
  620TIP3    H223352   3.422  -0.056  14.229  1.0880  0.0277 -0.1583
  621TIP3   OH223353   5.162   0.518   6.917  0.4043 -0.0316  0.3310
  621TIP3    H123354   5.089   0.539   6.975 -0.7188 -0.0582 -1.0126
  621TIP3    H223355   5.208   0.601   6.905 -0.9085  0.5776 -0.7856
  622TIP3   OH223356   5.947   3.847  16.094 -0.6249  0.4756 -0.4376
  622TIP3    H123357   5.947   3.835  16.189  1.2376  0.3036 -0.4169
  622TIP3    H223358   5.970   3.939  16.081  0.4142  0.1941 -0.7078
  623TIP3   OH223359   3.266   3.008  11.627 -0.0600 -0.3327  0.1919
  623TIP3    H123360   3.303   3.026  11.541  0.1276  0.1427  0.3648
  623TIP3    H223361   3.342   2.998  11.684 -0.1449 -1.9438  0.0701
  624TIP3   OH223362   1.289   3.635  12.149 -0.2774 -0.4169  0.5199
  624TIP3    H123363   1.301   3.721  12.107  0.7278 -0.3419  0.9377
  624TIP3    H223364   1.195   3.617  12.139 -0.0446 -0.5894 -2.0812
  625TIP3   OH223365   4.938   1.110   3.404  0.2789 -0.1935 -0.0890
  625TIP3    H123366   4.860   1.096   3.457  1.3603 -0.7719  1.4412
  625TIP3    H223367   4.905   1.133   3.318 -1.5650  0.2421  0.6841
  626TIP3   OH223368   6.447   1.295  12.980 -0.5025 -0.6141  0.2944
  626TIP3    H123369   6.369   1.264  13.026  0.1575 -1.0333  1.1835
  626TIP3    H223370   6.459   1.234  12.908 -1.6085  0.1055 -0.5264
  627TIP3   OH223371   3.852   5.092  11.946 -0.3034 -0.0743  0.6401
  627TIP3    H123372   3.795   5.040  12.002  2.1765 -0.1126  3.3745
  627TIP3    H223373   3.852   5.180  11.986 -2.0985  1.3317 -2.1501
  628TIP3   OH223374   2.905   3.077  11.028  0.9505 -0.1850  0.0563
  628TIP3    H123375   2.900   3.172  11.016 -0.3434 -0.2240  0.1700
  628TIP3    H223376   2.950   3.045  10.950 -0.8169  0.2853 -1.2026
  629TIP3   OH223377   0.589   6.280  15.419 -0.3134 -0.0745 -0.8250
  629TIP3    H123378   0.545   6.203  15.383 -1.3279  1.1626 -2.3596
  629TIP3    H223379   0.590   6.265  15.514 -1.1255 -1.6280 -1.0293
  630TIP3   OH223380   6.547   0.328  11.879 -0.4938  0.5816 -0.4185
  630TIP3    H123381   6.537   0.238  11.848  0.0386  0.3749 -0.0146
  630TIP3    H223382   6.497   0.381  11.817  0.8286  0.2282 -1.8353
  631TIP3   OH223383   1.542   0.826  13.835 -0.1175 -0.3739 -0.7893
  631TIP3    H123384   1.512   0.747  13.881  1.2256 -1.6798 -2.0633
  631TIP3    H223385   1.636   0.831  13.853 -0.1206  0.7953 -0.9766
  632TIP3   OH223386   4.662   4.798   5.465 -0.1674  0.0736 -0.3318
  632TIP3    H123387   4.613   4.872   5.431 -1.1298 -1.5523 -2.7757
  632TIP3    H223388   4.731   4.782   5.400 -0.6593 -1.7763 -0.4630
  633TIP3   OH223389   2.351   6.286  13.507  0.6003  0.1501 -0.2326
  633TIP3    H123390   2.258   6.309  13.507  0.7729  0.8543 -0.1379
  633TIP3    H223391   2.379   6.298  13.597  1.0237  0.9341 -0.4644
  634TIP3   OH223392   6.235   3.981  17.078 -0.0504 -0.3078  0.2157
  634TIP3    H123393   6.150   4.018  17.056 -0.4468 -2.3594 -2.3251
  634TIP3    H223394   6.218   3.921  17.150 -0.2536  1.0476  1.3183
  635TIP3   OH223395   2.850   0.456  14.906  0.1901 -0.9529 -0.3311
  635TIP3    H123396   2.849   0.367  14.870  1.0251 -0.2775 -2.1228
  635TIP3    H223397   2.786   0.504  14.854  0.4499 -0.2635 -0.0184
  636TIP3   OH223398   5.348   5.788  15.698  0.4398 -0.0525  0.3257
  636TIP3    H123399   5.440   5.761  15.702  0.2340 -0.6513  1.1677
  636TIP3    H223400   5.331   5.830  15.782 -0.2749 -0.6384  0.4811
  637TIP3   OH223401   6.644   1.374  15.147 -0.0973  0.0432 -0.2769
  637TIP3    H123402   6.621   1.456  15.104  1.9085  0.5351 -0.5198
  637TIP3    H223403   6.696   1.400  15.223  1.2159 -0.9889 -0.7749
  638TIP3   OH223404   0.528   4.811  16.011 -0.2596 -0.4288 -0.0149
  638TIP3    H123405   0.519   4.735  16.068  0.2287  0.0650  0.7375
  638TIP3    H223406   0.479   4.788  15.932 -0.3812 -1.3913  0.3307
  639TIP3   OH223407   6.308   5.850   2.910  0.0771 -0.6044 -0.0075
  639TIP3    H123408   6.237   5.832   2.972  0.3054 -0.9842  0.1482
  639TIP3    H223409   6.321   5.945   2.916  0.4062 -0.6926  0.8740
  640TIP3   OH223410   3.398   0.548   2.490 -0.2280 -0.3452 -0.0986
  640TIP3    H123411   3.409   0.608   2.416  0.5585  0.2158  0.4548
  640TIP3    H223412   3.477   0.493   2.488  0.9429  1.1464  1.6121
  641TIP3   OH223413   0.226   2.399   5.806  0.2202 -0.3645  0.0850
  641TIP3    H123414   0.196   2.461   5.873  0.4950  0.8510 -0.8855
  641TIP3    H223415   0.161   2.330   5.807 -0.0043 -0.1656  1.3178
  642TIP3   OH223416   1.820   3.902   3.637  0.3705  0.3721 -0.1418
  642TIP3    H123417   1.877   3.826   3.646 -0.3337  0.0316  1.8105
  642TIP3    H223418   1.879   3.975   3.621  1.2211 -0.2579  0.0811
  643TIP3   OH223419   3.239   4.905   1.178  0.4153 -0.2073 -0.6773
  643TIP3    H123420   3.218   4.920   1.086 -0.2275  1.3335 -0.3196
  643TIP3    H223421   3.317   4.851   1.177  2.1772  2.1879 -2.1832
  644TIP3   OH223422   5.441   0.811   5.318  0.0372 -0.0782 -0.4441
  644TIP3    H123423   5.406   0.735   5.364  1.5163 -0.3624  0.2834
  644TIP3    H223424   5.489   0.860   5.386  1.5704 -0.0560 -1.4864
  645TIP3   OH223425   3.609   0.807   0.003 -0.2215  0.7760  0.0541
  645TIP3    H123426   3.699   0.792   0.033 -0.1961  1.2010  0.2095
  645TIP3    H223427   3.589   0.733  -0.054  0.0491  0.4161  0.4182
  646TIP3   OH223428   6.158   6.499  14.160 -0.0944  0.6463 -0.0580
  646TIP3    H123429   6.080   6.447  14.141  0.8135 -0.8697  0.1901
  646TIP3    H223430   6.125   6.574  14.209 -1.4128  0.1311 -0.1093
  647TIP3   OH223431   0.089   4.812  15.859 -0.4761 -0.3887  0.7380
  647TIP3    H123432   0.026   4.873  15.897 -0.8940 -0.8083  0.7440
  647TIP3    H223433   0.050   4.725  15.875 -0.7362 -0.5700 -0.7461
  648TIP3   OH223434   0.838   3.762  13.847  0.4851  0.2338  0.4932
  648TIP3    H123435   0.870   3.685  13.894  1.0040  0.0949 -0.0668
  648TIP3    H223436   0.905   3.779  13.781 -1.1162 -0.7924 -1.5274
  649TIP3   OH223437   0.312   0.449  16.014  0.0968  0.2288 -0.0515
  649TIP3    H123438   0.332   0.360  15.987 -2.0125 -0.4204  0.3998
  649TIP3    H223439   0.229   0.470  15.970 -0.1729  1.4434  0.9813
  650TIP3   OH223440   4.484   6.711  10.608  0.5816  0.3255 -0.1681
  650TIP3    H123441   4.513   6.699  10.698 -1.7386  2.5295  0.9931
  650TIP3    H223442   4.446   6.626  10.583  0.3870 -0.0241  1.2556
  651TIP3   OH223443   5.296   1.929   4.718  0.4367 -0.0222 -0.2914
  651TIP3    H123444   5.338   1.924   4.804  0.9564 -0.0877 -0.5420
  651TIP3    H223445   5.202   1.923   4.736  0.5163  0.4771  0.3100
  652TIP3   OH223446   6.330   6.129   3.614 -0.2202  0.2844  0.2858
  652TIP3    H123447   6.259   6.091   3.563  0.1523  0.6771 -0.5392
  652TIP3    H223448   6.388   6.169   3.549  1.1406 -0.6663  0.8811
  653TIP3   OH223449   0.181   5.659  14.665 -0.1985 -0.6657  0.2942
  653TIP3    H123450   0.262   5.615  14.691 -0.1740  0.3956  2.1652
  653TIP3    H223451   0.204   5.708  14.586  0.8916 -0.6538  0.6083
  654TIP3   OH223452   5.866   3.613  13.061  0.0476  0.5100  0.6929
  654TIP3    H123453   5.777   3.622  13.097  0.9670  1.6646  2.8165
  654TIP3    H223454   5.871   3.521  13.034 -1.9211  0.5259  0.0458
  655TIP3   OH223455   0.475   5.873  16.874 -0.3084 -0.2198  0.0971
  655TIP3    H123456   0.569   5.890  16.870 -0.3538  0.2144  0.6411
  655TIP3    H223457   0.434   5.952  16.839 -0.4842 -0.0041  0.7660
  656TIP3   OH223458   4.764   3.793  16.994 -0.2084  0.4901 -0.3589
  656TIP3    H123459   4.707   3.740  17.050  1.9775 -0.5591  0.9994
  656TIP3    H223460   4.759   3.881  17.031  0.4709  0.0019  0.9678
  657TIP3   OH223461   6.642   1.191   1.655 -0.1710  0.3294  0.5227
  657TIP3    H123462   6.584   1.256   1.695  1.6655  1.8006  0.9428
  657TIP3    H223463   6.697   1.161   1.727 -1.5621 -2.4983  0.5575
  658TIP3   OH223464   1.924   2.278   4.185  0.2776 -0.7200 -0.2695
  658TIP3    H123465   1.904   2.192   4.223 -0.6357 -0.4842 -0.2097
  658TIP3    H223466   1.994   2.260   4.122 -1.1129 -1.8162 -1.5716
  659TIP3   OH223467   0.939   1.062  11.271  0.4563  0.0370  0.5225
  659TIP3    H123468   0.967   1.069  11.180  1.1105  0.5947  0.7622
  659TIP3    H223469   1.016   1.029  11.318  0.2427  0.1173  0.9359
  660TIP3   OH223470   3.285   4.190  14.992 -0.3749 -0.1689 -0.4546
  660TIP3    H123471   3.245   4.104  14.977  0.0322 -0.3425 -0.5604
  660TIP3    H223472   3.379   4.174  14.983 -0.3863  0.7653 -2.8859
  661TIP3   OH223473   2.155   4.960  15.949 -0.0027 -0.3324 -0.3526
  661TIP3    H123474   2.152   5.048  15.913 -0.6691 -0.5260 -0.7892
  661TIP3    H223475   2.194   4.971  16.036  2.4744  0.0386 -1.4020
  662TIP3   OH223476   0.866   5.632  14.418  0.0048  0.5753  0.1863
  662TIP3    H123477   0.780   5.617  14.378 -0.6421  1.5307  1.1819
  662TIP3    H223478   0.869   5.726  14.434  1.4815  0.6384 -0.3433
  663TIP3   OH223479   6.597   4.731  13.428 -0.1996  0.0551 -0.0807
  663TIP3    H123480   6.662   4.801  13.436  0.1938 -0.0705 -1.7864
  663TIP3    H223481   6.641   4.653  13.462  0.1708  0.1908 -0.2436
  664TIP3   OH223482   5.810   1.962  15.700 -0.9031 -0.4818 -0.4474
  664TIP3    H123483   5.788   1.881  15.654  0.5521 -0.7285 -0.7547
  664TIP3    H223484   5.890   1.941  15.748 -0.5860  0.7360 -0.4141
  665TIP3   OH223485   5.466   5.345   1.381 -0.3855  0.4757  0.0568
  665TIP3    H123486   5.441   5.416   1.440  1.8325  0.8272  0.6303
  665TIP3    H223487   5.532   5.384   1.324  1.4974 -1.3036  0.9235
  666TIP3   OH223488   0.443   6.310   2.595 -0.3581 -0.0486 -0.6967
  666TIP3    H123489   0.377   6.303   2.664 -1.0906 -1.3020 -1.4911
  666TIP3    H223490   0.393   6.328   2.515  0.4668  1.1838 -0.9716
  667TIP3   OH223491   4.236   1.816   0.704  0.2840  0.2508  0.1669
  667TIP3    H123492   4.191   1.743   0.746  2.6016 -1.0766  0.5492
  667TIP3    H223493   4.260   1.783   0.617 -1.5019  1.7819 -0.9857
  668TIP3   OH223494   4.580   2.278   2.393 -0.0925  0.2516  0.0642
  668TIP3    H123495   4.497   2.282   2.346  1.1401  1.2005 -2.1590
  668TIP3    H223496   4.631   2.212   2.346  0.6150  0.0500  1.0798
  669TIP3   OH223497   1.494   1.768   0.506 -0.0381  0.0242 -0.5530
  669TIP3    H123498   1.524   1.841   0.451 -0.0565 -1.1772 -2.2597
  669TIP3    H223499   1.399   1.768   0.495  0.0202 -0.6909 -1.2054
  670TIP3   OH223500   2.532   1.593  16.452  0.5157 -0.4332  0.0102
  670TIP3    H123501   2.503   1.503  16.468 -0.5087 -0.7907 -3.0370
  670TIP3    H223502   2.591   1.586  16.376  1.7607  1.3095  0.7537
  671TIP3   OH223503   2.304   6.406  12.821  0.4313  0.2369  0.1895
  671TIP3    H123504   2.356   6.418  12.900  1.4189  0.3897 -0.4659
  671TIP3    H223505   2.218   6.378  12.853  1.1193 -0.7296  1.2700
  672TIP3   OH223506   6.451   3.946   5.630  0.1357  0.4363 -0.0765
  672TIP3    H123507   6.375   3.935   5.688  1.5206  0.7038  1.9031
  672TIP3    H223508   6.484   4.034   5.651  0.7735  0.4694 -1.1653
  673TIP3   OH223509   3.029   3.375  12.191 -0.1515 -1.0537 -0.3239
  673TIP3    H123510   3.013   3.453  12.245  1.4509  0.2368 -1.5768
  673TIP3    H223511   2.951   3.321  12.202 -1.8385  1.2625 -0.2934
  674TIP3   OH223512   5.234   6.650  11.856  0.0291  0.0303 -0.8955
  674TIP3    H123513   5.206   6.570  11.900  0.8515 -0.6878 -1.6331
  674TIP3    H223514   5.153   6.701  11.844 -0.0288  1.1603  3.0242
  675TIP3   OH223515   5.186   3.327  12.585 -0.1785  0.1550  0.2516
  675TIP3    H123516   5.090   3.322  12.590 -0.2027  0.7096  0.4927
  675TIP3    H223517   5.211   3.375  12.664  0.1739  1.3313 -0.5428
  676TIP3   OH223518   6.776   5.023  11.129  0.5887 -0.5037  0.4748
  676TIP3    H123519   6.726   5.080  11.070 -0.2941  0.0102  1.6834
  676TIP3    H223520   6.839   4.979  11.071  1.0935  1.4481 -0.5663
  677TIP3   OH223521   6.274   0.537  14.558 -0.0933 -0.2108 -0.3300
  677TIP3    H123522   6.289   0.446  14.533  2.5360 -0.0001  0.1420
  677TIP3    H223523   6.265   0.535  14.653  0.0571  0.0100 -0.3093
  678TIP3   OH223524   1.923   4.078   0.961 -0.0627 -0.0513  0.2371
  678TIP3    H123525   1.935   4.013   1.030 -1.0748  0.2879  0.7456
  678TIP3    H223526   1.855   4.137   0.994  1.6911  2.0552  0.3611
  679TIP3   OH223527   4.078   2.180  12.498 -0.1276  0.0174  0.0062
  679TIP3    H123528   4.059   2.135  12.416 -0.4190  2.0151 -1.1000
  679TIP3    H223529   4.007   2.154  12.556 -0.4300 -0.7228 -0.6749
  680TIP3   OH223530   4.157   5.571   1.838 -0.7241 -0.6278 -0.1276
  680TIP3    H123531   4.132   5.561   1.746  0.0652 -0.2160 -0.3976
  680TIP3    H223532   4.215   5.496   1.855 -0.6161 -0.5286 -0.0596
  681TIP3   OH223533   3.557   1.468   0.039  0.1631 -0.0289  0.1419
  681TIP3    H123534   3.641   1.422   0.037  0.2592  0.1255  0.6360
  681TIP3    H223535   3.579   1.560   0.028  0.0176 -0.0325 -0.2051
  682TIP3   OH223536   0.931   3.382   5.244  0.4393 -0.4671 -0.0740
  682TIP3    H123537   0.924   3.478   5.247  0.2659 -0.4886  0.1762
  682TIP3    H223538   0.858   3.355   5.188 -0.3084 -0.5458  0.9186
  683TIP3   OH223539   5.886   0.721   4.136 -0.5121  0.0669  0.1631
  683TIP3    H123540   5.847   0.633   4.139  1.6946 -1.0542 -1.4192
  683TIP3    H223541   5.907   0.735   4.044 -0.8147  2.3103  0.3729
  684TIP3   OH223542   6.436   5.102  14.092 -0.1799  0.1105 -0.1152
  684TIP3    H123543   6.489   5.074  14.167 -0.9494 -1.7016 -0.1999
  684TIP3    H223544   6.373   5.031  14.080 -1.3801  1.3257 -1.2237
  685TIP3   OH223545   1.633   1.065  11.294  0.4250 -0.0951  0.5363
  685TIP3    H123546   1.639   1.158  11.314 -1.8498  0.2318 -0.0261
  685TIP3    H223547   1.574   1.060  11.219  1.8013 -1.9042 -0.5120
  686TIP3   OH223548   3.609   0.105   0.107 -0.1219 -0.0763 -1.1632
  686TIP3    H123549   3.573   0.029   0.063 -1.5517  0.0330 -0.2462
  686TIP3    H223550   3.689   0.073   0.149 -1.5124 -1.5321  0.5290
  687TIP3   OH223551   0.351   5.626   0.414  0.0907  0.5677 -0.3891
  687TIP3    H123552   0.361   5.703   0.470 -2.3351  1.4184 -1.0260
  687TIP3    H223553   0.360   5.660   0.325  3.0803 -0.6429 -0.6727
  688TIP3   OH223554   4.084   6.685  14.654  0.8422 -0.0090  0.4004
  688TIP3    H123555   4.114   6.598  14.683  0.2068 -0.3046  0.1796
  688TIP3    H223556   3.997   6.695  14.691  0.8911  0.5196  0.3837
  689TIP3   OH223557   6.856   6.082   2.873 -0.2767  0.2144  0.1636
  689TIP3    H123558   6.783   6.132   2.910 -0.3737  0.8173 -0.7886
  689TIP3    H223559   6.814   6.019   2.814 -0.0422  0.3769 -0.1758
  690TIP3   OH223560   3.966   0.708   4.272  0.0970  0.6363 -0.1652
  690TIP3    H123561   3.914   0.754   4.207 -1.3245 -1.5386 -0.6425
  690TIP3    H223562   3.910   0.638   4.304  2.6084 -1.7147 -0.5411
  691TIP3   OH223563   0.437   4.118   4.994  0.1193 -0.0580  0.1824
  691TIP3    H123564   0.516   4.089   4.949  0.3654 -1.8338  1.6813
  691TIP3    H223565   0.469   4.174   5.065 -0.0794  0.2506  0.0338
  692TIP3   OH223566   0.026   1.483  15.057  0.4477  0.5918  0.4365
  692TIP3    H123567   0.110   1.440  15.073  1.4297  1.3891 -2.1104
  692TIP3    H223568  -0.036   1.410  15.046  1.5143 -0.1637 -0.9876
  693TIP3   OH223569   5.960   6.291   4.657 -0.2668  0.9568 -0.0887
  693TIP3    H123570   6.049   6.327   4.661  1.4737 -2.8475  2.0780
  693TIP3    H223571   5.963   6.227   4.586 -1.0400  0.3337  0.4205
  694TIP3   OH223572   2.169   1.081  14.098  0.2115  0.1262  0.3033
  694TIP3    H123573   2.128   1.092  14.013  0.3885 -1.3134 -0.0074
  694TIP3    H223574   2.096   1.059  14.157 -0.2434  3.2575  1.0678
  695TIP3   OH223575   2.197   2.507   2.728 -0.2337  0.5423  0.0230
  695TIP3    H123576   2.217   2.547   2.813 -1.0185 -0.6562  0.8046
  695TIP3    H223577   2.258   2.434   2.720 -0.1392  0.6685 -0.4789
  696TIP3   OH223578   5.188   4.273  11.824  0.0833 -0.0852  0.0389
  696TIP3    H123579   5.160   4.241  11.909  1.3782 -1.1668  0.0863
  696TIP3    H223580   5.109   4.309  11.784 -1.1337 -2.0243  0.5942
  697TIP3   OH223581   0.817   3.053  14.558 -0.2076  0.4960 -0.3824
  697TIP3    H123582   0.854   3.113  14.493 -0.0684  0.1786 -0.5945
  697TIP3    H223583   0.731   3.030  14.522 -1.0170  1.9092  0.5169
  698TIP3   OH223584   5.442   4.169   5.595 -0.3566 -0.0864  0.5654
  698TIP3    H123585   5.418   4.223   5.519 -1.7418 -0.5091  0.6699
  698TIP3    H223586   5.429   4.079   5.565  0.0255 -0.2878  1.0044
  699TIP3   OH223587   6.777   0.512  12.375  0.0318 -0.2320 -0.1861
  699TIP3    H123588   6.806   0.561  12.298 -0.5118  0.8419  0.2761
  699TIP3    H223589   6.855   0.505  12.430  0.6976 -1.8986 -1.2467
  700TIP3   OH223590   6.563   6.293   1.086  0.2015  0.4667  0.0261
  700TIP3    H123591   6.509   6.238   1.143 -1.4530  3.0032  1.0906
  700TIP3    H223592   6.600   6.232   1.021 -0.6529 -1.9911  1.6978
  701TIP3   OH223593   6.095   5.861   0.062 -0.6538 -0.5108 -0.0352
  701TIP3    H123594   6.089   5.766   0.052  3.1956 -1.0248  0.8281
  701TIP3    H223595   6.111   5.894  -0.027  2.2346 -1.3057  0.0840
  702TIP3   OH223596   1.169   2.194  11.625 -0.1992 -0.7898  0.1071
  702TIP3    H123597   1.224   2.121  11.654  1.5464  0.8536  1.1308
  702TIP3    H223598   1.087   2.183  11.674  1.4538  0.0512  3.2958
  703TIP3   OH223599   2.069   5.152   1.079 -0.3895  0.0931  0.1957
  703TIP3    H123600   2.030   5.070   1.048 -1.6208  0.7171  0.0364
  703TIP3    H223601   2.028   5.166   1.165  0.2776  0.2350  0.4949
  704TIP3   OH223602   3.517   3.567   0.860  0.3167  0.2412 -0.0229
  704TIP3    H123603   3.591   3.546   0.802  0.9042  2.0197  0.0349
  704TIP3    H223604   3.553   3.630   0.923 -0.8287 -0.1539  1.0710
  705TIP3   OH223605   2.132   2.916  13.562  0.2416  0.4449  0.3934
  705TIP3    H123606   2.201   2.851  13.570 -1.1427 -1.1667 -0.3323
  705TIP3    H223607   2.123   2.952  13.651  0.8100 -0.5661  0.8781
  706TIP3   OH223608   2.031   5.013   5.360 -0.5229  0.2588 -0.6686
  706TIP3    H123609   1.994   5.096   5.330 -0.2711  1.2542  1.5264
  706TIP3    H223610   1.956   4.953   5.363 -0.7861  0.4965 -1.8863
  707TIP3   OH223611   1.187   4.294   0.268  0.0149 -0.2242 -0.4997
  707TIP3    H123612   1.158   4.333   0.350  0.8818  1.2921 -0.8721
  707TIP3    H223613   1.111   4.300   0.210 -0.2502 -0.2580 -0.1575
  708TIP3   OH223614   4.208   5.782  15.207  0.4213 -0.4171  0.1094
  708TIP3    H123615   4.129   5.831  15.184 -0.1823 -2.1082 -1.6347
  708TIP3    H223616   4.268   5.849  15.242 -1.6292  0.9574  1.1872
  709TIP3   OH223617   3.338   5.774  16.283 -0.1928 -0.3761 -0.1806
  709TIP3    H123618   3.432   5.782  16.266 -0.4804  3.1176 -0.8243
  709TIP3    H223619   3.324   5.814  16.368 -1.2682  1.0318 -0.9585
  710TIP3   OH223620   5.290   4.224   4.855 -0.0100  0.4178  0.1165
  710TIP3    H123621   5.287   4.211   4.950 -1.8606 -1.4180 -0.1145
  710TIP3    H223622   5.377   4.262   4.839  0.2347  1.0715  2.5468
  711TIP3   OH223623   0.478   1.947  16.995  0.1889  1.2090  0.2432
  711TIP3    H123624   0.570   1.968  16.981  0.4251  0.3945  0.5357
  711TIP3    H223625   0.465   1.959  17.089 -0.0854  1.6163  0.1574
  712TIP3   OH223626   4.725   0.153   0.110  0.4314 -0.0007  0.3680
  712TIP3    H123627   4.773   0.091   0.164  0.7189  0.4447  0.6392
  712TIP3    H223628   4.741   0.238   0.152  1.9020  0.5784 -1.2125
  713TIP3   OH223629   1.127   1.278  10.162  0.0538  0.1304  0.1027
  713TIP3    H123630   1.137   1.370  10.138  0.4265  0.9795  3.0705
  713TIP3    H223631   1.064   1.279  10.235 -0.4016 -2.0641 -0.1683
  714TIP3   OH223632   1.539   1.311   2.885  0.6793 -0.4372 -0.1252
  714TIP3    H123633   1.511   1.399   2.909 -0.3895 -0.6288 -0.6006
  714TIP3    H223634   1.621   1.298   2.931  0.1987  0.3351  0.9858
  715TIP3   OH223635   3.747   3.262   4.993 -0.5390 -0.6000 -0.3530
  715TIP3    H123636   3.817   3.233   4.934  0.5967  1.5323 -0.1475
  715TIP3    H223637   3.671   3.274   4.936  0.1589  0.1091 -1.1644
  716TIP3   OH223638   6.548   5.789  11.353 -0.1293  0.0706  0.2800
  716TIP3    H123639   6.537   5.728  11.426  2.0321 -0.9078 -0.1411
  716TIP3    H223640   6.510   5.743  11.278 -0.8128  0.3613  0.4371
  717TIP3   OH223641   2.733   1.665  16.220 -0.4902 -0.0641  0.2905
  717TIP3    H123642   2.713   1.613  16.142 -1.4522 -0.8108  1.0192
  717TIP3    H223643   2.798   1.729  16.190  0.0026 -1.0715 -0.8424
  718TIP3   OH223644   4.118   1.218   1.171 -0.4063  0.7175 -0.5585
  718TIP3    H123645   4.122   1.162   1.249 -0.8231 -0.6089 -1.4425
  718TIP3    H223646   4.050   1.282   1.191  0.2273  1.0687  0.5661
  719TIP3   OH223647   5.354   0.917  15.699 -0.2501 -0.1618  0.2779
  719TIP3    H123648   5.329   0.874  15.781  0.9402 -0.8465  0.3119
  719TIP3    H223649   5.440   0.880  15.678  0.4430  1.6111 -0.1415
  720TIP3   OH223650   5.808   3.656   5.109  0.2317  0.1083  0.1525
  720TIP3    H123651   5.813   3.684   5.017  1.4790 -0.1222  0.1410
  720TIP3    H223652   5.730   3.700   5.142  0.1343  0.7262 -0.8413
  721TIP3   OH223653   3.753   0.990   5.363  0.0130 -0.1763 -0.1055
  721TIP3    H123654   3.825   0.954   5.311 -1.0373 -0.9637 -1.0855
  721TIP3    H223655   3.794   1.053   5.421  1.3358  0.2627 -1.4576
  722TIP3   OH223656   6.797   5.864   1.234  0.1856  0.0885 -0.9809
  722TIP3    H123657   6.725   5.914   1.274  1.6308  0.4534  1.3589
  722TIP3    H223658   6.762   5.776   1.223 -0.7269  0.3257 -0.1396
  723TIP3   OH223659   1.860   3.729  16.593 -0.4608  0.7759  0.3632
  723TIP3    H123660   1.927   3.778  16.546  0.8798 -1.8934 -0.7054
  723TIP3    H223661   1.778   3.755  16.551  0.4017  0.6794 -1.5011
  724TIP3   OH223662   0.852   4.933  14.542 -0.0033 -0.6507 -0.1654
  724TIP3    H123663   0.919   4.916  14.608 -0.2862  1.5268  0.7750
  724TIP3    H223664   0.871   4.873  14.471  3.1605  0.1372 -0.0965
  725TIP3   OH223665   1.208   1.341  13.044 -0.0937  0.0063 -0.4683
  725TIP3    H123666   1.213   1.307  12.954  1.7163 -0.7118 -0.1303
  725TIP3    H223667   1.156   1.275  13.090 -0.9182  0.3093 -0.9330
  726TIP3   OH223668   2.278   1.289   5.428 -0.3024  0.1505 -0.0046
  726TIP3    H123669   2.229   1.210   5.449 -0.0303 -0.3373 -1.0936
  726TIP3    H223670   2.286   1.336   5.511  0.0033 -1.2249  0.7775
  727TIP3   OH223671   0.485   6.806  13.631 -0.0368 -0.7389 -0.2810
  727TIP3    H123672   0.411   6.811  13.692  0.4117 -1.3618  0.3262
  727TIP3    H223673   0.495   6.713  13.612  0.7072 -0.6832 -0.2081
  728TIP3   OH223674   4.741   3.430   2.502 -0.5778 -0.5283  0.3576
  728TIP3    H123675   4.812   3.368   2.518  0.1122 -0.2619 -1.4468
  728TIP3    H223676   4.668   3.397   2.556  1.1887 -0.1577  3.1692
  729TIP3   OH223677   1.766   6.245  16.105  0.2500 -0.0683 -0.0837
  729TIP3    H123678   1.680   6.221  16.070 -0.5538  1.6174  0.6078
  729TIP3    H223679   1.803   6.304  16.039  0.7172 -0.4697 -0.1865
  730TIP3   OH223680   4.637   2.215   1.047 -0.4690 -0.1151 -0.1607
  730TIP3    H123681   4.622   2.199   1.140  0.1255 -0.8921 -0.1936
  730TIP3    H223682   4.559   2.180   1.003  0.1013 -1.5086 -0.1016
  731TIP3   OH223683   1.211   6.158   2.430 -0.4670  0.7262  0.3351
  731TIP3    H123684   1.168   6.244   2.432 -1.1609  0.3738  0.5686
  731TIP3    H223685   1.304   6.178   2.445 -0.6801  1.3966  0.8218
  732TIP3   OH223686   3.497   4.728  13.471  0.4943 -0.1316  0.1366
  732TIP3    H123687   3.514   4.652  13.527 -0.0795 -0.5337 -0.2229
  732TIP3    H223688   3.560   4.794  13.500 -0.5413  0.0794  2.0587
  733TIP3   OH223689   3.121   5.073  11.801  0.4035  0.3300  0.4758
  733TIP3    H123690   3.117   5.005  11.735 -1.2679  0.2069  0.6757
  733TIP3    H223691   3.135   5.154  11.752  1.0026  0.0194  0.1317
  734TIP3   OH223692   1.673   5.917   4.006  0.1239 -0.4647  0.8858
  734TIP3    H123693   1.768   5.927   4.009  0.0861  0.7104 -0.3916
  734TIP3    H223694   1.639   6.001   4.035 -0.4649 -0.2414 -0.3537
  735TIP3   OH223695   1.574   0.496  13.512 -0.1249 -0.4029  0.7702
  735TIP3    H123696   1.635   0.524  13.444  0.0118 -1.0776  0.6123
  735TIP3    H223697   1.629   0.481  13.589 -0.3667  1.0706  1.2636
  736TIP3   OH223698   0.679   4.780   2.374 -0.5662 -0.7147 -0.3557
  736TIP3    H123699   0.706   4.830   2.451  0.1500 -0.9982 -0.4128
  736TIP3    H223700   0.747   4.712   2.364 -0.5654 -0.5978 -1.3106
  737TIP3   OH223701   4.596   2.440   4.844 -0.3238 -0.0709 -0.8044
  737TIP3    H123702   4.676   2.393   4.866  0.3029  1.1228 -0.4284
  737TIP3    H223703   4.621   2.496   4.770 -0.9768 -0.1251 -1.0709
  738TIP3   OH223704   4.350   4.639  14.282 -0.5287  0.4539  0.0286
  738TIP3    H123705   4.428   4.644  14.338  1.8110  3.5142 -3.0552
  738TIP3    H223706   4.300   4.565  14.317  3.3843 -1.3006  2.6586
  739TIP3   OH223707   3.014   2.280   3.252  0.1969  0.1549 -0.2997
  739TIP3    H123708   3.047   2.208   3.197  2.2927  0.5743  0.3402
  739TIP3    H223709   2.934   2.244   3.292  0.4898 -1.3600 -0.9928
  740TIP3   OH223710   3.048   0.853  14.664  0.1316 -0.2963  0.4183
  740TIP3    H123711   2.958   0.845  14.632  0.8831 -0.3205 -1.8153
  740TIP3    H223712   3.067   0.766  14.700  0.0222 -1.0423 -1.2539
  741TIP3   OH223713   6.727   3.670   0.757  0.2260 -0.1408 -0.0038
  741TIP3    H123714   6.646   3.708   0.724 -0.2024 -1.1178 -0.1187
  741TIP3    H223715   6.776   3.645   0.678 -0.4702 -1.7998  0.0515
  742TIP3   OH223716   6.364   5.675   6.413 -0.7743 -0.2387  1.0543
  742TIP3    H123717   6.273   5.649   6.401 -0.6514 -0.1042 -0.2938
  742TIP3    H223718   6.381   5.736   6.342  0.6410 -0.9743  0.7329
  743TIP3   OH223719   5.599   4.784   1.401  0.3191 -0.5792  0.1373
  743TIP3    H123720   5.593   4.878   1.414  1.5613 -0.6243  1.2953
  743TIP3    H223721   5.596   4.748   1.490 -1.4567 -1.7456 -0.3358
  744TIP3   OH223722   0.788   4.807  15.196 -0.3719  0.0333  0.2275
  744TIP3    H123723   0.879   4.816  15.225  0.0011 -1.0604 -0.5111
  744TIP3    H223724   0.792   4.742  15.126 -2.1593 -2.8231  2.5263
  745TIP3   OH223725   4.664   4.605  14.913  0.0914 -0.3854 -0.4358
  745TIP3    H123726   4.586   4.630  14.961  0.4806 -0.2357  0.1316
  745TIP3    H223727   4.655   4.648  14.828  0.2579  0.8559  0.1531
  746TIP3   OH223728   0.761   1.278  13.410  0.3207 -0.1740  0.4092
  746TIP3    H123729   0.814   1.326  13.346 -1.0823 -1.0698 -1.5393
  746TIP3    H223730   0.792   1.188  13.404  0.4092 -0.2126  1.2834
  747TIP3   OH223731   5.752   2.210  11.504  0.2025  0.3159 -0.2349
  747TIP3    H123732   5.687   2.212  11.574 -0.5511 -3.8390 -0.5283
  747TIP3    H223733   5.721   2.275  11.440 -2.3659  0.1210  0.7061
  748TIP3   OH223734   6.309   3.007  13.408 -0.3571 -0.2107  0.1062
  748TIP3    H123735   6.231   3.016  13.464  0.3917 -0.2375  1.1821
  748TIP3    H223736   6.363   2.942  13.453 -0.1618 -0.9715 -1.1726
  749TIP3   OH223737   6.573   6.708   4.425 -0.2749  0.6488 -0.2118
  749TIP3    H123738   6.620   6.766   4.365 -1.7769  1.6991 -0.4123
  749TIP3    H223739   6.608   6.731   4.512  1.8379 -0.8161 -0.6142
  750TIP3   OH223740   2.754   1.560   4.703 -0.2141  0.3369  0.0555
  750TIP3    H123741   2.827   1.567   4.642 -0.0827  1.4088  0.3176
  750TIP3    H223742   2.676   1.566   4.648 -0.0973  1.6839  0.0023
  751TIP3   OH223743   2.633   4.709  11.494  0.1753 -0.0043 -0.5289
  751TIP3    H123744   2.613   4.802  11.496  1.5391  0.3064  0.1932
  751TIP3    H223745   2.728   4.705  11.491  0.2554 -1.3408  1.3762
  752TIP3   OH223746   3.953   1.009  12.302  0.3924 -0.7784  0.0804
  752TIP3    H123747   3.931   1.093  12.263  1.4309  0.3485  1.7893
  752TIP3    H223748   3.905   0.945  12.250  1.3344  0.6134 -2.7205
  753TIP3   OH223749   4.866   1.810  14.624 -0.1803 -0.1918  0.1135
  753TIP3    H123750   4.883   1.732  14.570  1.5782  0.6297 -0.5927
  753TIP3    H223751   4.822   1.776  14.701 -2.8947 -1.4169 -1.8017
  754TIP3   OH223752   0.056   5.270   5.598  0.0572 -0.0096 -0.6812
  754TIP3    H123753   0.079   5.294   5.508  0.9202  0.6638 -0.2887
  754TIP3    H223754   0.127   5.305   5.652  0.2361 -1.5268  0.1435
  755TIP3   OH223755   2.212   0.223  11.501 -0.0848  0.0727 -0.1724
  755TIP3    H123756   2.259   0.255  11.578  1.9376 -0.7550 -1.0024
  755TIP3    H223757   2.202   0.129  11.517 -2.0212  0.2999  0.2261
  756TIP3   OH223758   0.550   4.472   4.160  0.2569 -0.5019  0.0586
  756TIP3    H123759   0.645   4.473   4.151  0.2314  0.3898 -0.2178
  756TIP3    H223760   0.525   4.565   4.156 -0.4601 -0.5840  1.7768
  757TIP3   OH223761   4.843   5.881   1.914  0.2920 -0.0079  0.0419
  757TIP3    H123762   4.757   5.904   1.879 -0.4905 -2.5451  0.0464
  757TIP3    H223763   4.886   5.964   1.932 -1.7022  1.3287 -1.0855
  758TIP3   OH223764   1.074   6.397  12.937  0.2475 -0.1720 -0.2226
  758TIP3    H123765   1.060   6.304  12.918 -1.5376  0.3059 -1.5141
  758TIP3    H223766   1.085   6.400  13.032 -2.1625 -1.4835  0.1744
  759TIP3   OH223767   1.670   6.671   1.667  0.3837  0.3793 -0.2559
  759TIP3    H123768   1.655   6.700   1.576  2.3791  1.3181 -0.3335
  759TIP3    H223769   1.659   6.576   1.664  0.3903  0.4007 -1.4779
  760TIP3   OH223770   6.509   6.378  12.941 -0.4015 -0.2589 -0.3875
  760TIP3    H123771   6.423   6.337  12.939 -1.0531  0.9699  0.9682
  760TIP3    H223772   6.562   6.321  12.997 -0.0992 -1.3756 -1.7562
  761TIP3   OH223773   2.484   5.367   5.047 -0.1288 -0.8440  1.1611
  761TIP3    H123774   2.455   5.441   4.994 -1.5844 -0.1614  2.8258
  761TIP3    H223775   2.438   5.291   5.010  1.1204 -0.9299 -0.3398
  762TIP3   OH223776   5.194   5.767  17.035  0.0438  0.0390 -0.9733
  762TIP3    H123777   5.113   5.807  17.067 -0.2348 -0.3396 -1.1882
  762TIP3    H223778   5.220   5.708  17.106  0.4559  0.5951 -0.6542
  763TIP3   OH223779   5.860   4.449   2.945  0.1587  0.0258 -0.0914
  763TIP3    H123780   5.953   4.431   2.959 -0.0169 -1.0983 -0.2687
  763TIP3    H223781   5.845   4.532   2.991  1.0167 -0.3074  0.8368
  764TIP3   OH223782   0.118   3.287   1.022  0.2998  0.1538  0.3427
  764TIP3    H123783   0.022   3.292   1.016  0.3123  0.6277  0.4774
  764TIP3    H223784   0.136   3.196   1.045 -0.0096 -0.5004 -1.7995
  765TIP3   OH223785   5.973   3.321   2.847 -0.0336 -0.3234  0.3221
  765TIP3    H123786   6.006   3.348   2.761 -0.4009  3.4792  1.1729
  765TIP3    H223787   6.047   3.335   2.906 -1.0293  1.5027  1.2143
  766TIP3   OH223788   2.361   4.479  12.027  0.5695 -0.0134  0.0682
  766TIP3    H123789   2.288   4.502  12.085  1.5952  1.6405  0.7719
  766TIP3    H223790   2.407   4.410  12.074  0.1496 -0.2131  0.1946
  767TIP3   OH223791   0.109   4.269   3.388 -0.3962 -0.3142 -0.5461
  767TIP3    H123792   0.034   4.317   3.354 -0.7364 -0.6046 -0.2086
  767TIP3    H223793   0.095   4.178   3.360 -1.1016 -0.7332  0.9973
  768TIP3   OH223794   5.193   4.524   3.554 -0.5792 -0.1976 -0.7607
  768TIP3    H123795   5.112   4.505   3.508 -1.9095  1.7075  0.6397
  768TIP3    H223796   5.220   4.610   3.522  0.7215 -0.6552 -0.9582
  769TIP3   OH223797   4.119   4.600  11.772  0.3449 -0.3514 -0.0203
  769TIP3    H123798   4.154   4.571  11.856  0.0859  0.5832  0.4199
  769TIP3    H223799   4.180   4.667  11.742  1.1754 -1.6070 -1.2417
  770TIP3   OH223800   6.396   3.930  10.416  0.2102  0.1676 -0.6952
  770TIP3    H123801   6.405   3.990  10.342 -2.1778  0.9298 -0.4601
  770TIP3    H223802   6.349   3.981  10.483 -0.4920 -1.4684  0.1156
  771TIP3   OH223803   5.079   4.690   4.428  0.4674  0.1279  0.7340
  771TIP3    H123804   5.142   4.654   4.490  1.1643 -0.1986 -0.1444
  771TIP3    H223805   4.994   4.672   4.467  0.8637 -0.8961  1.1578
  772TIP3   OH223806   1.924   4.630  16.508  0.2335  0.8668  0.2736
  772TIP3    H123807   1.981   4.566  16.467  0.3386  1.4791 -0.5487
  772TIP3    H223808   1.949   4.628  16.601  1.1326  0.6637  0.0355
  773TIP3   OH223809   2.405   3.506   4.723  0.1269 -0.5415  0.5506
  773TIP3    H123810   2.414   3.542   4.812  1.8168  0.3783  0.0628
  773TIP3    H223811   2.337   3.560   4.682  0.6965  0.3276  0.7094
  774TIP3   OH223812   4.178   2.672   1.035 -0.5557  0.1892  0.5109
  774TIP3    H123813   4.183   2.582   1.066 -1.4419  0.2303  0.8025
  774TIP3    H223814   4.194   2.725   1.112  1.0640  0.2945  0.1287
  775TIP3   OH223815   0.254   0.726   5.287 -0.1352  0.4043 -0.3458
  775TIP3    H123816   0.301   0.799   5.246  0.7764  0.7122  1.1386
  775TIP3    H223817   0.321   0.660   5.302 -0.1295  0.8134  1.7292
  776TIP3   OH223818   1.396   2.848   3.817 -0.0727 -0.2061 -0.0144
  776TIP3    H123819   1.423   2.769   3.863  0.2775 -0.8748 -1.3167
  776TIP3    H223820   1.316   2.876   3.862  1.2308  0.2548  2.1617
  777TIP3   OH223821   1.831   0.922   1.631  0.3286  0.3654  0.1952
  777TIP3    H123822   1.780   0.842   1.630  0.2108  0.4064  1.6109
  777TIP3    H223823   1.893   0.912   1.559 -0.9647 -0.1283 -0.8949
  778TIP3   OH223824   3.164   3.618   5.385  0.0584  0.6580  0.1596
  778TIP3    H123825   3.108   3.689   5.418 -0.4239  0.8521 -1.0434
  778TIP3    H223826   3.248   3.632   5.428 -0.0221  1.9847 -0.0808
  779TIP3   OH223827   4.871   2.677   0.351 -0.2850  0.1150 -0.1029
  779TIP3    H123828   4.847   2.730   0.275  0.8207 -1.4363 -1.6001
  779TIP3    H223829   4.967   2.678   0.352 -0.2697 -0.7535  0.6346
  780TIP3   OH223830   1.914   4.497  11.667 -0.0836 -0.8405  0.1952
  780TIP3    H123831   1.857   4.421  11.684  1.8543 -1.9791  2.1100
  780TIP3    H223832   2.001   4.460  11.657  1.0186  1.1668  1.6999
  781TIP3   OH223833   5.577   1.261   3.785 -0.5770  0.0685  0.0048
  781TIP3    H123834   5.579   1.222   3.697 -0.7613 -1.3070  0.5863
  781TIP3    H223835   5.645   1.328   3.783 -0.7357  0.2118 -1.2594
  782TIP3   OH223836   4.486   5.031   3.284  0.5685  0.0604  0.3664
  782TIP3    H123837   4.391   5.032   3.280  0.6154  1.1100 -2.7691
  782TIP3    H223838   4.510   4.938   3.279 -0.2859 -0.1359 -0.1800
  783TIP3   OH223839   3.246   4.712  14.634 -0.5206 -0.5106 -0.2128
  783TIP3    H123840   3.182   4.769  14.591 -0.5452 -0.2389  0.1763
  783TIP3    H223841   3.197   4.632  14.653 -0.5664 -0.5515 -0.4990
  784TIP3   OH223842   0.524   4.542   1.261 -0.2448  1.0527  0.1509
  784TIP3    H123843   0.459   4.474   1.242 -0.7339  1.1087  1.5165
  784TIP3    H223844   0.477   4.624   1.247  0.2785  1.1265 -1.2749
  785TIP3   OH223845   3.925   4.233   4.284  0.7382 -0.0142 -0.1938
  785TIP3    H123846   3.975   4.177   4.224  1.0195 -0.6104  0.5767
  785TIP3    H223847   3.973   4.228   4.367  0.5554  1.0875 -0.0099
  786TIP3   OH223848   5.840   4.215   0.505 -0.2723 -0.3656 -0.5493
  786TIP3    H123849   5.821   4.308   0.508  0.1515 -0.2824 -0.3808
  786TIP3    H223850   5.804   4.181   0.587 -3.1232 -0.8915 -1.8903
  787TIP3   OH223851   3.583   2.824  11.990  1.1604 -0.7078  0.4695
  787TIP3    H123852   3.648   2.761  11.958 -0.9432 -2.9049  0.2308
  787TIP3    H223853   3.566   2.798  12.080  0.9581  0.1535  0.6922
  788TIP3   OH223854   6.206   0.317  12.527  0.4958  0.3696  0.1247
  788TIP3    H123855   6.198   0.270  12.610  0.5495 -1.5649 -0.9190
  788TIP3    H223856   6.293   0.357  12.530  1.6925 -2.0232 -0.0966
  789TIP3   OH223857   6.502   1.328  15.480 -0.4004 -0.0745 -0.2336
  789TIP3    H123858   6.448   1.251  15.496 -0.5634 -0.3156 -1.8557
  789TIP3    H223859   6.456   1.377  15.412  0.4124  0.7395 -0.2223
  790TIP3   OH223860   0.544   0.231   0.718 -0.1562 -0.1858 -0.1865
  790TIP3    H123861   0.540   0.151   0.665  2.8432 -0.7118  0.2059
  790TIP3    H223862   0.561   0.300   0.655 -1.0816 -0.0901 -0.3454
  791TIP3   OH223863   4.743   4.727  10.940 -0.1831 -0.3811  0.2973
  791TIP3    H123864   4.762   4.817  10.910 -2.5273  0.0308 -0.0837
  791TIP3    H223865   4.657   4.707  10.903 -0.8396 -1.8448  2.4739
  792TIP3   OH223866   0.229   2.385   3.496 -0.0940  0.0763  0.5917
  792TIP3    H123867   0.186   2.391   3.411  0.5380 -0.2759  0.2338
  792TIP3    H223868   0.299   2.451   3.492  1.2681 -1.3354  0.0141
  793TIP3   OH223869   6.261   2.607  10.413 -0.0951 -0.1777 -0.0319
  793TIP3    H123870   6.254   2.564  10.328 -1.4529 -1.6767  0.7865
  793TIP3    H223871   6.171   2.629  10.437  0.1880 -0.3506  1.2783
  794TIP3   OH223872   4.524   0.698  11.406  0.4003  0.0314 -0.0139
  794TIP3    H123873   4.569   0.747  11.337 -0.3781  0.5802 -0.1413
  794TIP3    H223874   4.519   0.758  11.480  0.0928 -0.1098  0.0836
  795TIP3   OH223875   0.684   0.335  11.354 -0.0181 -0.2697  0.2198
  795TIP3    H123876   0.728   0.311  11.272  0.9551  0.6634  0.4403
  795TIP3    H223877   0.721   0.274  11.419 -0.0181 -0.3311  0.1626
  796TIP3   OH223878   6.232   4.831  11.391 -0.9611  0.1120 -0.4276
  796TIP3    H123879   6.169   4.784  11.445 -0.8275 -0.2229 -0.5598
  796TIP3    H223880   6.260   4.905  11.445 -1.0509 -0.0526 -0.1546
  797TIP3   OH223881   2.129   2.240   5.503 -0.3607 -0.0082  0.1196
  797TIP3    H123882   2.094   2.169   5.556 -2.6466 -0.1640 -1.4720
  797TIP3    H223883   2.085   2.318   5.535 -0.8342  0.0776 -0.7243
  798TIP3   OH223884   6.074   5.092  14.282 -0.3194  0.1277  0.1545
  798TIP3    H123885   6.145   5.156  14.285  0.6421 -0.9287  1.5553
  798TIP3    H223886   6.011   5.123  14.348 -0.3495  0.1691  0.1063
  799TIP3   OH223887   2.498   0.112  11.208 -0.1652  0.1807  0.3546
  799TIP3    H123888   2.459   0.136  11.292  0.9739 -0.0818  0.9719
  799TIP3    H223889   2.460   0.174  11.146 -0.2757  1.0228  1.2316
  800TIP3   OH223890   1.485   6.240   2.499 -0.5195 -0.1224  0.2471
  800TIP3    H123891   1.567   6.278   2.531 -0.2581  0.2907 -0.8645
  800TIP3    H223892   1.498   6.231   2.405 -2.5485  2.0647 -0.3306
  801TIP3   OH223893   3.435   5.959  16.514 -0.1963  0.4883 -0.2582
  801TIP3    H123894   3.525   5.969  16.482  0.6698  0.5610  2.0284
  801TIP3    H223895   3.415   6.044  16.554 -0.6843 -0.0362  0.6265
  802TIP3   OH223896   3.287   4.516   5.637 -0.1458 -0.4337  0.2324
  802TIP3    H123897   3.358   4.512   5.573 -1.8254 -2.4534 -1.6492
  802TIP3    H223898   3.320   4.466   5.712  1.1268  0.3304  0.2082
  803TIP3   OH223899   1.770   1.141  14.798 -0.3955 -0.9404  0.3244
  803TIP3    H123900   1.812   1.059  14.773 -0.1624 -0.8339  0.3571
  803TIP3    H223901   1.680   1.133  14.767 -0.3391 -1.1558  0.2149
  804TIP3   OH223902   3.719   4.945  13.532 -0.1981 -0.2783  0.1227
  804TIP3    H123903   3.811   4.968  13.547 -1.0626  1.6911  3.1216
  804TIP3    H223904   3.672   5.028  13.539 -2.3543 -1.3879 -0.3101
  805TIP3   OH223905   4.882   1.545   5.722  0.7758 -0.0104  0.8242
  805TIP3    H123906   4.955   1.601   5.750  0.3518  0.2198  1.5133
  805TIP3    H223907   4.808   1.576   5.774 -0.1893  0.7586 -0.8961
  806TIP3   OH223908   3.691   0.341   1.091  0.1615 -0.6296  0.0905
  806TIP3    H123909   3.699   0.246   1.097  0.5256 -0.6628 -0.7639
  806TIP3    H223910   3.705   0.373   1.180  0.4907 -1.3399  0.2944
  807TIP3   OH223911   1.312   0.657  15.346  0.1603 -0.3702  0.2688
  807TIP3    H123912   1.343   0.568  15.328  0.1447 -0.5140  0.9408
  807TIP3    H223913   1.266   0.650  15.430 -2.0769 -0.2525 -0.8665
  808TIP3   OH223914   1.796   2.460  16.565  0.7207 -0.3619  0.4347
  808TIP3    H123915   1.709   2.463  16.525  0.9227  0.8732  0.0518
  808TIP3    H223916   1.806   2.546  16.608  0.9470 -1.2310  2.2170
  809TIP3   OH223917   4.998   3.058  15.934 -0.2876  0.3640 -0.0646
  809TIP3    H123918   5.022   3.108  16.012 -0.9457  0.6668 -0.0485
  809TIP3    H223919   5.018   3.116  15.861 -0.4463  0.3970 -0.0811
  810TIP3   OH223920   0.881   1.206  15.465 -0.0668  0.5073 -0.0195
  810TIP3    H123921   0.943   1.143  15.427 -1.2141 -0.1750 -0.8115
  810TIP3    H223922   0.826   1.233  15.391  0.0390  2.0300  0.4299
  811TIP3   OH223923   1.939   4.477   1.354  0.0742 -0.3861 -0.5962
  811TIP3    H123924   1.862   4.435   1.392  0.2135  0.0885  0.2578
  811TIP3    H223925   1.922   4.480   1.260 -1.7832  1.3773 -0.2636
  812TIP3   OH223926   2.268   4.129   3.426 -0.1500  0.2326 -0.5375
  812TIP3    H123927   2.292   4.143   3.335 -0.3702  0.3489 -0.5786
  812TIP3    H223928   2.176   4.156   3.431  0.1407  1.1940 -0.0673
  813TIP3   OH223929   6.461   6.727   0.693  0.5386 -0.8305 -0.9023
  813TIP3    H123930   6.521   6.780   0.746 -1.8352  3.4827 -2.0567
  813TIP3    H223931   6.427   6.661   0.753  1.9559  0.4439  1.4157
  814TIP3   OH223932   6.246   3.699  14.236  0.5082  0.0837 -0.6669
  814TIP3    H123933   6.308   3.655  14.294 -0.1222  0.2607  0.1570
  814TIP3    H223934   6.284   3.786  14.223 -0.0347  0.5442  0.6433
  815TIP3   OH223935   0.584   1.888   5.001  0.2207 -0.5733  0.1870
  815TIP3    H123936   0.596   1.801   4.962 -1.1340 -0.1487 -1.2891
  815TIP3    H223937   0.627   1.948   4.939  1.2340 -0.1775  1.2439
  816TIP3   OH223938   2.604   3.969  13.047 -0.0396  0.1980  0.2027
  816TIP3    H123939   2.664   3.897  13.027  0.5129  0.7499 -0.1634
  816TIP3    H223940   2.521   3.926  13.067  0.0887 -0.5125 -0.7280
  817TIP3   OH223941   1.967   3.718   1.373  0.3383 -0.1902 -0.0182
  817TIP3    H123942   1.909   3.766   1.314 -0.4214  0.9649  1.5983
  817TIP3    H223943   1.974   3.773   1.451  3.0219 -0.6572  0.1706
  818TIP3   OH223944   0.659   0.318  14.878  0.2027 -0.0140  0.1009
  818TIP3    H123945   0.624   0.398  14.917  0.8500 -0.4111  1.5395
  818TIP3    H223946   0.587   0.285  14.823 -0.6872  0.6482  0.8326
  819TIP3   OH223947   2.971   4.355   0.337 -0.1408  0.5937 -0.3845
  819TIP3    H123948   2.941   4.391   0.253 -0.8570  0.5514 -0.1524
  819TIP3    H223949   2.980   4.261   0.321 -1.4441  0.3984 -0.0983
  820TIP3   OH223950   3.634   1.316   6.061 -0.1325 -0.2940  0.5855
  820TIP3    H123951   3.569   1.279   6.120  0.9694 -1.4886  1.1162
  820TIP3    H223952   3.678   1.383   6.113 -0.3189 -0.1422  0.5458
  821TIP3   OH223953   6.742   0.680   0.185 -0.0042  0.4941  0.6693
  821TIP3    H123954   6.798   0.680   0.263  1.6137  0.8169 -0.4449
  821TIP3    H223955   6.743   0.590   0.154  1.6342  0.8842 -0.5107
  822TIP3   OH223956   3.992   0.311  13.551 -0.9527  0.5411 -0.0518
  822TIP3    H123957   3.957   0.223  13.565 -0.8709  0.8218  2.5407
  822TIP3    H223958   4.086   0.298  13.542 -0.9682  0.3308  0.0742
  823TIP3   OH223959   1.725   5.688   3.466  0.3408 -0.0420 -0.0842
  823TIP3    H123960   1.711   5.767   3.414  3.0718  0.6740  0.0919
  823TIP3    H223961   1.773   5.719   3.543  2.8569 -2.0085 -0.7355
  824TIP3   OH223962   1.537   0.228   3.030 -0.1570 -0.1805 -0.6056
  824TIP3    H123963   1.545   0.247   2.936 -1.8373  4.1835 -0.1062
  824TIP3    H223964   1.495   0.142   3.033  1.9047 -1.4811 -3.7277
  825TIP3   OH223965   5.892   2.137  13.680 -0.3998 -0.2680  0.2360
  825TIP3    H123966   5.842   2.061  13.709 -0.1336 -0.0175  1.4352
  825TIP3    H223967   5.888   2.134  13.585 -0.1907 -1.9099  0.2522
  826TIP3   OH223968   0.365   4.891  13.825  0.7931 -0.2748 -0.2204
  826TIP3    H123969   0.372   4.905  13.919  0.6781  1.1959 -0.4044
  826TIP3    H223970   0.448   4.925  13.790  1.2371 -1.6571 -0.5880
  827TIP3   OH223971   2.557   2.471  13.951 -0.1507  0.1591  0.4108
  827TIP3    H123972   2.653   2.475  13.954 -0.1570  0.3081  2.8856
  827TIP3    H223973   2.530   2.559  13.928  0.3217  0.6205  1.5295
  828TIP3   OH223974   6.795   5.926   3.425 -0.0669  0.4589 -0.6250
  828TIP3    H123975   6.820   5.961   3.511  0.8728  0.5879 -0.9408
  828TIP3    H223976   6.785   5.832   3.440 -2.1377  0.7233  0.1200
  829TIP3   OH223977   0.506   4.666   1.607 -0.1835 -0.1268  0.0888
  829TIP3    H123978   0.470   4.684   1.694  1.3183 -0.0212  0.7298
  829TIP3    H223979   0.564   4.591   1.621 -1.3530 -1.3332 -1.2257
  830TIP3   OH223980   3.206   4.159  12.786  0.2416  1.0274  0.1393
  830TIP3    H123981   3.253   4.131  12.865  1.2877  1.4785 -0.2948
  830TIP3    H223982   3.199   4.254  12.796 -0.2221  1.0072  0.0006
  831TIP3   OH223983   0.767   1.004   2.215  0.2140  0.5328  0.4024
  831TIP3    H123984   0.713   1.072   2.256 -0.9795 -0.5531  0.6910
  831TIP3    H223985   0.777   1.034   2.124 -1.8962  0.2017  0.0192
  832TIP3   OH223986   1.291   0.416  13.327  0.7291  0.3045  0.4486
  832TIP3    H123987   1.355   0.387  13.392  0.1687 -2.0016  0.0648
  832TIP3    H223988   1.339   0.420  13.245  0.3943 -1.5795  0.1315
  833TIP3   OH223989   5.769   0.087  14.492 -0.7334 -0.2252  0.5020
  833TIP3    H123990   5.747   0.097  14.584  1.1561 -0.7009  1.0536
  833TIP3    H223991   5.827   0.161  14.473 -2.0057  0.5331 -0.6635
  834TIP3   OH223992   2.808   4.684   4.987 -0.1288 -0.3108  0.1182
  834TIP3    H123993   2.902   4.669   4.988 -0.0626  0.1263  1.1904
  834TIP3    H223994   2.798   4.779   4.997 -0.6405  0.0171 -2.5175
  835TIP3   OH223995   4.885   2.876   4.088  0.1540 -0.1050  0.2786
  835TIP3    H123996   4.902   2.969   4.102  0.4265 -0.1188  0.0541
  835TIP3    H223997   4.855   2.844   4.173 -1.5800  0.5391 -0.0533
  836TIP3   OH223998   5.283   1.230   3.805 -0.3139 -0.4544  0.1269
  836TIP3    H123999   5.283   1.320   3.836 -1.6879 -0.3581 -0.0799
  836TIP3    H224000   5.375   1.207   3.798  0.0564  0.8735  0.3350
  837TIP3   OH224001   1.383   6.290   1.921 -0.2350 -0.0938 -0.4765
  837TIP3    H124002   1.410   6.311   2.010  1.6137 -0.9622 -0.7806
  837TIP3    H224003   1.355   6.373   1.884  0.9038  0.6535  0.2900
  838TIP3   OH224004   1.793   4.480   4.801 -0.0748 -0.2736  0.3356
  838TIP3    H124005   1.779   4.572   4.824 -0.5973  0.5408 -2.8082
  838TIP3    H224006   1.705   4.447   4.782  0.3780 -0.4680 -1.5919
  839TIP3   OH224007   6.411   2.565  16.412 -0.7819  0.2964 -0.0316
  839TIP3    H124008   6.319   2.556  16.386 -0.3560 -0.5061 -1.3247
  839TIP3    H224009   6.408   2.625  16.486 -2.3253  0.5297 -0.2360
  840TIP3   OH224010   1.299   5.709  13.969  0.3206  0.0147  0.5527
  840TIP3    H124011   1.252   5.666  13.898  1.5237 -3.2704  1.5471
  840TIP3    H224012   1.373   5.753  13.927  0.3663 -0.8923 -0.3393
  841TIP3   OH224013   1.137   2.637   1.897  0.0855 -0.0589  0.2095
  841TIP3    H124014   1.183   2.574   1.953 -0.6515 -0.0226  0.8767
  841TIP3    H224015   1.197   2.652   1.824  0.8217 -0.5543  0.6930
  842TIP3   OH224016   5.693   0.701   5.197 -0.0838  0.4549 -0.2528
  842TIP3    H124017   5.706   0.754   5.276  0.5700  0.0571 -0.0902
  842TIP3    H224018   5.771   0.647   5.191  0.3364  1.1630 -1.7053
  843TIP3   OH224019   0.913   0.092  12.571 -0.9574  0.0314 -0.0611
  843TIP3    H124020   0.928   0.144  12.493  1.3101 -1.3603 -0.6572
  843TIP3    H224021   0.820   0.104  12.591 -1.5923  0.4763 -2.9110
  844TIP3   OH224022   5.529   1.384  15.486  0.2161  0.0154  0.9259
  844TIP3    H124023   5.472   1.453  15.517  0.8916  1.5752 -1.1005
  844TIP3    H224024   5.501   1.306  15.534 -3.1711  0.8141  0.4994
  845TIP3   OH224025   4.903   4.690  17.040 -0.3726  0.2128  0.5355
  845TIP3    H124026   4.818   4.648  17.023  0.5312 -1.4710 -0.1636
  845TIP3    H224027   4.916   4.748  16.965 -0.0673 -0.9997 -0.3820
  846TIP3   OH224028   1.684   3.048  14.165 -0.2954 -0.0397  0.2056
  846TIP3    H124029   1.687   3.013  14.254  0.5174  0.4175  0.3676
  846TIP3    H224030   1.677   3.143  14.177  1.6378  0.1920 -0.1812
  847TIP3   OH224031   5.750   6.140  10.688 -0.2679  0.4671  0.4305
  847TIP3    H124032   5.655   6.127  10.689 -0.2387  0.1720 -0.1000
  847TIP3    H224033   5.782   6.090  10.763 -0.2996 -1.4874 -0.7783
  848TIP3   OH224034   1.268   3.633  16.093  0.1266  0.1306  0.5948
  848TIP3    H124035   1.343   3.623  16.034 -1.0910  1.3834 -1.3127
  848TIP3    H224036   1.290   3.709  16.147  0.2594  0.5286  0.0054
  849TIP3   OH224037   3.260   0.827   3.250 -0.3187 -0.0741  0.0114
  849TIP3    H124038   3.237   0.745   3.293 -0.6047 -0.1147 -0.2168
  849TIP3    H224039   3.254   0.807   3.157  1.2816 -0.2793 -0.0887
  850TIP3   OH224040   3.617   2.807  13.833 -0.2811  0.0029  0.5685
  850TIP3    H124041   3.675   2.876  13.801 -1.9230  1.9759  1.6529
  850TIP3    H224042   3.672   2.728  13.833  1.4976  1.1375 -1.2365
  851TIP3   OH224043   0.563   6.563  13.579  0.2753 -0.1112  0.0056
  851TIP3    H124044   0.558   6.485  13.635  1.7390  0.0365  0.3796
  851TIP3    H224045   0.640   6.548  13.524 -0.4301  0.3170 -1.1218
  852TIP3   OH224046   1.981   4.970  15.096  0.3722  0.0561  0.3154
  852TIP3    H124047   2.064   4.941  15.057  0.7201 -0.3764  1.3419
  852TIP3    H224048   1.958   5.050  15.048  1.4496  0.2497  0.0980
  853TIP3   OH224049   5.195   1.280   0.378 -0.2456 -0.3049 -0.8029
  853TIP3    H124050   5.128   1.347   0.391 -0.4110  0.0336 -3.0959
  853TIP3    H224051   5.192   1.228   0.458 -1.3023  1.3730  0.3115
  854TIP3   OH224052   5.348   5.842   0.883 -0.7406 -0.2798  0.0342
  854TIP3    H124053   5.323   5.911   0.821  0.6645  1.4384  1.2698
  854TIP3    H224054   5.277   5.778   0.877 -1.5739  0.7445 -1.9562
  855TIP3   OH224055   0.811   5.691  15.417 -0.3999 -0.1880  0.3209
  855TIP3    H124056   0.756   5.636  15.360 -0.3050  0.5415 -0.4879
  855TIP3    H224057   0.749   5.753  15.456 -0.3183 -0.1066  0.3172
  856TIP3   OH224058   5.302   1.686  11.462 -0.2125  0.5635  0.3912
  856TIP3    H124059   5.369   1.629  11.427  0.0907  1.6433 -0.8846
  856TIP3    H224060   5.232   1.627  11.490  0.3488 -0.4564 -0.2886
  857TIP3   OH224061   1.036   6.603  14.947  0.6208 -0.1726  0.1191
  857TIP3    H124062   0.969   6.557  14.997  0.9987  0.4197  1.2094
  857TIP3    H224063   1.079   6.660  15.011  1.3332  0.3818 -0.8183
  858TIP3   OH224064   5.191   1.360   5.918 -0.0074 -0.5336  0.2800
  858TIP3    H124065   5.250   1.285   5.915  0.3906 -0.2890  1.4907
  858TIP3    H224066   5.223   1.413   5.991 -1.2788 -0.0177  0.4849
  859TIP3   OH224067   6.748   0.365   2.013  0.1804  0.4999  0.2048
  859TIP3    H124068   6.768   0.293   2.072 -1.6145 -0.9775 -0.8646
  859TIP3    H224069   6.742   0.325   1.926  1.9932  2.4616 -0.9388
  860TIP3   OH224070   2.123   6.779  11.891 -0.3319  0.5708 -0.2572
  860TIP3    H124071   2.207   6.826  11.890  0.4017 -0.6682  0.5021
  860TIP3    H224072   2.057   6.847  11.901  0.7952  1.3607  2.8259
  861TIP3   OH224073   4.211   0.915   3.815 -0.2136  0.1495 -0.6187
  861TIP3    H124074   4.291   0.923   3.865  0.3566 -0.9629 -1.3031
  861TIP3    H224075   4.164   0.842   3.856  0.0191 -0.4302 -1.3610
  862TIP3   OH224076   2.359   1.941   6.205  0.0445 -0.2125  0.7193
  862TIP3    H124077   2.344   1.905   6.118  2.1950  1.0816 -0.2841
  862TIP3    H224078   2.351   1.866   6.264  0.4225 -1.5059 -0.8050
  863TIP3   OH224079   1.560   3.121   1.282  0.3511 -0.0357  0.1954
  863TIP3    H124080   1.630   3.111   1.218  0.8718  1.7846  0.4435
  863TIP3    H224081   1.479   3.118   1.230  0.6960 -0.2012 -0.3380
  864TIP3   OH224082   6.055   6.791   5.889  0.3411  0.0875  0.1940
  864TIP3    H124083   5.970   6.765   5.853 -0.1020 -0.9901  1.9158
  864TIP3    H224084   6.036   6.869   5.942  0.8617  1.2184 -1.2079
  865TIP3   OH224085   5.834   5.779  14.463  0.2198  0.0830  0.3216
  865TIP3    H124086   5.862   5.864  14.431  0.3035  0.9679  2.5684
  865TIP3    H224087   5.746   5.767  14.427  0.3173  0.9879 -0.2350
  866TIP3   OH224088   5.228   3.440   0.846 -0.0510 -0.1514  0.1428
  866TIP3    H124089   5.248   3.347   0.856 -0.1754 -0.4883 -2.1176
  866TIP3    H224090   5.148   3.453   0.897  0.3894 -1.0821  1.1139
  867TIP3   OH224091   1.574   2.316   5.219 -0.3123 -0.5312 -0.2554
  867TIP3    H124092   1.592   2.345   5.308 -0.4659 -0.0974 -0.3645
  867TIP3    H224093   1.570   2.220   5.225 -0.3581 -0.5016  0.2082
  868TIP3   OH224094   5.227   5.926  12.728  0.0465 -0.7518 -0.4398
  868TIP3    H124095   5.170   5.984  12.678 -0.1061 -0.7701 -0.2882
  868TIP3    H224096   5.213   5.951  12.819  2.2955  1.1259 -0.4982
  869TIP3   OH224097   3.789   4.607  13.836 -0.4515  0.0203  0.3138
  869TIP3    H124098   3.789   4.516  13.809  0.4060  0.1861 -0.2677
  869TIP3    H224099   3.705   4.619  13.881 -0.2407 -1.2419  1.0732
  870TIP3   OH224100   4.278   2.680   5.261 -0.5941 -0.1167  0.1559
  870TIP3    H124101   4.195   2.653   5.301 -1.5726  0.3675 -1.4836
  870TIP3    H224102   4.293   2.768   5.295  0.9530 -1.3300  2.9631
  871TIP3   OH224103   4.358   0.515   4.318 -0.0138  0.4042 -0.1967
  871TIP3    H124104   4.408   0.437   4.340 -0.5229  0.2431  0.4227
  871TIP3    H224105   4.422   0.585   4.313  0.6627 -0.2782 -2.1081
  872TIP3   OH224106   2.389   3.152  13.776 -0.2437 -0.1219 -0.0742
  872TIP3    H124107   2.478   3.130  13.749 -0.1761  1.0094 -0.8270
  872TIP3    H224108   2.398   3.233  13.827 -0.5378 -1.4797  2.2900
  873TIP3   OH224109   5.062   4.460  12.835 -0.6297 -0.3775  0.4816
  873TIP3    H124110   5.024   4.414  12.910  0.5318  0.0539  1.3580
  873TIP3    H224111   5.091   4.544  12.871 -1.6199  0.5749 -0.8279
  874TIP3   OH224112   2.916   4.734  13.998  0.4790 -0.2859 -0.5309
  874TIP3    H124113   2.830   4.715  13.959  1.0688 -2.4612 -0.9260
  874TIP3    H224114   2.917   4.829  14.008 -2.4607 -0.2632  0.6468
  875TIP3   OH224115   6.416   4.403   0.259 -0.0235  0.6934  0.0602
  875TIP3    H124116   6.409   4.498   0.249 -0.7406  0.8093  1.3515
  875TIP3    H224117   6.369   4.385   0.341  0.0495 -0.7803 -0.2017
  876TIP3   OH224118   6.464   6.246  11.836  0.1010  0.4163 -0.1413
  876TIP3    H124119   6.547   6.217  11.800 -0.0107 -0.1779  0.0638
  876TIP3    H224120   6.435   6.317  11.778  1.0370  1.0395  0.1420
  877TIP3   OH224121   0.931   4.223  12.085  0.0447 -0.0350  0.3318
  877TIP3    H124122   0.911   4.135  12.117  3.7394 -0.6882  1.3924
  877TIP3    H224123   0.995   4.209  12.015 -0.4282  1.7784 -0.5242
  878TIP3   OH224124   1.426   6.265  10.660 -0.0335 -0.0978  0.2931
  878TIP3    H124125   1.428   6.220  10.744  3.3334  0.0217  0.3952
  878TIP3    H224126   1.378   6.205  10.602  0.0352 -1.4801  1.6063
  879TIP3   OH224127   3.484   0.302  16.964  0.2181  0.1079 -0.8319
  879TIP3    H124128   3.486   0.290  16.870  1.6882 -0.1396 -0.7928
  879TIP3    H224129   3.576   0.293  16.992 -0.1810  0.1879  0.6099
  880TIP3   OH224130   1.266   1.424   1.083 -0.7142 -0.0754  0.1316
  880TIP3    H124131   1.194   1.439   1.022  0.8732 -2.0357 -2.4102
  880TIP3    H224132   1.328   1.494   1.065 -0.3359 -0.5415 -0.4511
  881TIP3   OH224133   1.285   5.862  12.911 -0.2425 -0.2787  0.1459
  881TIP3    H124134   1.361   5.855  12.853 -0.8055  2.3747 -1.0375
  881TIP3    H224135   1.211   5.835  12.857 -0.7882  2.3318 -0.5709
  882TIP3   OH224136   3.356   4.646  12.312  0.3026 -0.4091  0.5551
  882TIP3    H124137   3.310   4.646  12.396 -0.4113 -0.3315  0.1737
  882TIP3    H224138   3.287   4.661  12.248  1.1992  2.8930  0.1594
  883TIP3   OH224139   5.433   4.064   3.160  0.2609 -0.2836  0.3850
  883TIP3    H124140   5.412   3.997   3.225  0.7842 -0.0268  0.8241
  883TIP3    H224141   5.375   4.045   3.087 -1.8636  0.6663  1.7159
  884TIP3   OH224142   4.545   2.520  16.142  0.0401  0.1223  0.0287
  884TIP3    H124143   4.598   2.528  16.063 -0.9127 -1.0145 -0.7577
  884TIP3    H224144   4.484   2.449  16.123 -1.0453  0.6641  1.3200
  885TIP3   OH224145   0.373   5.248  11.121 -0.5303  0.0279 -0.2499
  885TIP3    H124146   0.390   5.342  11.134 -0.8225  0.0662 -0.1382
  885TIP3    H224147   0.355   5.240  11.027 -2.4270  0.3987  0.0445
  886TIP3   OH224148   5.146   1.383  14.365  0.0269  0.1861 -0.0451
  886TIP3    H124149   5.136   1.288  14.362  0.4126  0.1094  0.7458
  886TIP3    H224150   5.110   1.414  14.282  2.3637 -0.8739 -1.5501
  887TIP3   OH224151   3.771   2.518   5.418 -0.1227  0.3918 -0.9669
  887TIP3    H124152   3.755   2.538   5.510  0.8577 -0.7101 -0.5316
  887TIP3    H224153   3.837   2.583   5.391  0.0870  0.2980 -0.6916
  888TIP3   OH224154   6.435   1.724   4.329  0.1405  0.0345  0.5031
  888TIP3    H124155   6.496   1.751   4.397 -0.8039  0.7466  1.0921
  888TIP3    H224156   6.424   1.630   4.342  1.4855 -0.1987  0.0671
  889TIP3   OH224157   0.854   4.916   4.743  0.0883 -0.0992 -0.3744
  889TIP3    H124158   0.823   4.843   4.689 -0.1959 -0.9495  0.8962
  889TIP3    H224159   0.786   4.927   4.810  0.0530  1.4428 -0.6256
  890TIP3   OH224160   0.724   3.223   3.629  0.4166  0.6132 -0.3925
  890TIP3    H124161   0.775   3.299   3.601 -0.3465  1.4114  0.3264
  890TIP3    H224162   0.717   3.232   3.724 -0.0608 -0.1133 -0.3497
  891TIP3   OH224163   1.035   0.253  15.867 -0.2290  0.4337  0.2058
  891TIP3    H124164   1.016   0.166  15.833  0.0935  0.2514  0.4823
  891TIP3    H224165   0.949   0.296  15.873 -0.3042  0.4102 -0.6555
  892TIP3   OH224166   4.120   6.852   2.081  0.0171  0.5882 -0.1657
  892TIP3    H124167   4.027   6.843   2.062 -0.0220  1.4294 -0.3972
  892TIP3    H224168   4.136   6.791   2.153 -0.2230 -1.2434 -1.5827
  893TIP3   OH224169   5.731   1.715  14.624  0.5207  0.1605 -0.1527
  893TIP3    H124170   5.819   1.691  14.653  0.1494 -1.2544 -0.1385
  893TIP3    H224171   5.712   1.654  14.553  0.1415  1.4770 -1.2166
  894TIP3   OH224172   6.091   1.886   5.749  0.1530  0.6652 -0.3009
  894TIP3    H124173   6.100   1.800   5.788  1.3984  0.4200 -1.0607
  894TIP3    H224174   6.050   1.869   5.664  0.0087  0.8627 -0.2699
  895TIP3   OH224175   4.484   5.689   3.572 -0.4659 -0.2855 -0.6480
  895TIP3    H124176   4.545   5.756   3.542 -0.5787  0.0528 -0.1430
  895TIP3    H224177   4.488   5.694   3.668 -2.1320  0.5304 -0.5824
  896TIP3   OH224178   5.303   6.731   5.427 -0.3473  0.6032  0.0864
  896TIP3    H124179   5.244   6.716   5.352 -0.1555 -0.0210  0.0569
  896TIP3    H224180   5.383   6.685   5.404  0.5918  2.3782 -0.3782
  897TIP3   OH224181   4.397   3.955  13.974 -0.2538 -0.8210  0.0805
  897TIP3    H124182   4.414   3.924  13.885 -1.5388 -0.4743 -0.3074
  897TIP3    H224183   4.317   3.910  14.001 -1.4519  1.1207 -0.0182
  898TIP3   OH224184   6.369   0.660   4.939  0.0756  0.3656 -0.0445
  898TIP3    H124185   6.363   0.713   5.018  0.7543  0.5923 -0.1393
  898TIP3    H224186   6.318   0.708   4.874 -1.3841 -0.3520  0.5209
  899TIP3   OH224187   2.358   1.672   0.890  0.5663  0.2567  0.0237
  899TIP3    H124188   2.321   1.609   0.953  2.1266  1.8573  2.7519
  899TIP3    H224189   2.327   1.641   0.805 -2.1757 -1.7523  1.5586
  900TIP3   OH224190   4.544   4.349   0.321  0.4372  0.1180 -0.3145
  900TIP3    H124191   4.458   4.387   0.338  1.1352  1.4642  0.3841
  900TIP3    H224192   4.605   4.423   0.328  1.5490 -0.5710 -1.9440
  901TIP3   OH224193   3.261   0.291   0.016  0.0651  0.5832 -0.0203
  901TIP3    H124194   3.217   0.221  -0.031 -1.2183  1.2549  0.1346
  901TIP3    H224195   3.313   0.337  -0.051 -0.7553  0.7691 -0.5378
  902TIP3   OH224196   5.327   0.665  13.833  0.8982  0.1028  0.1891
  902TIP3    H124197   5.252   0.610  13.856  0.1692 -0.6356 -3.3409
  902TIP3    H224198   5.403   0.617  13.864  0.0964 -1.1553  0.2723
  903TIP3   OH224199   6.763   0.382   1.191 -0.4108  0.6379  0.4335
  903TIP3    H124200   6.737   0.358   1.280 -0.7371  2.3849  0.8419
  903TIP3    H224201   6.844   0.432   1.203  1.5206 -1.9856 -0.5661
  904TIP3   OH224202   1.439   0.701  16.642  0.0690 -0.3365 -0.3748
  904TIP3    H124203   1.443   0.771  16.708  0.2884 -1.2240  0.5853
  904TIP3    H224204   1.396   0.741  16.567  0.5187  0.9344  0.0178
  905TIP3   OH224205   5.336   3.999   0.383  0.4763 -0.6784 -0.3771
  905TIP3    H124206   5.306   4.050   0.458  0.2567 -1.8202  0.3481
  905TIP3    H224207   5.332   3.908   0.413  2.8052 -1.0194 -0.9288
  906TIP3   OH224208   6.567   3.275  11.677 -0.1030  0.0516 -0.0912
  906TIP3    H124209   6.624   3.352  11.683 -1.0749  0.7472  0.6222
  906TIP3    H224210   6.604   3.222  11.607  0.8825  0.9291 -0.2456
  907TIP3   OH224211   6.510   3.924  11.164  0.9913 -0.2805 -0.0691
  907TIP3    H124212   6.465   3.843  11.138 -0.9932  0.5320  0.6426
  907TIP3    H224213   6.516   3.975  11.084 -1.6497  0.6063  0.1928
  908TIP3   OH224214   6.454   0.931  12.281 -0.1406  0.3059 -0.5989
  908TIP3    H124215   6.370   0.886  12.277 -0.7123  1.3016 -0.0149
  908TIP3    H224216   6.490   0.909  12.367  0.0597  0.1272 -0.7268
  909TIP3   OH224217   3.367   5.585   1.244 -0.4802 -0.4209 -0.2991
  909TIP3    H124218   3.365   5.513   1.181 -0.8911  0.6670 -1.5905
  909TIP3    H224219   3.317   5.655   1.202 -0.0657  0.6366  0.8875
  910TIP3   OH224220   5.672   2.268   6.531  0.2599  0.6150  0.3151
  910TIP3    H124221   5.655   2.323   6.454 -2.1700  0.6892  0.8301
  910TIP3    H224222   5.605   2.295   6.594  0.2571 -1.5643  1.3107
  911TIP3   OH224223   1.570   0.240   1.571 -0.0871  0.0644 -1.0467
  911TIP3    H124224   1.581   0.333   1.553 -0.4936  0.1607 -0.8066
  911TIP3    H224225   1.647   0.215   1.622 -0.4598  0.4953 -0.2568
  912TIP3   OH224226   6.397   1.351   0.779 -0.1376  0.1864  0.1975
  912TIP3    H124227   6.329   1.304   0.731  1.5401 -1.2227 -0.9228
  912TIP3    H224228   6.442   1.283   0.830 -0.6063  1.3496  2.2708
  913TIP3   OH224229   4.498   4.072  16.564 -0.6736 -0.1784 -0.0473
  913TIP3    H124230   4.584   4.035  16.586 -0.0696  0.8321 -0.6477
  913TIP3    H224231   4.438   4.032  16.627  0.1448 -1.2855  0.0623
  914TIP3   OH224232   0.635   2.460   1.785 -0.2990 -0.0104 -0.3523
  914TIP3    H124233   0.720   2.438   1.747 -0.9032 -1.3933 -0.9548
  914TIP3    H224234   0.618   2.550   1.756 -0.3741 -0.7336 -2.7314
  915TIP3   OH224235   4.464   0.776   6.619 -0.4242  0.0824 -0.3563
  915TIP3    H124236   4.549   0.782   6.661 -0.5053  0.5690 -0.2478
  915TIP3    H224237   4.445   0.683   6.615 -0.8858  0.0305  1.6625
  916TIP3   OH224238   6.611   3.071   5.924 -0.3514  0.2887 -0.2360
  916TIP3    H124239   6.643   3.042   5.838 -1.1109  1.7718 -1.0594
  916TIP3    H224240   6.571   3.156   5.907  0.1548  0.9628  1.7448
  917TIP3   OH224241   2.134   4.833  15.604  0.2724  0.5218 -0.8548
  917TIP3    H124242   2.157   4.756  15.656  0.9659  0.1286 -1.7276
  917TIP3    H224243   2.073   4.882  15.660 -1.6874 -1.5748 -0.9982
  918TIP3   OH224244   2.640   5.880   0.720  0.4538 -0.4082  0.1569
  918TIP3    H124245   2.637   5.825   0.642  1.8002  0.8392 -0.8298
  918TIP3    H224246   2.701   5.836   0.779  1.6605  0.0672 -0.6968
  919TIP3   OH224247   2.697   4.888  15.998 -0.3348 -0.2127  0.3311
  919TIP3    H124248   2.618   4.836  15.982 -1.9171  1.9124  0.7451
  919TIP3    H224249   2.742   4.890  15.914 -0.9033 -1.1679 -0.0084
  920TIP3   OH224250   0.824   1.054   3.081  0.4642 -0.0132 -0.1848
  920TIP3    H124251   0.847   1.018   3.167 -1.0875 -0.7799 -0.0575
  920TIP3    H224252   0.844   0.985   3.019 -1.4885 -0.7779 -0.0523
  921TIP3   OH224253   6.066   0.529  15.655 -0.1022  0.1425 -0.3036
  921TIP3    H124254   6.150   0.492  15.683 -0.3439 -1.3553 -1.4557
  921TIP3    H224255   6.005   0.504  15.724  0.6540  2.6766  1.4076
  922TIP3   OH224256   1.746   3.436  15.576  0.1395  0.1040  0.9900
  922TIP3    H124257   1.734   3.528  15.549 -2.3714 -1.1452 -3.0334
  922TIP3    H224258   1.823   3.407  15.527 -2.6169 -1.3309 -3.0170
  923TIP3   OH224259   4.478   3.796  14.491  0.5951 -0.2389 -0.0917
  923TIP3    H124260   4.529   3.847  14.553  1.3481  0.5530 -1.3136
  923TIP3    H224261   4.428   3.735  14.545 -0.1204  1.5795  1.3948
  924TIP3   OH224262   0.224   3.675  13.740 -0.1239  0.6065  0.2152
  924TIP3    H124263   0.271   3.633  13.812 -0.5277 -0.3270 -0.0433
  924TIP3    H224264   0.279   3.660  13.664  1.0250  2.8523  0.5275
  925TIP3   OH224265   0.676   6.604   5.264 -0.2366 -0.9361  0.4320
  925TIP3    H124266   0.740   6.580   5.197 -0.3715  0.2909 -0.1687
  925TIP3    H224267   0.710   6.685   5.303 -1.7465  0.1977 -0.4465
  926TIP3   OH224268   2.112   1.639   5.322 -0.2427  0.1581 -0.1394
  926TIP3    H124269   2.050   1.673   5.259 -0.0209  3.2789  1.1100
  926TIP3    H224270   2.083   1.550   5.341 -1.1491 -0.3531 -3.4254
  927TIP3   OH224271   4.002   0.450   6.500  0.4172  0.2085  0.0985
  927TIP3    H124272   3.925   0.494   6.464 -0.3562  0.1564  1.6145
  927TIP3    H224273   4.058   0.521   6.532  0.7002  0.2157 -0.3998
  928TIP3   OH224274   6.617   1.159   5.415 -0.0949  0.6162  0.0489
  928TIP3    H124275   6.606   1.065   5.402  0.5305  0.4262  0.7896
  928TIP3    H224276   6.667   1.189   5.338 -0.5530  0.4014 -0.3325
  929TIP3   OH224277   4.366   2.537  12.748  0.1742 -0.1271 -0.1031
  929TIP3    H124278   4.371   2.448  12.786  0.6072  0.4058  1.1644
  929TIP3    H224279   4.427   2.535  12.675  0.8655 -0.6364  0.4657
  930TIP3   OH224280   1.863   5.969   5.583  0.0873  0.4285  0.7186
  930TIP3    H124281   1.915   5.915   5.525  1.4283  1.7302  0.6485
  930TIP3    H224282   1.903   5.956   5.670 -0.7963 -0.1510  1.0526
  931TIP3   OH224283   5.605   1.418  13.598  0.3111  0.2085  0.0403
  931TIP3    H124284   5.590   1.375  13.682 -0.3492  0.2814 -0.0365
  931TIP3    H224285   5.690   1.460  13.608 -0.1922  1.0328  1.0185
  932TIP3   OH224286   1.835   2.146  15.901  0.2878  0.4074 -0.0704
  932TIP3    H124287   1.897   2.217  15.883  1.9351 -0.9032  0.1480
  932TIP3    H224288   1.857   2.117  15.989 -2.5091  1.6610  1.1495
  933TIP3   OH224289   1.621   5.836  12.948 -0.3405 -0.1574 -0.4601
  933TIP3    H124290   1.681   5.883  12.891 -0.2405  1.6914  1.0817
  933TIP3    H224291   1.564   5.788  12.888  0.0917  1.2735 -2.0948
  934TIP3   OH224292   0.199   5.842  12.768  0.5376 -0.4014 -0.0584
  934TIP3    H124293   0.231   5.774  12.711  0.8682 -0.0981 -0.2362
  934TIP3    H224294   0.237   5.923  12.734  1.7494 -0.3543  1.3090
  935TIP3   OH224295   4.654   3.490  16.892 -0.2367  1.1001 -0.0831
  935TIP3    H124296   4.653   3.507  16.987  1.0971 -3.9638  1.1288
  935TIP3    H224297   4.578   3.435  16.876  0.5761  0.3197 -1.5138
  936TIP3   OH224298   3.751   1.234  16.897 -0.0056  0.2483 -0.1527
  936TIP3    H124299   3.786   1.320  16.920  0.9165 -0.1563 -0.0240
  936TIP3    H224300   3.809   1.172  16.941 -1.0593 -0.4349  0.3066
  937TIP3   OH224301   5.931   5.032   4.284 -0.1800  1.0384  0.0150
  937TIP3    H124302   6.024   5.040   4.262  0.0179  1.7166  1.0154
  937TIP3    H224303   5.922   5.081   4.365 -1.0249 -0.6719  1.0061
  938TIP3   OH224304   0.201   2.238   0.127  0.8574  0.0691  0.1591
  938TIP3    H124305   0.267   2.296   0.087  1.3753 -1.3600 -1.1842
  938TIP3    H224306   0.151   2.205   0.052 -0.5485  0.1105  1.0593
  939TIP3   OH224307   0.025   0.723  13.538 -0.6186 -0.3137 -0.3184
  939TIP3    H124308   0.005   0.789  13.604 -1.3978  0.9417 -1.7338
  939TIP3    H224309   0.021   0.639  13.585 -2.1232  0.4414  1.0034
  940TIP3   OH224310   1.431   4.423  11.722 -0.2714 -0.1514 -0.8980
  940TIP3    H124311   1.345   4.449  11.690 -0.9550 -0.7693  0.3652
  940TIP3    H224312   1.426   4.434  11.817  0.9139 -0.5832 -0.7638
  941TIP3   OH224313   2.074   2.077   6.049 -0.6396 -0.8301 -0.3182
  941TIP3    H124314   2.012   2.020   6.004 -0.3688 -1.5356  0.1902
  941TIP3    H224315   2.097   2.143   5.984 -3.0614  0.3716 -0.0769
  942TIP3   OH224316   4.667   5.711  15.160  0.0990  0.7021 -0.2194
  942TIP3    H124317   4.649   5.800  15.190  0.2963  0.2857  1.2481
  942TIP3    H224318   4.607   5.697  15.087 -0.9601  1.5454  0.4546
  943TIP3   OH224319   6.345   6.325  16.145 -0.4676  0.1059  0.5083
  943TIP3    H124320   6.399   6.398  16.175  0.5213 -0.9317  1.3770
  943TIP3    H224321   6.357   6.257  16.212 -3.0456 -0.1156  0.8536
  944TIP3   OH224322   0.765   3.152   2.402  0.9638 -0.3950 -0.4985
  944TIP3    H124323   0.831   3.148   2.332  1.0507  0.2935 -0.4602
  944TIP3    H224324   0.685   3.117   2.362  0.8313  0.6276 -1.1641
  945TIP3   OH224325   2.262   2.508   1.560 -0.5021 -0.3682 -0.4366
  945TIP3    H124326   2.175   2.478   1.585 -0.4839 -2.5087 -2.6352
  945TIP3    H224327   2.306   2.523   1.644 -1.3672 -4.2091  0.9294
  946TIP3   OH224328   1.969   6.615  12.624  0.8864  0.4421  0.0006
  946TIP3    H124329   2.034   6.683  12.635  2.3807 -0.9457  0.1403
  946TIP3    H224330   1.932   6.602  12.711 -0.1554  1.7331 -0.2150
  947TIP3   OH224331   4.270   3.037   0.849 -0.1022 -1.0460  0.3764
  947TIP3    H124332   4.365   3.046   0.845 -0.1795 -0.4034 -0.2113
  947TIP3    H224333   4.241   3.119   0.889 -0.5660 -0.2076 -1.5766
  948TIP3   OH224334   1.176   0.958   4.294 -0.4696  0.1977  0.4721
  948TIP3    H124335   1.126   0.955   4.213 -1.2707 -2.2208  0.9809
  948TIP3    H224336   1.250   0.899   4.278  1.1729  2.1722  0.4339
  949TIP3   OH224337   3.196   3.775   6.420 -0.6713  0.2167 -0.6761
  949TIP3    H124338   3.266   3.710   6.425 -0.3480  0.5938 -0.0497
  949TIP3    H224339   3.137   3.751   6.491  0.4891  1.7517  0.8969
  950TIP3   OH224340   3.626   0.061  15.390 -0.2018  0.6564 -0.6959
  950TIP3    H124341   3.560  -0.007  15.375  0.8751 -1.0177  1.5661
  950TIP3    H224342   3.597   0.106  15.469  0.5138  0.9836 -0.6107
  951TIP3   OH224343   0.840   0.272  14.206 -0.1696  0.0042 -0.0826
  951TIP3    H124344   0.771   0.267  14.272  0.4070 -1.0003  0.4683
  951TIP3    H224345   0.870   0.362  14.210 -1.6140  0.5310 -0.5153
  952TIP3   OH224346   6.088   1.433  15.519  0.2878  0.4183  0.1678
  952TIP3    H124347   6.175   1.466  15.543  0.8656 -1.2629  0.5524
  952TIP3    H224348   6.092   1.420  15.425  1.4068 -1.9904  0.4466
  953TIP3   OH224349   0.024   6.437   4.583  0.0470  0.9529 -0.3506
  953TIP3    H124350  -0.069   6.461   4.593  0.0593  1.8346 -1.8736
  953TIP3    H224351   0.030   6.348   4.616 -0.7461  1.8061  2.3892
  954TIP3   OH224352   5.408   3.638  15.979 -0.0433  0.2831  0.3542
  954TIP3    H124353   5.327   3.638  16.030 -0.8327  0.8451 -0.8609
  954TIP3    H224354   5.455   3.716  16.008 -1.5421  1.9080 -1.3246
  955TIP3   OH224355   5.266   6.241   6.618 -0.2196  0.4676 -0.1075
  955TIP3    H124356   5.294   6.312   6.675  2.0932 -0.8705  0.5558
  955TIP3    H224357   5.308   6.163   6.654 -2.3203 -1.1977 -1.0453
  956TIP3   OH224358   5.945   5.030   4.927 -0.2457 -0.9492  0.3776
  956TIP3    H124359   5.921   5.025   4.835  0.0656 -2.0016  0.3374
  956TIP3    H224360   5.939   5.123   4.949  0.8624 -0.5088 -1.0357
  957TIP3   OH224361   3.590   0.662   5.574  0.1866 -0.8039 -0.4247
  957TIP3    H124362   3.675   0.701   5.551  0.1125 -0.4979 -0.1944
  957TIP3    H224363   3.530   0.694   5.506 -0.3646  1.3465  0.9786
  958TIP3   OH224364   6.277   0.993   6.133  0.0553  0.0544  0.1308
  958TIP3    H124365   6.345   1.038   6.083 -0.9461 -1.6308 -3.0078
  958TIP3    H224366   6.316   0.909   6.157 -0.4251 -0.3058 -0.3466
  959TIP3   OH224367   2.850   2.756   5.969  0.0172 -0.2381  0.2136
  959TIP3    H124368   2.796   2.809   6.028  0.1365  0.4782 -0.3104
  959TIP3    H224369   2.935   2.800   5.969  0.6105 -1.3281  0.9971
  960TIP3   OH224370   6.427   2.317   3.910 -0.9941 -0.2106 -0.8248
  960TIP3    H124371   6.369   2.329   3.835 -1.5705  1.1463 -0.2100
  960TIP3    H224372   6.430   2.404   3.952  0.3359 -0.6144 -0.0174
  961TIP3   OH224373   1.951   1.006  16.084 -0.4545 -0.3481  0.0782
  961TIP3    H124374   1.954   1.036  15.993  2.1261  0.5483  0.3732
  961TIP3    H224375   1.868   0.960  16.091 -1.0234  0.0935 -2.5574
  962TIP3   OH224376   6.316   1.649  14.668  0.0154 -0.4108  0.7017
  962TIP3    H124377   6.235   1.690  14.638  0.1967 -1.2019 -0.9964
  962TIP3    H224378   6.331   1.686  14.755 -1.3678  0.8807  0.4352
  963TIP3   OH224379   6.672   6.426  15.355 -0.1182  0.3158  0.6626
  963TIP3    H124380   6.611   6.421  15.281 -1.0500 -2.3282  1.4971
  963TIP3    H224381   6.641   6.502  15.405 -1.0376  0.6211 -0.3104
  964TIP3   OH224382   1.953   4.675  14.125 -0.7584 -0.1077  0.1714
  964TIP3    H124383   1.908   4.599  14.162  0.5064 -1.5539 -1.1624
  964TIP3    H224384   1.958   4.658  14.031 -1.2978  2.1047 -0.3248
  965TIP3   OH224385   0.235   5.847   2.322 -0.5565 -0.0176  0.4157
  965TIP3    H124386   0.282   5.921   2.360 -0.9851  1.0989 -1.1100
  965TIP3    H224387   0.299   5.776   2.322  0.0174  0.4766  1.4968
  966TIP3   OH224388   4.607   6.692   0.240  0.4297 -0.3035 -0.5101
  966TIP3    H124389   4.639   6.777   0.270  1.0271 -1.0811  1.1876
  966TIP3    H224390   4.651   6.629   0.296  1.7251 -1.9248 -3.1394
  967TIP3   OH224391   6.157   3.862   4.370 -0.3468 -0.1216 -0.3813
  967TIP3    H124392   6.192   3.776   4.349 -0.6868 -0.3626  0.0262
  967TIP3    H224393   6.234   3.917   4.384 -0.1297 -0.3307 -0.7487
  968TIP3   OH224394   4.915   5.662  14.987 -0.2968 -0.2873 -0.2454
  968TIP3    H124395   4.830   5.676  15.027 -0.0159 -0.1586  0.3194
  968TIP3    H224396   4.903   5.683  14.894 -0.8687 -0.2573 -0.1629
  969TIP3   OH224397   3.381   4.605  14.166 -0.1602 -0.2312  0.7839
  969TIP3    H124398   3.295   4.646  14.174  1.2767  2.9480  1.8418
  969TIP3    H224399   3.402   4.576  14.256 -0.3276 -1.5558  0.4184
  970TIP3   OH224400   5.991   3.981   3.189 -0.1632  0.4029 -0.3185
  970TIP3    H124401   5.957   4.046   3.251  0.5441 -0.1186  0.6441
  970TIP3    H224402   5.913   3.942   3.151 -0.6177  2.1597 -1.3287
  971TIP3   OH224403   0.689   2.865  14.240 -0.7253  0.1901 -0.5572
  971TIP3    H124404   0.615   2.903  14.193 -0.2339  0.8572 -0.8133
  971TIP3    H224405   0.761   2.926  14.224 -0.0563 -0.5728 -0.5125
  972TIP3   OH224406   3.109   1.377   1.929  0.1640  0.0333 -0.3463
  972TIP3    H124407   3.097   1.470   1.908  2.0297  0.3104 -0.3410
  972TIP3    H224408   3.181   1.348   1.872 -1.2387 -1.7871 -1.3075
  973TIP3   OH224409   1.281   5.932  11.459  0.0361  0.2976  0.3000
  973TIP3    H124410   1.312   6.019  11.436  0.4800  0.1153  0.1844
  973TIP3    H224411   1.309   5.877  11.386  0.8761 -0.1663  0.9569
  974TIP3   OH224412   3.729   2.745   4.426 -0.4407 -0.2962 -0.3947
  974TIP3    H124413   3.654   2.686   4.437 -0.2675 -0.3171  0.7999
  974TIP3    H224414   3.800   2.689   4.396 -0.1924 -0.7716  1.0234
  975TIP3   OH224415   6.088   2.095  12.314  0.3579 -0.2669  0.7728
  975TIP3    H124416   6.134   2.124  12.393  0.8804 -0.1898  0.4462
  975TIP3    H224417   6.154   2.100  12.245 -0.8053  2.5929 -0.3243
  976TIP3   OH224418   4.810   6.237  15.909  0.3167 -0.0852 -0.2577
  976TIP3    H124419   4.797   6.272  15.821 -0.1220 -0.0403 -0.1805
  976TIP3    H224420   4.734   6.180  15.924  1.4039 -1.6994 -0.6750
  977TIP3   OH224421   6.455   3.162  14.519 -0.0439  0.1290 -0.5196
  977TIP3    H124422   6.486   3.221  14.450  0.1491  0.0532 -0.4989
  977TIP3    H224423   6.504   3.189  14.597  2.5845 -2.1657 -1.1906
  978TIP3   OH224424   6.578   2.229   3.066  0.6257 -0.0655  0.8137
  978TIP3    H124425   6.519   2.258   3.135  0.8212  1.0109  0.5417
  978TIP3    H224426   6.637   2.167   3.109 -0.4936 -0.9183  1.1545
  979TIP3   OH224427   4.000   6.347   0.973 -0.4462 -0.2510  0.5426
  979TIP3    H124428   4.077   6.404   0.964  0.4562 -1.4683  0.3256
  979TIP3    H224429   4.016   6.296   1.052 -0.0821 -1.8551 -0.5042
  980TIP3   OH224430   4.737   6.012  14.904 -0.1841 -0.2361  0.1920
  980TIP3    H124431   4.665   6.023  14.842 -0.0159  0.9882  0.1904
  980TIP3    H224432   4.703   5.952  14.970  0.2512 -3.1001 -1.9985
  981TIP3   OH224433   6.449   0.141  16.244 -0.3866 -0.2531 -0.3079
  981TIP3    H124434   6.461   0.100  16.158 -0.3395 -0.5924 -0.1399
  981TIP3    H224435   6.362   0.113  16.272 -0.4304 -0.0855 -0.2697
  982TIP3   OH224436   2.685   1.513  12.139 -0.3073 -0.2539  0.4008
  982TIP3    H124437   2.696   1.594  12.189  0.1112 -0.5073  0.7297
  982TIP3    H224438   2.773   1.475  12.137 -0.3842 -0.4045 -0.2648
  983TIP3   OH224439   0.547   3.251  12.174  0.0814 -0.2713  0.4467
  983TIP3    H124440   0.475   3.307  12.145  0.5996  0.1012 -0.1440
  983TIP3    H224441   0.504   3.174  12.211 -0.6496  0.6696  1.6327
  984TIP3   OH224442   1.838   5.876   2.913  0.0737 -0.2917 -0.4929
  984TIP3    H124443   1.865   5.906   2.826  0.8720 -0.3717 -0.2810
  984TIP3    H224444   1.895   5.923   2.973  0.9815 -1.7969 -0.1204
  985TIP3   OH224445   5.141   1.690  15.687  0.1790 -0.1757 -0.2006
  985TIP3    H124446   5.080   1.668  15.617 -0.3251 -1.0767  0.4925
  985TIP3    H224447   5.086   1.724  15.757  0.5951 -0.0075  0.0486
  986TIP3   OH224448   0.151   3.426  14.565 -1.0143 -0.4589 -0.3760
  986TIP3    H124449   0.192   3.363  14.625  0.5884  1.1007  0.2427
  986TIP3    H224450   0.212   3.431  14.491 -1.5479 -0.2303 -0.8059
  987TIP3   OH224451   2.052   0.470  12.053 -0.5820 -0.1111  0.3799
  987TIP3    H124452   1.966   0.427  12.043 -0.1355 -0.4831 -4.6147
  987TIP3    H224453   2.033   0.563  12.051 -0.9304 -0.1886 -0.0189
  988TIP3   OH224454   4.835   3.664  13.694  0.6521  0.2816  0.4754
  988TIP3    H124455   4.879   3.590  13.735  0.6983 -2.3909 -3.7400
  988TIP3    H224456   4.750   3.629  13.665  0.0106  2.3461 -0.3643
  989TIP3   OH224457   6.144   4.131   3.498 -0.1075 -0.1555 -0.3689
  989TIP3    H124458   6.188   4.178   3.569  0.2621  0.4144 -0.9629
  989TIP3    H224459   6.127   4.044   3.534 -0.0432  0.1627  0.4608
  990TIP3   OH224460   0.088   6.585  11.412 -0.5946 -0.3335  0.5675
  990TIP3    H124461   0.113   6.541  11.331  0.1805  0.2591  0.4765
  990TIP3    H224462   0.030   6.523  11.457  1.0243 -1.7506  0.7775
  991TIP3   OH224463   6.832   0.746   1.626 -0.7284 -0.2403  0.5736
  991TIP3    H124464   6.774   0.822   1.631  0.4383  0.8078 -0.7252
  991TIP3    H224465   6.779   0.678   1.585 -0.5896  1.3050 -2.5033
  992TIP3   OH224466   3.456   5.892   5.890 -0.3717 -0.2723 -0.9897
  992TIP3    H124467   3.374   5.915   5.848  0.0861  1.1451 -1.1418
  992TIP3    H224468   3.433   5.880   5.983 -0.3345  3.0684 -0.4117
  993TIP3   OH224469   4.765   4.164   1.709  0.2197  0.0280  0.5545
  993TIP3    H124470   4.702   4.166   1.781 -0.6229 -1.7276 -0.0757
  993TIP3    H224471   4.712   4.172   1.630  0.9238 -0.1898  0.0452
  994TIP3   OH224472   4.695   1.511   0.412  0.0588 -0.6210  0.7108
  994TIP3    H124473   4.678   1.597   0.450 -2.1720 -1.4219  1.7097
  994TIP3    H224474   4.683   1.523   0.318  1.6834  0.5355  0.6095
  995TIP3   OH224475   6.824   5.136  12.111 -0.0222 -0.1522  0.2737
  995TIP3    H124476   6.864   5.074  12.172 -0.4141  0.4905  1.2024
  995TIP3    H224477   6.805   5.083  12.033 -2.4851 -1.8521  1.8364
  996TIP3   OH224478   4.929   3.774  16.257 -0.7466  0.2669 -0.1515
  996TIP3    H124479   4.893   3.689  16.282 -1.1509  0.1807 -1.0035
  996TIP3    H224480   4.854   3.832  16.252 -0.2903  1.1820  2.2482
  997TIP3   OH224481   6.381   3.074   5.702  0.1557  0.7294 -0.5049
  997TIP3    H124482   6.465   3.029   5.696  0.5849  1.2945  0.8312
  997TIP3    H224483   6.402   3.159   5.741 -1.2756  0.0759  1.9172
  998TIP3   OH224484   6.205   4.605  12.471 -0.7782  0.1601 -0.1949
  998TIP3    H124485   6.282   4.560  12.506 -0.6430  0.0466 -0.6207
  998TIP3    H224486   6.136   4.539  12.471 -1.0929  0.4737  0.8995
  999TIP3   OH224487   1.506   3.484   1.087  0.3216  0.2249  0.0282
  999TIP3    H124488   1.467   3.456   1.170  1.4468 -0.4200  0.3540
  999TIP3    H224489   1.437   3.536   1.045 -1.0793 -1.2752  0.3681
 1000TIP3   OH224490   0.144   2.927  16.760 -0.5625 -0.3753 -0.2847
 1000TIP3    H124491   0.187   2.978  16.691  1.9395 -0.1743  1.2878
 1000TIP3    H224492   0.180   2.839  16.749 -0.9509 -0.5862  0.1270
 1001TIP3   OH224493   6.400   6.125   0.224 -0.2820  0.0492 -0.1958
 1001TIP3    H124494   6.436   6.201   0.270 -0.0122  0.0706 -0.4386
 1001TIP3    H224495   6.400   6.151   0.132 -0.8505  0.0212 -0.2110
 1002TIP3   OH224496   5.338   4.568   4.503 -0.0319  0.4888 -0.4138
 1002TIP3    H124497   5.376   4.614   4.428 -1.1432  1.2065 -0.5737
 1002TIP3    H224498   5.359   4.476   4.489 -0.7494  0.5200 -1.9658
 1003TIP3   OH224499   3.242   1.573  11.062  0.0318 -0.0921 -0.7131
 1003TIP3    H124500   3.262   1.534  10.977 -1.4403 -0.8311 -0.7551
 1003TIP3    H224501   3.194   1.505  11.109 -0.2807  0.7475  0.2275
 1004TIP3   OH224502   4.587   3.947  15.141 -0.0045 -0.0970  0.8363
 1004TIP3    H124503   4.607   3.863  15.182  0.1905  0.4169  1.8378
 1004TIP3    H224504   4.666   3.970  15.092  1.2150  0.9493  3.1115
 1005TIP3   OH224505   1.692   4.640   5.741 -0.0856 -0.1064 -0.0818
 1005TIP3    H124506   1.621   4.698   5.714 -1.4755 -1.0602  1.3531
 1005TIP3    H224507   1.695   4.572   5.673 -1.0067 -0.4144  0.1697
 1006TIP3   OH224508   2.492   3.766   1.895  0.0500  0.3523  0.6255
 1006TIP3    H124509   2.398   3.769   1.879 -0.1721  2.6133  1.8773
 1006TIP3    H224510   2.501   3.717   1.977 -0.0343  0.0432  0.4486
 1007TIP3   OH224511   2.976   0.816   4.394  0.0485  0.2454 -0.1396
 1007TIP3    H124512   3.015   0.904   4.396  3.1007 -0.9055 -2.0313
 1007TIP3    H224513   3.051   0.757   4.399 -1.9338 -2.3227  1.3051
 1008TIP3   OH224514   3.597   3.454   4.475  0.6445 -0.3442 -0.0454
 1008TIP3    H124515   3.528   3.515   4.502  0.0688 -0.2515 -1.6250
 1008TIP3    H224516   3.661   3.457   4.546  0.2977  1.5979  0.2343
 1009TIP3   OH224517   5.555   6.322   4.545  0.4364 -0.3229 -0.2068
 1009TIP3    H124518   5.463   6.321   4.570  0.4299 -1.3697 -0.1993
 1009TIP3    H224519   5.603   6.322   4.628  0.4397 -0.2147 -0.2087
 1010TIP3   OH224520   5.098   2.179   3.170  0.5353  0.3633 -0.3411
 1010TIP3    H124521   5.039   2.254   3.176  1.8246  1.3553  0.5345
 1010TIP3    H224522   5.169   2.199   3.231  1.1279 -1.3941 -0.3888
 1011TIP3   OH224523   3.036   4.672  11.777 -0.4098 -0.0982  0.5407
 1011TIP3    H124524   3.124   4.710  11.773 -0.7101  0.7935  1.7895
 1011TIP3    H224525   2.993   4.720  11.848 -1.3819 -1.6508  1.0291
 1012TIP3   OH224526   6.496   5.477  13.407 -0.6425  0.8662 -0.4679
 1012TIP3    H124527   6.540   5.424  13.340 -0.1625  0.4644  0.1538
 1012TIP3    H224528   6.416   5.428  13.427  0.2684 -0.1885  0.8175
 1013TIP3   OH224529   2.555   4.343   4.369 -0.2237  0.4548  0.3214
 1013TIP3    H124530   2.529   4.423   4.415 -2.5491 -0.2534  0.4002
 1013TIP3    H224531   2.526   4.272   4.426  0.9638 -0.4610 -0.1717
 1014TIP3   OH224532   2.479   6.177  12.340  0.3394 -0.3976  0.5310
 1014TIP3    H124533   2.427   6.104  12.309  0.0261  0.2415 -0.4832
 1014TIP3    H224534   2.433   6.208  12.418 -0.2832 -0.4356  0.1819
 1015TIP3   OH224535   4.318   3.348   0.013 -0.6335  0.2686  0.1219
 1015TIP3    H124536   4.337   3.398  -0.067  2.2875  0.7884  1.0254
 1015TIP3    H224537   4.271   3.410   0.069  2.8656  2.2366  1.1994
 1016TIP3   OH224538   3.723   4.695   1.675 -0.0724 -1.1359  0.2837
 1016TIP3    H124539   3.688   4.609   1.700 -0.6630 -0.5328  1.6446
 1016TIP3    H224540   3.741   4.687   1.582 -1.4065 -2.3141  0.0868
 1017TIP3   OH224541   1.262   0.091  12.830 -0.3600 -0.6484 -0.2706
 1017TIP3    H124542   1.174   0.128  12.828  0.8106  2.5245  0.4746
 1017TIP3    H224543   1.282   0.081  12.923 -0.3549 -2.6401 -0.4415
 1018TIP3   OH224544   6.498   1.411   5.421  0.0917 -0.3087 -0.5339
 1018TIP3    H124545   6.547   1.329   5.433 -0.4014 -0.6387 -0.7068
 1018TIP3    H224546   6.544   1.456   5.350  1.7047  0.6270  1.0471
 1019TIP3   OH224547   4.376   5.993   1.403 -0.3277 -0.2314 -0.4816
 1019TIP3    H124548   4.404   5.960   1.317 -0.6158 -0.1193 -0.6202
 1019TIP3    H224549   4.317   6.065   1.383  0.0442  0.1605 -0.1788
 1020TIP3   OH224550   0.290   6.695   3.677  0.8442 -0.8888  0.1521
 1020TIP3    H124551   0.246   6.726   3.756 -2.0413 -0.3769 -1.5061
 1020TIP3    H224552   0.369   6.750   3.670 -0.2972  0.9915  1.2077
 1021TIP3   OH224553   3.654   6.230   1.118  0.2984 -0.2420 -0.0996
 1021TIP3    H124554   3.665   6.269   1.031  1.1102 -1.2300 -0.4524
 1021TIP3    H224555   3.694   6.294   1.177  0.8929 -0.1456 -0.5879
 1022TIP3   OH224556   2.645   0.200   3.456 -0.3784 -0.7919 -0.5679
 1022TIP3    H124557   2.664   0.153   3.537  0.7315 -0.9817 -0.9215
 1022TIP3    H224558   2.561   0.165   3.427 -1.3275  0.0414  1.0453
 1023TIP3   OH224559   6.219   5.565   3.494  0.3715 -0.4775  0.6342
 1023TIP3    H124560   6.215   5.490   3.435 -0.5383 -0.7320  0.9968
 1023TIP3    H224561   6.165   5.631   3.452 -3.2029 -1.8065  2.6863
 1024TIP3   OH224562   6.510   5.034   5.625 -0.5572  0.3886  0.4219
 1024TIP3    H124563   6.428   5.081   5.610 -0.2638  0.4576 -1.0684
 1024TIP3    H224564   6.517   5.029   5.720 -1.7657  1.3011  0.5851
 1025TIP3   OH224565   1.018   0.911   2.288  0.2674  0.3320  0.2739
 1025TIP3    H124566   0.926   0.886   2.282 -0.5055  3.1658 -2.9017
 1025TIP3    H224567   1.034   0.924   2.381 -2.8821  0.8127  0.8537
 1026TIP3   OH224568   5.952   0.069   4.958 -0.3185  0.1911  0.2715
 1026TIP3    H124569   6.020   0.002   4.948  1.7165  2.0985  0.4742
 1026TIP3    H224570   5.998   0.152   4.945 -2.6170  1.6008  0.5569
 1027TIP3   OH224571   0.024   1.402  11.066  0.6424 -0.5119 -0.2232
 1027TIP3    H124572  -0.008   1.366  10.983 -0.5601 -0.3434  0.1607
 1027TIP3    H224573   0.104   1.450  11.042 -0.5400  0.8684 -1.5453
 1028TIP3   OH224574   3.936   3.504   6.151 -0.2890  0.1068 -0.1401
 1028TIP3    H124575   3.897   3.505   6.064 -1.6789  1.8703  0.4460
 1028TIP3    H224576   4.030   3.511   6.136 -0.5489  0.9553 -1.4884
 1029TIP3   OH224577   2.767   0.475   1.564  0.0476 -0.0663  0.0938
 1029TIP3    H124578   2.840   0.421   1.534  0.7117  0.6886  0.3203
 1029TIP3    H224579   2.806   0.538   1.625 -1.0622 -0.7173  1.5462
 1030TIP3   OH224580   2.174   5.664  16.960 -0.0737 -0.1410  0.2036
 1030TIP3    H124581   2.102   5.726  16.966 -0.3505 -0.4694  0.3543
 1030TIP3    H224582   2.141   5.585  17.003  0.1653 -0.4864 -0.2365
 1031TIP3   OH224583   5.471   3.047   1.417  0.3091  0.3305 -0.2706
 1031TIP3    H124584   5.389   3.011   1.384  0.8804  0.3748 -1.7764
 1031TIP3    H224585   5.445   3.127   1.463 -0.5746 -0.1217  0.0339
 1032TIP3   OH224586   2.570   4.566   6.511  0.1275 -0.6299 -0.2667
 1032TIP3    H124587   2.597   4.511   6.438  0.5875 -0.5965 -0.1258
 1032TIP3    H224588   2.507   4.627   6.474 -0.7501 -1.5446 -0.3321
 1033TIP3   OH224589   1.844   1.625   2.607  0.5361 -0.2512 -0.4051
 1033TIP3    H124590   1.799   1.577   2.538 -0.1456 -0.5112  0.2049
 1033TIP3    H224591   1.905   1.682   2.561 -0.3093 -0.0028 -1.2493
 1034TIP3   OH224592   4.971   6.277  16.489 -0.3487  0.1741 -0.2423
 1034TIP3    H124593   4.896   6.331  16.514 -3.5059 -3.5604 -0.7283
 1034TIP3    H224594   4.947   6.240  16.404  2.2250 -0.9528 -0.5713
 1035TIP3   OH224595   4.195   3.888  11.787 -0.4613  0.2037 -0.0971
 1035TIP3    H124596   4.189   3.873  11.882 -1.4138 -0.4319 -0.2380
 1035TIP3    H224597   4.287   3.908  11.772 -0.7531  3.1606  1.3311
 1036TIP3   OH224598   1.570   3.650  12.907  0.1984 -0.3014  0.1246
 1036TIP3    H124599   1.614   3.606  12.979 -0.6204 -1.4391 -0.0458
 1036TIP3    H224600   1.501   3.589  12.879 -0.7875  0.9550 -0.3201
 1037TIP3   OH224601   1.322   6.726   5.323  0.1086  0.5062 -0.4674
 1037TIP3    H124602   1.242   6.756   5.280 -0.0766  0.5951 -0.0741
 1037TIP3    H224603   1.327   6.779   5.403 -1.4923 -2.0124  1.4790
 1038TIP3   OH224604   2.188   5.503   2.639 -0.3249 -0.5203 -0.2608
 1038TIP3    H124605   2.203   5.463   2.724  4.6802 -0.6861 -0.9402
 1038TIP3    H224606   2.149   5.588   2.659  1.4673 -0.2030  2.3548
 1039TIP3   OH224607   6.744   1.411   1.838  1.0596 -0.1976 -0.1684
 1039TIP3    H124608   6.773   1.322   1.857 -0.4185 -0.8480 -0.7377
 1039TIP3    H224609   6.798   1.439   1.764  1.0326 -0.9110 -0.4636
 1040TIP3   OH224610   2.499   1.859  14.920 -0.1946  0.1962 -0.5544
 1040TIP3    H124611   2.423   1.916  14.911  0.1032  0.7521  0.3394
 1040TIP3    H224612   2.574   1.917  14.908  0.1062 -0.2938 -1.1297
 1041TIP3   OH224613   1.388   1.865   2.188 -0.3875 -0.1562 -0.2677
 1041TIP3    H124614   1.386   1.876   2.093  1.8175  1.2315 -0.2253
 1041TIP3    H224615   1.366   1.951   2.222 -0.4615 -0.4655  0.4703
 1042TIP3   OH224616   3.799   5.155  13.852  0.2708  0.6856  0.6153
 1042TIP3    H124617   3.853   5.217  13.804 -0.6063  0.1658 -1.1146
 1042TIP3    H224618   3.727   5.208  13.887  0.8674  1.0474  1.3377
 1043TIP3   OH224619   6.018   2.262   3.298  0.1999 -0.8918  0.6264
 1043TIP3    H124620   6.028   2.206   3.375 -1.5170 -1.8138  0.2280
 1043TIP3    H224621   5.937   2.233   3.257 -0.6228  1.6741  0.2200
 1044TIP3   OH224622   0.989   3.462   4.680  0.1526  0.2703 -0.3375
 1044TIP3    H124623   0.946   3.471   4.596  0.3836  2.1878 -0.2935
 1044TIP3    H224624   0.920   3.475   4.745 -0.0988 -1.5659 -0.1827
 1045TIP3   OH224625   6.744   4.574   3.749  0.2019 -0.0061  0.5523
 1045TIP3    H124626   6.788   4.599   3.830  1.0780 -2.1840  0.8070
 1045TIP3    H224627   6.683   4.505   3.775 -1.3783  1.0043 -0.2718
 1046TIP3   OH224628   3.989   3.034  14.555 -0.4902 -0.6583  0.6055
 1046TIP3    H124629   4.072   2.996  14.526  0.2351  0.8121  0.6232
 1046TIP3    H224630   3.975   3.108  14.495  0.9622  2.3759  3.7051
 1047TIP3   OH224631   2.728   2.075  13.542 -0.3208  0.1110 -0.4408
 1047TIP3    H124632   2.775   2.158  13.538 -0.0713  0.0572  0.8021
 1047TIP3    H224633   2.774   2.018  13.479  0.4663  0.4599 -0.1960
 1048TIP3   OH224634   5.951   3.965   5.686 -0.2379  0.3077  0.1313
 1048TIP3    H124635   6.002   3.884   5.693 -0.8510 -0.1310 -0.2538
 1048TIP3    H224636   5.942   3.996   5.776 -1.2766 -0.8823  0.4653
 1049TIP3   OH224637   3.065   2.203   1.812 -0.1076 -0.4416  0.3567
 1049TIP3    H124638   3.121   2.279   1.824 -0.0196 -0.5053  0.3438
 1049TIP3    H224639   3.120   2.128   1.835 -0.1684 -0.5082  0.2852
 1050TIP3   OH224640   6.144   0.757  16.111  0.0274  0.8356 -0.4679
 1050TIP3    H124641   6.086   0.752  16.187  3.0911 -0.2780  1.9764
 1050TIP3    H224642   6.216   0.813  16.138  1.3964  0.1255 -2.4003
 1051TIP3   OH224643   4.711   6.758  15.853  0.8128 -0.2820 -0.6627
 1051TIP3    H124644   4.794   6.744  15.806  0.6181 -1.6431 -0.6274
 1051TIP3    H224645   4.681   6.670  15.876  0.9815  0.3353  2.2078
 1052TIP3   OH224646   0.594   3.626  13.769  0.1024  0.0856 -0.3622
 1052TIP3    H124647   0.589   3.636  13.674  0.7169 -1.3529 -0.5724
 1052TIP3    H224648   0.657   3.692  13.798  0.5076  0.0038 -1.0590
 1053TIP3   OH224649   4.596   3.848  10.769  0.0433 -0.2230 -0.7182
 1053TIP3    H124650   4.652   3.806  10.703  0.2458 -1.7133  0.3386
 1053TIP3    H224651   4.509   3.813  10.752  0.5778 -3.0611  1.5616
 1054TIP3   OH224652   2.620   5.889   4.006  0.2453 -0.2856  0.1760
 1054TIP3    H124653   2.618   5.980   4.037  0.3963 -0.0243 -0.5846
 1054TIP3    H224654   2.529   5.860   4.013  0.1035  0.0929 -0.0922
 1055TIP3   OH224655   2.107   2.098  12.923 -0.0317 -0.2881  0.4014
 1055TIP3    H124656   2.098   2.039  12.997  1.5968 -0.0408  0.8423
 1055TIP3    H224657   2.161   2.049  12.860 -0.0174  0.1232  0.0914
 1056TIP3   OH224658   1.104   6.626   2.786 -0.5577 -0.0808 -0.2362
 1056TIP3    H124659   1.184   6.638   2.734 -0.4731  0.9970  0.1098
 1056TIP3    H224660   1.132   6.578   2.864 -0.1034  0.8746  0.2032
 1057TIP3   OH224661   3.678   3.246  10.732 -0.3414 -0.1222 -0.0940
 1057TIP3    H124662   3.748   3.302  10.765  1.0202 -1.7579 -0.0291
 1057TIP3    H224663   3.600   3.274  10.780  0.4614  1.1423  0.5281
 1058TIP3   OH224664   3.696   3.416   3.204  0.2654  0.0535 -0.0272
 1058TIP3    H124665   3.615   3.367   3.191 -1.6352  2.8470  0.3410
 1058TIP3    H224666   3.717   3.453   3.118 -1.0803  2.3510  0.5282
 1059TIP3   OH224667   2.631   0.756   1.529 -0.0071 -0.6037 -0.1291
 1059TIP3    H124668   2.602   0.836   1.573  0.9413 -1.2084  1.7250
 1059TIP3    H224669   2.710   0.730   1.577  1.3846 -1.0782 -2.5425
 1060TIP3   OH224670   4.343   5.200  11.643 -0.1252  0.2555  0.6140
 1060TIP3    H124671   4.361   5.287  11.608 -1.0194  0.9425  1.7841
 1060TIP3    H224672   4.253   5.205  11.674 -1.6150 -2.2792 -2.7822
 1061TIP3   OH224673   3.588   0.090   3.599  0.1851  0.2648 -0.1439
 1061TIP3    H124674   3.548   0.084   3.686 -0.6364  2.3716 -0.3112
 1061TIP3    H224675   3.676   0.122   3.615 -0.2565  1.5197 -0.0941
 1062TIP3   OH224676   0.747   1.849   5.583  0.1092 -0.0257  0.1665
 1062TIP3    H124677   0.820   1.889   5.630 -0.2275  0.2940  0.4215
 1062TIP3    H224678   0.689   1.815   5.651 -0.2354  0.1775 -0.0207
 1063TIP3   OH224679   3.438   3.548   2.451 -0.3677  0.2685  0.1988
 1063TIP3    H124680   3.378   3.516   2.383  0.1021  2.1111 -1.1733
 1063TIP3    H224681   3.521   3.506   2.431 -0.3216  0.5190 -0.1488
 1064TIP3   OH224682   1.883   6.583   4.516  0.1873 -0.3983  0.2057
 1064TIP3    H124683   1.942   6.649   4.551  0.2217  0.5694 -1.5512
 1064TIP3    H224684   1.900   6.505   4.568  2.8060 -0.0699 -0.0263
 1065TIP3   OH224685   3.546   1.671  12.130  0.5495  0.1380 -0.1398
 1065TIP3    H124686   3.573   1.610  12.199  2.2681  0.0103 -0.8706
 1065TIP3    H224687   3.491   1.618  12.072 -0.5908  0.1474  0.9085
 1066TIP3   OH224688   1.932   6.354   2.897  0.2324  0.1652 -0.3355
 1066TIP3    H124689   1.851   6.310   2.922 -0.0073  0.3717 -0.7436
 1066TIP3    H224690   1.913   6.393   2.812  0.8679 -0.0751 -0.5935
 1067TIP3   OH224691   6.115   2.074   2.685  0.0721  0.1298 -0.5269
 1067TIP3    H124692   6.211   2.084   2.685  0.3607 -2.1031  0.1605
 1067TIP3    H224693   6.082   2.163   2.685  2.1487  0.9830 -1.5130
 1068TIP3   OH224694   4.904   0.410   1.069 -0.0913 -0.6390 -0.3631
 1068TIP3    H124695   4.830   0.351   1.059 -0.3090 -0.2214 -1.3069
 1068TIP3    H224696   4.872   0.479   1.127 -0.0759 -1.0266  0.1201
 1069TIP3   OH224697   1.814   4.731   2.920  0.0169 -0.4169  0.3850
 1069TIP3    H124698   1.771   4.661   2.872 -0.6981  1.4387 -1.9183
 1069TIP3    H224699   1.876   4.768   2.857  0.7301  0.7088  1.6845
 1070TIP3   OH224700   5.648   0.232   2.961  0.0346  0.2664 -0.3045
 1070TIP3    H124701   5.726   0.180   2.941  0.4490  1.0098 -0.6527
 1070TIP3    H224702   5.592   0.173   3.012  0.8714 -0.2319  0.0463
 1071TIP3   OH224703   2.286   1.680   3.247  0.5110 -0.5531 -0.2975
 1071TIP3    H124704   2.240   1.595   3.246 -2.2848  0.8325 -2.6253
 1071TIP3    H224705   2.319   1.691   3.158  0.3687  1.0053 -0.1834
 1072TIP3   OH224706   4.623   4.580   3.603  1.0146 -0.0901 -0.1814
 1072TIP3    H124707   4.653   4.492   3.627 -1.2267 -0.3272  2.2729
 1072TIP3    H224708   4.609   4.624   3.686  0.1888  1.9124 -1.3118
 1073TIP3   OH224709   4.606   1.180   0.740  0.3090 -0.0210 -0.3851
 1073TIP3    H124710   4.516   1.199   0.715  0.1515 -0.3521 -0.0694
 1073TIP3    H224711   4.659   1.233   0.681 -0.1111  0.7763 -0.0624
 1074TIP3   OH224712   1.929   5.211  12.550 -0.1091  0.0276 -0.0613
 1074TIP3    H124713   1.833   5.211  12.558 -0.0318  1.4079  1.1006
 1074TIP3    H224714   1.958   5.147  12.615 -0.1378  1.6121  1.5643
 1075TIP3   OH224715   4.205   2.534  15.443 -0.1342  0.5846 -0.0650
 1075TIP3    H124716   4.180   2.577  15.525 -1.1785 -0.6196  0.2824
 1075TIP3    H224717   4.165   2.448  15.448  0.3431  0.2429 -1.5675
 1076TIP3   OH224718   2.420   0.578  11.172  0.0814  0.1791  0.3988
 1076TIP3    H124719   2.356   0.584  11.101  0.7542  1.0316 -0.1616
 1076TIP3    H224720   2.497   0.536  11.132 -0.2783 -1.3102  1.1943
 1077TIP3   OH224721   5.326   0.608   5.442 -0.7209  0.3660  0.1698
 1077TIP3    H124722   5.363   0.521   5.455 -1.4237 -0.2179 -1.4359
 1077TIP3    H224723   5.254   0.613   5.505  1.3290  1.1508  2.6484
 1078TIP3   OH224724   1.433   1.039   1.900 -0.8174 -0.1958  0.4072
 1078TIP3    H124725   1.421   0.946   1.880  0.2341 -0.4437  0.8399
 1078TIP3    H224726   1.485   1.039   1.980 -0.1288  0.7626 -0.0271
 1079TIP3   OH224727   2.627   1.182  10.754  0.1168 -0.5272  0.1524
 1079TIP3    H124728   2.689   1.170  10.682 -1.8872  1.2868 -1.9927
 1079TIP3    H224729   2.545   1.147  10.721 -1.4591  2.5642  0.5038
 1080TIP3   OH224730   2.773   1.376  11.663  0.4473 -0.0773  0.7603
 1080TIP3    H124731   2.861   1.397  11.692  0.8935 -0.3332 -0.3459
 1080TIP3    H224732   2.785   1.312  11.593 -0.5993  0.0935  0.3965
 1081TIP3   OH224733   6.585   1.734   5.851 -0.6076 -0.4715 -0.2525
 1081TIP3    H124734   6.622   1.819   5.830 -0.0728  0.1689  2.7815
 1081TIP3    H224735   6.505   1.754   5.899 -0.9800 -1.7141 -0.3193
 1082TIP3   OH224736   3.592   3.978  14.186  0.5263  0.6542 -0.2815
 1082TIP3    H124737   3.640   3.966  14.268 -1.9061  1.6194  1.4452
 1082TIP3    H224738   3.587   4.073  14.176 -1.8312  0.6533  0.2519
 1083TIP3   OH224739   1.209   0.400   4.836 -0.3175 -0.7054  0.6934
 1083TIP3    H124740   1.184   0.488   4.807 -1.4383 -1.3075 -0.2723
 1083TIP3    H224741   1.162   0.388   4.919 -1.5212 -0.9945 -0.0059
 1084TIP3   OH224742   1.993   0.283   4.342 -0.7969 -0.3980  0.2477
 1084TIP3    H124743   2.061   0.230   4.301 -0.0695  0.2034  0.6404
 1084TIP3    H224744   1.967   0.345   4.273 -1.1018 -0.7677  0.0293
 1085TIP3   OH224745   0.164   3.798   4.106  0.4829  0.0931 -0.0197
 1085TIP3    H124746   0.161   3.714   4.060 -0.0990 -0.3537  0.8016
 1085TIP3    H224747   0.101   3.853   4.059  1.8971  0.5674 -1.4476
 1086TIP3   OH224748   0.876   5.669  11.442 -0.0020  0.3283  0.8118
 1086TIP3    H124749   0.864   5.651  11.535 -1.7141  0.6342  0.6886
 1086TIP3    H224750   0.900   5.761  11.438 -0.4057  0.4398  0.9255
 1087TIP3   OH224751   5.872   4.869  13.788 -0.1705 -0.0930  0.1810
 1087TIP3    H124752   5.790   4.887  13.743 -0.0106 -0.2860 -0.1908
 1087TIP3    H224753   5.898   4.782  13.757 -0.3534 -0.4877  1.0840
 1088TIP3   OH224754   6.269   4.724   1.834 -0.0189  0.0997  0.6525
 1088TIP3    H124755   6.361   4.742   1.817  0.7544 -3.6708 -0.0277
 1088TIP3    H224756   6.265   4.707   1.928 -0.4600  1.9242  1.0135
 1089TIP3   OH224757   0.425   4.787  14.456 -0.2286  0.4814  0.0057
 1089TIP3    H124758   0.392   4.762  14.542  0.7772  1.8358  0.8404
 1089TIP3    H224759   0.518   4.802  14.470  0.2106 -0.4718 -1.6283
 1090TIP3   OH224760   6.844   1.698  15.472  0.3877  0.2033 -0.5027
 1090TIP3    H124761   6.813   1.608  15.461  0.8131 -0.2735  1.6770
 1090TIP3    H224762   6.938   1.693  15.460  0.1588  0.9841 -3.4044
 1091TIP3   OH224763   5.691   0.160   5.001 -0.2518  0.2171 -0.4719
 1091TIP3    H124764   5.753   0.089   4.990 -1.0665 -0.3824 -1.3644
 1091TIP3    H224765   5.643   0.138   5.082 -0.0139  0.1376 -0.3524
 1092TIP3   OH224766   4.323   2.566   5.929 -0.5119 -0.1888 -0.1680
 1092TIP3    H124767   4.377   2.536   6.002 -0.2339 -1.4987 -0.8834
 1092TIP3    H224768   4.315   2.661   5.943 -0.9522 -0.4702  1.8680
 1093TIP3   OH224769   2.894   2.609   3.609 -0.2003 -0.1516  0.0252
 1093TIP3    H124770   2.938   2.662   3.676 -0.3814  0.0958 -0.0494
 1093TIP3    H224771   2.804   2.600   3.641 -0.1260 -0.5741  0.1291
 1094TIP3   OH224772   0.937   0.493  14.817  0.0265 -0.4016  0.1928
 1094TIP3    H124773   0.888   0.571  14.791  0.9898  1.0693  2.5097
 1094TIP3    H224774   1.024   0.525  14.841  0.0955 -1.9404  2.3365
 1095TIP3   OH224775   0.028   5.363   6.339  0.3992  0.1011  0.1746
 1095TIP3    H124776  -0.047   5.346   6.395  1.2891  1.7738  2.0063
 1095TIP3    H224777   0.014   5.452   6.306  0.5514 -0.3655 -1.2102
 1096TIP3   OH224778   1.237   2.121  12.892 -0.5270 -0.0984  0.5769
 1096TIP3    H124779   1.216   2.211  12.867  1.0036  0.2998  0.6506
 1096TIP3    H224780   1.211   2.068  12.817 -1.7856  0.3316  0.6786
 1097TIP3   OH224781   0.106   4.678  14.410 -0.2099  0.0014  0.0513
 1097TIP3    H124782   0.195   4.697  14.382 -0.1063 -0.9631 -0.3055
 1097TIP3    H224783   0.101   4.712  14.500  0.8086 -0.7752  0.4100
 1098TIP3   OH224784   4.131   4.976  10.907  0.7037  1.0107  0.2761
 1098TIP3    H124785   4.129   4.928  10.825  1.6048 -1.5786  1.6359
 1098TIP3    H224786   4.215   5.022  10.907  0.3293  1.7077 -0.5804
 1099TIP3   OH224787   1.753   5.050  12.140  0.5363  0.0166 -0.1829
 1099TIP3    H124788   1.846   5.067  12.147  0.3517  1.1014 -0.1757
 1099TIP3    H224789   1.739   5.030  12.047  1.0208 -1.8596  0.1076
 1100TIP3   OH224790   4.977   6.255  11.786  0.0745 -0.0756  0.0246
 1100TIP3    H124791   4.974   6.307  11.867 -0.8234 -1.4142  0.8947
 1100TIP3    H224792   4.908   6.190  11.797 -1.2599  0.7634 -2.6099
 1101TIP3   OH224793   1.410   2.603   2.564  0.5703 -0.6421 -0.1678
 1101TIP3    H124794   1.330   2.634   2.522  1.7512 -0.1810 -2.1942
 1101TIP3    H224795   1.481   2.646   2.517  2.0253  0.2329  2.6251
 1102TIP3   OH224796   3.118   0.206  15.725  0.2317  0.0953  0.3461
 1102TIP3    H124797   3.030   0.237  15.747 -1.1012 -2.2109 -1.3508
 1102TIP3    H224798   3.144   0.153  15.801  1.2453  2.6290  1.8921
 1103TIP3   OH224799   1.882   3.719   4.282 -0.8119 -0.4328  0.0881
 1103TIP3    H124800   1.859   3.627   4.274 -1.0696 -0.3319 -0.4048
 1103TIP3    H224801   1.928   3.739   4.200  1.5447 -0.7608  1.2457
 1104TIP3   OH224802   1.786   0.080  13.466  0.5518  0.2488 -0.0419
 1104TIP3    H124803   1.731   0.008  13.436 -1.4162  2.2082 -1.4011
 1104TIP3    H224804   1.725   0.141  13.507  1.6400  2.5446 -1.6638
 1105TIP3   OH224805   1.718   0.785  13.559 -0.0355 -0.5190  0.3586
 1105TIP3    H124806   1.699   0.760  13.649 -1.6494  2.4550  0.9853
 1105TIP3    H224807   1.771   0.864  13.567 -0.2280 -0.1956 -1.2856
 1106TIP3   OH224808   1.741   3.390  12.054 -0.0620  0.2014 -0.5752
 1106TIP3    H124809   1.706   3.338  12.126  0.0117 -1.9394 -2.0126
 1106TIP3    H224810   1.714   3.480  12.075 -2.4957 -0.7235  0.6872
 1107TIP3   OH224811   6.645   4.833   3.632  0.3219  0.0784 -0.1059
 1107TIP3    H124812   6.560   4.794   3.612  0.2585 -0.0702  0.4571
 1107TIP3    H224813   6.691   4.768   3.684  0.6495  0.2990 -0.1124
 1108TIP3   OH224814   0.003   6.430  13.942 -0.5084 -0.8732 -0.5264
 1108TIP3    H124815   0.060   6.369  13.989  0.0965  0.2733  0.2546
 1108TIP3    H224816  -0.085   6.411  13.975 -0.2257 -0.7889  0.2841
 1109TIP3   OH224817   0.790   4.373   4.288 -0.5481 -0.7022 -0.5285
 1109TIP3    H124818   0.830   4.319   4.220 -0.7790 -1.3241 -0.1809
 1109TIP3    H224819   0.696   4.362   4.276 -0.6559  0.9737 -1.5172
 1110TIP3   OH224820   5.847   6.823  11.762 -0.0076 -0.0485 -0.0970
 1110TIP3    H124821   5.851   6.768  11.840  1.4413  0.1561 -0.0019
 1110TIP3    H224822   5.928   6.875  11.765  0.3912 -0.4843 -2.0529
 1111TIP3   OH224823   3.918   6.069  15.535 -0.0583 -0.3850 -0.4653
 1111TIP3    H124824   3.852   6.138  15.528 -0.0406 -0.5138 -2.5189
 1111TIP3    H224825   3.967   6.091  15.614 -1.7791  0.4000  0.4286
 1112TIP3   OH224826   3.606   2.765  10.421 -0.1265  0.0910  0.0738
 1112TIP3    H124827   3.543   2.729  10.484  0.3326  0.5706  0.8227
 1112TIP3    H224828   3.692   2.741  10.456  0.1380  0.4749 -0.3036
 1113TIP3   OH224829   2.567   4.787   2.081  0.0645 -0.6679  0.0402
 1113TIP3    H124830   2.491   4.738   2.051  0.9118 -1.6611 -0.5467
 1113TIP3    H224831   2.569   4.864   2.023 -2.3013  1.1082  2.1132
 1114TIP3   OH224832   1.598   4.799  12.187  0.5529 -0.0043 -1.0142
 1114TIP3    H124833   1.605   4.889  12.155 -0.1427  0.6965  0.7043
 1114TIP3    H224834   1.515   4.797  12.235  0.7522 -1.4582 -0.6846
 1115TIP3   OH224835   3.759   5.710  14.253 -0.3987  1.1175 -0.5971
 1115TIP3    H124836   3.756   5.766  14.331 -0.6025 -0.0630  0.2813
 1115TIP3    H224837   3.847   5.674  14.252 -1.2724 -1.3757  1.0035
 1116TIP3   OH224838   4.771   6.326   5.574 -0.4707  0.4928 -0.1011
 1116TIP3    H124839   4.836   6.395   5.557 -0.2872  0.7846  1.5806
 1116TIP3    H224840   4.742   6.299   5.487  0.8982  1.3122 -0.8625
 1117TIP3   OH224841   1.312   6.564   1.877  0.0225 -0.2320 -0.4082
 1117TIP3    H124842   1.251   6.625   1.919  0.3684  0.7955 -1.3316
 1117TIP3    H224843   1.399   6.599   1.898  0.2109 -0.0560 -1.4137
 1118TIP3   OH224844   4.948   0.534  16.454 -0.3009 -0.2245  0.2460
 1118TIP3    H124845   4.972   0.464  16.515  1.2853  1.4907  1.7223
 1118TIP3    H224846   4.887   0.589  16.502  1.5437  1.5695  0.6684
 1119TIP3   OH224847   4.674   1.076  16.495 -0.2401  0.0585  0.1052
 1119TIP3    H124848   4.654   1.144  16.431  1.6033 -0.5463 -1.1892
 1119TIP3    H224849   4.605   1.010  16.482 -2.5123  1.8929  1.9020
 1120TIP3   OH224850   5.326   6.019   2.699 -0.5811  0.4026  0.0239
 1120TIP3    H124851   5.266   6.087   2.669  0.2262  0.4321 -1.6387
 1120TIP3    H224852   5.342   5.966   2.621 -0.2579 -0.9890  1.0062
 1121TIP3   OH224853   6.670   2.412  13.063  0.0918  0.1452  0.0208
 1121TIP3    H124854   6.701   2.471  13.131 -1.1796 -0.6906  1.3862
 1121TIP3    H224855   6.620   2.468  13.004 -1.4058  0.4320  1.4967
 1122TIP3   OH224856   3.948   4.752   3.703  0.2602  0.3743 -0.2022
 1122TIP3    H124857   3.953   4.690   3.776  1.3277 -0.7694 -1.2074
 1122TIP3    H224858   4.003   4.826   3.731  0.0592  0.2867  0.4467
 1123TIP3   OH224859   3.390   4.068   2.757  0.5589  0.3131 -0.5253
 1123TIP3    H124860   3.472   4.021   2.772  0.8913  1.2217  0.6101
 1123TIP3    H224861   3.321   4.004   2.777  0.9924  0.5716  2.1809
 1124TIP3   OH224862   5.594   4.847   6.746  0.4661  0.6163 -0.3794
 1124TIP3    H124863   5.574   4.932   6.706 -0.3283 -0.4531 -2.4120
 1124TIP3    H224864   5.509   4.814   6.774  0.1211 -1.1110 -3.1157
 1125TIP3   OH224865   2.582   1.006   4.046 -0.3996  0.1269 -0.2545
 1125TIP3    H124866   2.578   1.102   4.047  0.6889  0.1855 -0.5175
 1125TIP3    H224867   2.637   0.983   4.121 -0.0420 -0.2451 -0.6232
 1126TIP3   OH224868   1.515   3.005   4.705  0.7073  0.2096 -0.4049
 1126TIP3    H124869   1.535   3.040   4.792 -0.1062  1.3701 -0.6682
 1126TIP3    H224870   1.433   2.957   4.716 -0.2745  1.7059 -0.8160
 1127TIP3   OH224871   2.513   2.328   2.336  0.3233  0.5948  0.2092
 1127TIP3    H124872   2.422   2.359   2.346 -0.0220 -0.4283  0.3547
 1127TIP3    H224873   2.563   2.407   2.319 -0.3593  1.3868  1.6837
 1128TIP3   OH224874   2.549   1.397   0.136  0.0426 -0.3070 -0.7540
 1128TIP3    H124875   2.531   1.487   0.166 -2.2079 -0.7228 -0.6642
 1128TIP3    H224876   2.569   1.407   0.043 -1.2990  0.2394 -1.0206
 1129TIP3   OH224877   2.317   3.183   3.577 -0.1464  0.0232 -0.7535
 1129TIP3    H124878   2.231   3.142   3.570 -0.9084  1.3985  0.0546
 1129TIP3    H224879   2.379   3.116   3.548 -1.1643 -2.1999  1.8940
 1130TIP3   OH224880   4.833   6.452  16.109 -0.2908  0.1025  0.0451
 1130TIP3    H124881   4.801   6.428  16.196  0.4149  0.7536  0.5002
 1130TIP3    H224882   4.893   6.525  16.125 -0.9130  0.9025 -1.0878
 1131TIP3   OH224883   6.222   5.199   1.461 -0.3263 -0.2572 -0.0643
 1131TIP3    H124884   6.229   5.106   1.440  1.7591 -0.4997  1.4009
 1131TIP3    H224885   6.206   5.201   1.556  0.0941  0.8723 -0.0034
 1132TIP3   OH224886   0.605   2.457  16.455 -0.0586  0.4625  0.1539
 1132TIP3    H124887   0.528   2.450  16.398 -1.2059  2.0579  1.4152
 1132TIP3    H224888   0.678   2.471  16.396 -0.9731  0.4332 -1.0141
 1133TIP3   OH224889   6.216   5.590  13.806  0.0348 -0.1920 -0.6389
 1133TIP3    H124890   6.250   5.677  13.785  1.9264 -0.7014  0.1348
 1133TIP3    H224891   6.242   5.535  13.733 -0.8355 -0.2101 -0.9487
 1134TIP3   OH224892   1.477   3.468  13.265 -0.7993  0.2160  0.0666
 1134TIP3    H124893   1.509   3.483  13.354 -0.2677  2.0958 -0.4062
 1134TIP3    H224894   1.408   3.402  13.275 -2.4679  2.1542  2.2231
 1135TIP3   OH224895   3.385   2.144   6.226 -0.2581 -0.6390 -0.6115
 1135TIP3    H124896   3.477   2.119   6.221  0.1342  0.4461  0.6341
 1135TIP3    H224897   3.352   2.099   6.304  0.2878  1.9856  1.2710
 1136TIP3   OH224898   2.993   2.701   1.451  0.1904  0.2540  0.0420
 1136TIP3    H124899   2.917   2.733   1.402 -1.5134 -0.9340  1.7743
 1136TIP3    H224900   3.012   2.616   1.413 -0.0636  0.0664  0.3307
 1137TIP3   OH224901   4.426   5.630  13.851 -0.0036 -0.5341  0.0009
 1137TIP3    H124902   4.436   5.643  13.756  0.7753  3.2542  0.4460
 1137TIP3    H224903   4.466   5.707  13.890 -0.7339 -1.7318  3.4596
 1138TIP3   OH224904   2.425   5.962   0.272 -0.0512  0.1332  0.4118
 1138TIP3    H124905   2.437   5.915   0.355 -0.5882  0.4275  0.6605
 1138TIP3    H224906   2.381   5.898   0.215 -0.5134  0.2255  0.6549
 1139TIP3   OH224907   1.270   0.724  16.176 -0.6828  0.0901 -0.8919
 1139TIP3    H124908   1.238   0.753  16.091  0.5948  1.0538 -1.0734
 1139TIP3    H224909   1.318   0.644  16.158  0.5856  0.9102 -1.2954
 1140TIP3   OH224910   1.162   5.294  12.070  0.5924 -0.0482 -0.1195
 1140TIP3    H124911   1.189   5.237  11.998 -0.7513 -0.4872 -0.2886
 1140TIP3    H224912   1.214   5.374  12.057  1.0630 -0.4834 -1.0124
 1141TIP3   OH224913   6.796   5.120   4.084 -0.3203  0.4012  0.1154
 1141TIP3    H124914   6.793   5.180   4.159  0.4650  0.6890 -0.0742
 1141TIP3    H224915   6.889   5.103   4.071 -0.4785  0.0158 -0.5346
 1142TIP3   OH224916   1.598   6.540  15.183  0.1855 -0.5194 -0.2363
 1142TIP3    H124917   1.561   6.544  15.095 -2.8892 -0.2557  0.9637
 1142TIP3    H224918   1.590   6.629  15.217 -0.8420 -1.0669  1.0740
 1143TIP3   OH224919   5.254   5.766  14.001 -0.0569 -0.3032  0.0690
 1143TIP3    H124920   5.230   5.770  13.908 -1.1203 -0.0213  0.3416
 1143TIP3    H224921   5.251   5.857  14.031  0.5911 -0.3577  0.3055
 1144TIP3   OH224922   1.602   4.663   2.481 -1.0244 -0.2174  0.1176
 1144TIP3    H124923   1.598   4.737   2.541  0.8843 -0.5572  0.7298
 1144TIP3    H224924   1.641   4.698   2.402  0.2086 -0.5987  0.5305
 1145TIP3   OH224925   0.586   3.493   2.658  0.2348  0.4135 -0.0965
 1145TIP3    H124926   0.596   3.441   2.738  0.0274  2.6034  1.4345
 1145TIP3    H224927   0.671   3.535   2.646 -0.3679  1.7855  0.2569
 1146TIP3   OH224928   2.600   5.529  11.759  0.5289 -0.8312  0.3138
 1146TIP3    H124929   2.572   5.475  11.685  0.1420  0.5568 -0.5968
 1146TIP3    H224930   2.571   5.481  11.836 -2.0478 -0.7600 -0.5250
 1147TIP3   OH224931   2.675   2.132   0.325 -0.0405  0.0306  0.1789
 1147TIP3    H124932   2.610   2.120   0.394 -0.2630 -0.5698 -0.1310
 1147TIP3    H224933   2.624   2.143   0.245  0.2244 -1.2072 -0.1866
 1148TIP3   OH224934   6.293   6.628  11.607 -0.4700  0.3634  0.1413
 1148TIP3    H124935   6.234   6.606  11.679  0.5990 -0.5353  0.7705
 1148TIP3    H224936   6.286   6.554  11.546  0.2710  0.0808  0.3939
 1149TIP3   OH224937   3.942   2.796  11.463  0.2542  0.2699  0.8386
 1149TIP3    H124938   4.019   2.740  11.452 -0.5210 -0.6121 -0.4131
 1149TIP3    H224939   3.976   2.886  11.459  1.3147 -0.1051  1.2415
 1150TIP3   OH224940   3.893   2.797   0.433  0.0997  0.6184 -0.3474
 1150TIP3    H124941   3.911   2.736   0.361  0.1989  0.6068 -0.3123
 1150TIP3    H224942   3.829   2.859   0.396 -0.6375  0.0043 -0.1324
 1151TIP3   OH224943   5.070   0.388  14.800 -0.0169 -0.2475  0.2022
 1151TIP3    H124944   5.068   0.451  14.728  1.0913 -0.6178 -0.1667
 1151TIP3    H224945   4.989   0.338  14.790 -1.1358  1.3447  0.7451
 1152TIP3   OH224946   0.818   0.081   2.654  0.0645  0.3135  0.2130
 1152TIP3    H124947   0.826   0.018   2.725 -1.2327 -0.2700 -0.1419
 1152TIP3    H224948   0.733   0.122   2.667 -1.4028 -1.6227 -2.3971
 1153TIP3   OH224949   5.277   0.896   3.770 -0.1521  0.7193 -0.1338
 1153TIP3    H124950   5.208   0.959   3.749  1.1465  2.0962 -0.4626
 1153TIP3    H224951   5.241   0.844   3.842 -1.6348  1.1836 -0.4913
 1154TIP3   OH224952   0.537   1.661  12.000  0.5200  0.1431  0.2147
 1154TIP3    H124953   0.546   1.578  11.953 -0.9507  1.1733 -2.0618
 1154TIP3    H224954   0.443   1.681  11.997  0.6323  1.1763  2.0492
 1155TIP3   OH224955   4.588   4.157   3.229  0.6923 -0.0738 -0.4446
 1155TIP3    H124956   4.676   4.170   3.194  0.8782 -0.8867 -0.2917
 1155TIP3    H224957   4.540   4.113   3.159  0.9506 -1.3373  0.1392
 1156TIP3   OH224958   1.112   5.641   0.064  0.5572 -0.6435 -0.6776
 1156TIP3    H124959   1.189   5.658   0.119 -0.7516 -1.3009  1.5065
 1156TIP3    H224960   1.131   5.558   0.022  1.1968 -0.6276 -0.4325
 1157TIP3   OH224961   2.857   0.178   5.607  0.1380 -0.1597 -0.1346
 1157TIP3    H124962   2.836   0.148   5.695 -0.1407  1.0000  0.2157
 1157TIP3    H224963   2.772   0.184   5.563  0.2584 -0.5532 -0.4279
 1158TIP3   OH224964   4.507   0.015  11.031  0.2151 -0.0180  0.1898
 1158TIP3    H124965   4.588   0.060  11.055  2.7740 -2.7519 -2.3151
 1158TIP3    H224966   4.477   0.060  10.952 -0.8202  1.0512  1.1684
 1159TIP3   OH224967   0.424   5.322  12.965 -0.0826  0.2106  0.5878
 1159TIP3    H124968   0.445   5.370  13.045 -0.0069  0.5859  0.3495
 1159TIP3    H224969   0.366   5.252  12.992 -2.1741  1.8689  0.6089
 1160TIP3   OH224970   1.153   4.412  12.856 -0.3603 -0.1940 -0.1397
 1160TIP3    H124971   1.126   4.501  12.877  1.6115  0.9218 -1.9772
 1160TIP3    H224972   1.248   4.417  12.846 -0.3386 -2.2125 -1.6052
 1161TIP3   OH224973   4.467   3.087   1.924 -0.1982 -0.1144  0.1593
 1161TIP3    H124974   4.549   3.043   1.901 -0.9874 -1.0609 -0.9069
 1161TIP3    H224975   4.409   3.017   1.952 -0.3621  0.6620  1.8465
 1162TIP3   OH224976   4.883   1.377   4.591 -0.3357 -0.1392 -0.5819
 1162TIP3    H124977   4.898   1.468   4.569  0.6308 -0.5494 -1.7341
 1162TIP3    H224978   4.875   1.376   4.687  3.2106  0.7431 -0.1379
 1163TIP3   OH224979   3.690   4.154   4.500 -0.2462  0.4555  0.6332
 1163TIP3    H124980   3.682   4.228   4.440 -2.2546  0.9608  1.4470
 1163TIP3    H224981   3.724   4.192   4.581  0.3015  0.1801  0.5364
 1164TIP3   OH224982   0.223   4.611   4.870 -0.3771  0.4789  0.3558
 1164TIP3    H124983   0.263   4.526   4.883 -1.1050 -0.3629 -2.2178
 1164TIP3    H224984   0.178   4.604   4.785  1.0200  3.9343 -0.8788
 1165TIP3   OH224985   2.484   6.040   3.476  0.2752  0.2842 -0.2736
 1165TIP3    H124986   2.460   5.952   3.447 -0.3645  0.1861  0.4820
 1165TIP3    H224987   2.535   6.077   3.405 -1.1478  0.0331 -1.4799
 1166TIP3   OH224988   2.915   2.039  11.880  0.7249  0.2606  0.2219
 1166TIP3    H124989   2.956   1.982  11.944  2.5483  1.2527  0.0228
 1166TIP3    H224990   2.974   2.036  11.804 -0.6147  0.2345 -0.8558
 1167TIP3   OH224991   5.459   0.022   4.797  0.1072 -0.4074 -0.1398
 1167TIP3    H124992   5.370   0.045   4.824  0.0188 -0.8904 -0.0120
 1167TIP3    H224993   5.510   0.102   4.810 -0.4656  0.1072 -0.9402
 1168TIP3   OH224994   4.817   2.081  11.783  0.0672  0.1952 -0.2694
 1168TIP3    H124995   4.866   2.067  11.702 -0.5992 -2.0849 -0.3648
 1168TIP3    H224996   4.860   2.024  11.847 -1.6752 -0.9620 -0.0616
 1169TIP3   OH224997   6.283   1.322  15.042 -0.2243 -0.0871  0.2403
 1169TIP3    H124998   6.345   1.394  15.053  2.1209 -1.7362 -1.1861
 1169TIP3    H224999   6.338   1.244  15.032 -2.6025 -1.9173  0.4595
 1170TIP3   OH225000   6.041   1.100  16.950  0.6303  0.6974 -0.4364
 1170TIP3    H125001   5.982   1.107  16.875 -1.0269 -1.0353  0.6151
 1170TIP3    H225002   5.983   1.098  17.026  2.2387  2.0481  0.9288
 1171TIP3   OH225003   2.452   3.027  15.847  0.4587  1.0195  0.3053
 1171TIP3    H125004   2.406   2.982  15.918  0.8214  1.4988  0.8520
 1171TIP3    H225005   2.544   3.000  15.856  0.5089  1.0870  0.0185
 1172TIP3   OH225006   5.824   3.109  11.236 -0.2755  0.0920 -1.2402
 1172TIP3    H125007   5.872   3.186  11.267 -0.1634  0.7491 -2.9251
 1172TIP3    H225008   5.735   3.142  11.220 -0.2077 -0.0838 -2.0345
 1173TIP3   OH225009   0.823   4.186  13.403  0.0809  0.1665 -0.5132
 1173TIP3    H125010   0.893   4.129  13.371 -0.0796 -0.1636 -0.2801
 1173TIP3    H225011   0.743   4.149  13.366 -0.0306  0.2057 -0.3125
 1174TIP3   OH225012   5.921   0.807  14.722 -1.0425  0.4283  0.5441
 1174TIP3    H125013   5.982   0.765  14.661 -1.1163  0.0667  0.7148
 1174TIP3    H225014   5.834   0.788  14.686 -1.0945  0.0269  0.8796
 1175TIP3   OH225015   0.452   5.950   1.059 -0.1618  0.1425  0.1948
 1175TIP3    H125016   0.413   5.987   0.980  2.3404 -2.0947 -2.3193
 1175TIP3    H225017   0.403   5.870   1.075  0.0699 -0.0090  0.1595
 1176TIP3   OH225018   0.901   5.512   2.455  0.3049  0.0264 -0.4594
 1176TIP3    H125019   0.971   5.477   2.398  0.7810 -0.1404  0.2191
 1176TIP3    H225020   0.947   5.565   2.519 -0.3771  1.5456 -1.1874
 1177TIP3   OH225021   0.816   5.736  13.172 -0.2699 -0.1646  0.2698
 1177TIP3    H125022   0.863   5.753  13.253  0.9012  0.9593 -0.5886
 1177TIP3    H225023   0.881   5.696  13.114 -0.4843  0.9212 -0.7664
 1178TIP3   OH225024   5.046   5.757   5.680  0.2760 -0.2289 -0.4172
 1178TIP3    H125025   5.078   5.673   5.645  0.6571 -0.7135  1.0135
 1178TIP3    H225026   4.978   5.784   5.618  1.6397 -0.4760 -2.1193
 1179TIP3   OH225027   0.588   2.007  15.433 -0.3328 -0.3397  0.5988
 1179TIP3    H125028   0.567   2.011  15.340  0.6437 -0.2096  0.3751
 1179TIP3    H225029   0.513   1.961  15.472 -0.4822 -0.9206 -0.3287
 1180TIP3   OH225030   1.339   3.472   6.269  0.0595  0.4906 -0.1849
 1180TIP3    H125031   1.350   3.513   6.355 -1.4913 -0.0539  0.3058
 1180TIP3    H225032   1.246   3.450   6.265  0.7382 -2.7628 -0.5173
 1181TIP3   OH225033   3.985   3.481  13.334  0.0018 -0.0914 -0.3226
 1181TIP3    H125034   4.026   3.399  13.305  1.2261  0.8965 -1.5225
 1181TIP3    H225035   4.030   3.502  13.416  0.1407 -0.2847 -0.3483
 1182TIP3   OH225036   1.361   3.764   0.223 -0.8123 -0.5703  0.0297
 1182TIP3    H125037   1.282   3.816   0.211 -0.5930 -0.4693 -1.0779
 1182TIP3    H225038   1.370   3.715   0.141  0.3750 -0.4361  0.0646
 1183TIP3   OH225039   6.104   0.076  15.744 -0.0756  0.2926 -0.0989
 1183TIP3    H125040   6.179   0.045  15.693  0.1208  1.0254 -0.2680
 1183TIP3    H225041   6.138   0.085  15.833 -0.2301 -0.3060  0.0276
 1184TIP3   OH225042   2.644   1.191   3.303 -0.1963  0.4709  0.4810
 1184TIP3    H125043   2.641   1.133   3.379  2.1433 -0.4100 -0.0391
 1184TIP3    H225044   2.657   1.278   3.340  2.5488 -0.1249  1.1472
 1185TIP3   OH225045   2.928   1.625   2.248  0.4448 -0.0796  0.1319
 1185TIP3    H125046   2.954   1.660   2.333 -0.5663 -2.1531  1.3465
 1185TIP3    H225047   2.951   1.532   2.251 -0.9457 -0.5228 -1.2966
 1186TIP3   OH225048   1.396   3.729  16.567  0.0578 -0.4006 -0.3584
 1186TIP3    H125049   1.332   3.790  16.533 -0.6782 -0.7587  0.3509
 1186TIP3    H225050   1.376   3.646  16.523  0.8832 -0.2033 -1.1233
 1187TIP3   OH225051   0.787   4.250  13.088 -0.1523  0.1006 -0.5358
 1187TIP3    H125052   0.713   4.229  13.145 -0.3736  0.6191 -0.6245
 1187TIP3    H225053   0.759   4.329  13.040 -0.3542 -0.8562 -2.0654
 1188TIP3   OH225054   0.712   2.575  12.600  0.1336  0.1098  0.6684
 1188TIP3    H125055   0.633   2.554  12.651 -0.4485 -1.0639 -0.6626
 1188TIP3    H225056   0.704   2.669  12.583 -0.5609  0.1687  1.2373
 1189TIP3   OH225057   3.999   2.895  12.775 -0.0421  0.2324 -0.2129
 1189TIP3    H125058   4.048   2.967  12.815 -0.2879 -0.0198  0.5692
 1189TIP3    H225059   3.946   2.861  12.847  1.1350 -1.6624 -0.1874
 1190TIP3   OH225060   1.734   4.291  11.758 -0.1908 -0.2246 -0.2894
 1190TIP3    H125061   1.689   4.309  11.841 -0.4917 -0.6326 -0.3595
 1190TIP3    H225062   1.668   4.246  11.705 -0.1421  0.4236 -0.9183
 1191TIP3   OH225063   1.696   6.668  11.592  0.1456  0.7337 -0.0260
 1191TIP3    H125064   1.706   6.739  11.530  0.2407  0.1973 -0.6349
 1191TIP3    H225065   1.774   6.614  11.581 -0.3338  0.0544 -0.2087
 1192TIP3   OH225066   2.895   6.258  16.607 -1.0939 -0.6898  0.0067
 1192TIP3    H125067   2.854   6.310  16.676 -1.0378 -0.7542  0.0882
 1192TIP3    H225068   2.831   6.188  16.589 -0.7249 -1.1869  0.6060
 1193TIP3   OH225069   4.794   5.290   3.415 -0.2478 -0.2960  0.2553
 1193TIP3    H125070   4.781   5.318   3.324 -0.7157 -0.4563  0.2703
 1193TIP3    H225071   4.810   5.372   3.462  0.3679 -0.2461 -0.0264
 1194TIP3   OH225072   0.005   3.335   4.225 -0.0976  0.0957 -0.0321
 1194TIP3    H125073  -0.005   3.349   4.131 -1.6825  0.1293  0.0986
 1194TIP3    H225074  -0.012   3.241   4.237  0.4393  0.0242  0.1911
 1195TIP3   OH225075   1.338   5.395  16.904 -0.3079 -0.1661 -0.2930
 1195TIP3    H125076   1.295   5.316  16.870  0.4219  0.4273 -2.8210
 1195TIP3    H225077   1.416   5.363  16.948 -0.8076 -0.9364  0.0599
 1196TIP3   OH225078   1.542   2.729  12.144 -0.3003 -0.1536  0.1879
 1196TIP3    H125079   1.470   2.725  12.208  0.4429 -1.8573  0.9841
 1196TIP3    H225080   1.609   2.781  12.188 -0.4340  0.1169  0.0778
 1197TIP3   OH225081   2.733   0.512  13.321 -0.1430  0.1246 -0.1378
 1197TIP3    H125082   2.663   0.562  13.278 -0.8345  0.6864  1.5452
 1197TIP3    H225083   2.689   0.436  13.357  0.5813 -0.7797 -1.1223
 1198TIP3   OH225084   0.337   6.468  14.170 -0.4090 -0.4621 -0.3243
 1198TIP3    H125085   0.368   6.514  14.092  0.2769  0.4195  0.4474
 1198TIP3    H225086   0.296   6.536  14.224 -0.5758 -0.9963  0.2360
 1199TIP3   OH225087   4.702   5.063  16.297 -0.2446 -0.5848  0.2603
 1199TIP3    H125088   4.696   5.025  16.210  0.8532  0.4492 -0.3066
 1199TIP3    H225089   4.782   5.027  16.334  0.0432  0.0389  0.2710
 1200TIP3   OH225090   2.186   6.358  11.604  0.2451 -0.7235  0.1322
 1200TIP3    H125091   2.227   6.285  11.560 -1.0292 -2.6735  1.9581
 1200TIP3    H225092   2.161   6.324  11.690  0.0215  2.0066  1.2670
 1201TIP3   OH225093   2.546   6.204  16.277  0.2402  0.2464  0.0876
 1201TIP3    H125094   2.558   6.188  16.183  1.7314 -2.7600  0.6900
 1201TIP3    H225095   2.473   6.149  16.302  0.1898  0.6253  0.8038
 1202TIP3   OH225096   4.705   5.114  11.477  0.3747  0.1157 -0.3336
 1202TIP3    H125097   4.776   5.178  11.490  0.6487 -0.2985  0.2439
 1202TIP3    H225098   4.727   5.071  11.394 -0.2932  1.3779 -1.1988
 1203TIP3   OH225099   4.089   3.986   2.461 -0.4409 -0.2467  0.7534
 1203TIP3    H125100   4.168   4.040   2.452 -0.7078 -0.2221 -2.4882
 1203TIP3    H225101   4.020   4.048   2.483 -0.3620  0.4991 -0.9584
 1204TIP3   OH225102   1.880   4.277  15.129  0.4557  0.0174  0.1331
 1204TIP3    H125103   1.957   4.275  15.186  1.4057 -1.1814 -1.1023
 1204TIP3    H225104   1.808   4.299  15.187  1.5056 -0.2528  1.6200
 1205TIP3   OH225105   2.793   0.006   4.693  0.4433  0.3900  0.1711
 1205TIP3    H125106   2.846   0.081   4.720 -0.5647  0.8460  0.9554
 1205TIP3    H225107   2.836  -0.069   4.734  0.9774  0.6312  0.0698
 1206TIP3   OH225108   4.653   2.077   3.542  0.2405  0.6445 -0.6213
 1206TIP3    H125109   4.739   2.035   3.535 -0.4781 -0.8777 -0.6276
 1206TIP3    H225110   4.633   2.076   3.636 -0.1821  0.1205 -0.7134
 1207TIP3   OH225111   2.017   3.113   2.201 -0.0413 -0.1893  1.0647
 1207TIP3    H125112   1.994   3.030   2.159 -0.2834  1.0548 -1.4815
 1207TIP3    H225113   2.097   3.141   2.155 -0.1748  1.1482  1.6059
 1208TIP3   OH225114   5.531   4.666   0.173 -0.0036  0.1822  0.8545
 1208TIP3    H125115   5.465   4.648   0.239  1.8030 -1.0780  2.4208
 1208TIP3    H225116   5.613   4.634   0.211  1.7523  2.7007 -0.5002
 1209TIP3   OH225117   1.176   6.800   4.448 -0.5338 -0.0528  0.7894
 1209TIP3    H125118   1.195   6.893   4.434  2.0574 -0.7205 -0.6277
 1209TIP3    H225119   1.136   6.771   4.366  0.8306 -0.6589  0.3096
 1210TIP3   OH225120   3.797   3.588  11.480 -0.4540  0.1222  0.3364
 1210TIP3    H125121   3.851   3.545  11.547  0.9641  0.3429 -0.6010
 1210TIP3    H225122   3.738   3.519  11.449  0.2381 -0.5418  0.4410
 1211TIP3   OH225123   2.215   5.122  13.807 -0.1152 -0.2319  0.1669
 1211TIP3    H125124   2.167   5.198  13.840  1.1176  1.3753 -1.4649
 1211TIP3    H225125   2.281   5.104  13.874  0.8244  1.4463 -0.2292
 1212TIP3   OH225126   2.145   0.845  12.457 -0.1476 -0.6457 -0.1224
 1212TIP3    H125127   2.077   0.884  12.513  0.2269  1.7365 -1.1932
 1212TIP3    H225128   2.098   0.785  12.400 -1.4037  0.8493 -0.7418
 1213TIP3   OH225129   5.305   4.177   2.924 -0.2244 -0.1660 -0.2398
 1213TIP3    H125130   5.398   4.195   2.909 -0.3355  0.0111 -0.7631
 1213TIP3    H225131   5.261   4.218   2.850 -0.7582  0.0981  0.2178
 1214TIP3   OH225132   1.561   3.444  14.153 -0.0534  0.3878  0.3527
 1214TIP3    H125133   1.605   3.445  14.237 -0.2893  2.1881  0.4926
 1214TIP3    H225134   1.588   3.526  14.111 -1.6337  0.5541 -0.4001
 1215TIP3   OH225135   0.640   5.500   2.467 -0.1271 -0.2861  0.3604
 1215TIP3    H125136   0.618   5.501   2.561 -0.6369  0.4008  0.2465
 1215TIP3    H225137   0.734   5.520   2.465 -0.1514 -0.1130  0.7198
 1216TIP3   OH225138   2.895   5.121  16.156 -0.2384 -0.0447 -0.1123
 1216TIP3    H125139   2.987   5.092  16.155 -1.0567 -2.9458 -0.5103
 1216TIP3    H225140   2.862   5.090  16.241 -0.7856  1.3836  0.2227
 1217TIP3   OH225141   1.721   5.982  16.215  0.3266  0.4064 -0.0054
 1217TIP3    H125142   1.742   6.072  16.192 -1.4798  1.6505  2.6619
 1217TIP3    H225143   1.799   5.949  16.259  0.6252  1.0374 -0.0496
 1218TIP3   OH225144   5.791   6.083  13.024  0.0689  0.1786  0.0495
 1218TIP3    H125145   5.824   6.096  13.114 -1.8742  0.9379  0.7078
 1218TIP3    H225146   5.788   6.171  12.987  1.4287 -0.1916 -1.0142
 1219TIP3   OH225147   4.538   1.713   2.088 -0.4857 -0.4704  0.1723
 1219TIP3    H125148   4.630   1.697   2.107  0.0312  1.0301 -0.9125
 1219TIP3    H225149   4.503   1.753   2.168  0.1758  0.2726  0.0992
 1220TIP3   OH225150   5.426   1.853   1.786 -0.6410 -0.0519 -0.1148
 1220TIP3    H125151   5.454   1.767   1.817 -0.4781 -0.4283 -1.2349
 1220TIP3    H225152   5.369   1.886   1.855 -0.9155 -1.1747  0.2248
 1221TIP3   OH225153   5.321   1.254   4.864 -0.1562  0.2391 -0.6408
 1221TIP3    H125154   5.379   1.298   4.803  3.3428  1.1570  2.9168
 1221TIP3    H225155   5.265   1.324   4.898 -0.2651  0.2513 -0.8406
 1222TIP3   OH225156   0.288   1.294  16.213 -0.5665  0.1712  0.1353
 1222TIP3    H125157   0.261   1.358  16.147  0.0729  0.6296  0.3091
 1222TIP3    H225158   0.368   1.331  16.251 -0.6612 -0.3214  0.8319
 1223TIP3   OH225159   5.903   2.463   5.776  0.0825  0.4292  0.4532
 1223TIP3    H125160   5.860   2.470   5.861 -0.6524  3.2402 -0.0537
 1223TIP3    H225161   5.967   2.535   5.776  1.3306 -0.6220 -0.7291
 1224TIP3   OH225162   6.827   3.997   1.859 -0.1449  0.0732  0.3070
 1224TIP3    H125163   6.902   4.024   1.912 -1.0889  3.1985  0.2827
 1224TIP3    H225164   6.848   4.027   1.770 -1.9145  2.4317  0.5746
 1225TIP3   OH225165   3.268   1.739   2.301  0.4475  0.1110  0.0564
 1225TIP3    H125166   3.206   1.785   2.357  0.5594  0.2965  0.0283
 1225TIP3    H225167   3.257   1.780   2.215  1.3296  0.8509  0.2742
 1226TIP3   OH225168   1.386   3.250   5.093 -0.6026 -0.2738  0.3907
 1226TIP3    H125169   1.337   3.313   5.146 -1.8318 -1.5463  0.8251
 1226TIP3    H225170   1.326   3.176   5.083  0.1753 -0.6912 -1.5149
 1227TIP3   OH225171   6.151   5.441   5.859  0.0890 -0.2862  0.7115
 1227TIP3    H125172   6.066   5.399   5.843 -0.1484  0.9851 -1.8455
 1227TIP3    H225173   6.215   5.370   5.848 -0.4727 -0.6431 -0.3959
 1228TIP3   OH225174   1.839   6.546   2.364 -0.3809  0.1859  0.2082
 1228TIP3    H125175   1.865   6.463   2.404 -2.9845 -0.5691  0.5359
 1228TIP3    H225176   1.760   6.572   2.413 -0.9090  1.6831 -1.3591
 1229TIP3   OH225177   1.935   2.457  11.797 -0.6076  0.1637  0.5094
 1229TIP3    H125178   1.876   2.472  11.723 -0.9955 -1.7276  0.3790
 1229TIP3    H225179   1.878   2.457  11.874 -0.8434 -1.6938  0.3805
 1230TIP3   OH225180   3.120   1.956  11.400  0.6511 -0.0404 -0.5914
 1230TIP3    H125181   3.143   1.909  11.319  0.2862 -0.1821 -0.6131
 1230TIP3    H225182   3.080   2.037  11.369 -1.7066 -1.1230 -0.5952
 1231TIP3   OH225183   6.627   1.812   4.515 -0.0838  0.1437 -0.0845
 1231TIP3    H125184   6.659   1.889   4.468 -0.2497  0.4714  0.3353
 1231TIP3    H225185   6.704   1.774   4.556 -0.3392  1.5334  1.8081
 1232TIP3   OH225186   0.313   5.435  15.614  0.3200 -0.2347 -0.2674
 1232TIP3    H125187   0.351   5.356  15.573  0.9252 -0.4661  0.6971
 1232TIP3    H225188   0.220   5.429  15.596  0.4278 -0.9280 -0.6306
 1233TIP3   OH225189   2.125   1.841  15.783  0.2568 -0.1449  0.0520
 1233TIP3    H125190   2.214   1.868  15.807 -0.4022  1.5424  0.7459
 1233TIP3    H225191   2.085   1.919  15.745 -1.3060 -0.4959  0.8660
 1234TIP3   OH225192   5.364   6.176  11.848  0.3916 -0.3710 -0.0941
 1234TIP3    H125193   5.381   6.090  11.886  0.6955  0.3652  1.5000
 1234TIP3    H225194   5.304   6.218  11.910 -1.7751 -0.3019 -2.0659
 1235TIP3   OH225195   6.669   0.256  16.614  0.0342 -0.8220 -0.3837
 1235TIP3    H125196   6.652   0.175  16.567 -0.7439  0.2446 -2.0341
 1235TIP3    H225197   6.593   0.312  16.595  0.7106  0.4259  0.4061
 1236TIP3   OH225198   2.139   5.247  12.146  0.2485 -0.1706  0.2234
 1236TIP3    H125199   2.102   5.294  12.221 -2.6262 -0.7755 -0.6930
 1236TIP3    H225200   2.233   5.260  12.154 -0.1098  1.7067  2.6429
 1237TIP3   OH225201   2.661   1.946  15.460  0.1747 -0.0445  0.8028
 1237TIP3    H125202   2.651   1.881  15.390 -1.3254  1.3422 -0.3431
 1237TIP3    H225203   2.612   1.909  15.533  0.1241 -0.6460  0.4713
 1238TIP3   OH225204   2.479   2.258  14.551  0.3881 -0.4158 -0.2140
 1238TIP3    H125205   2.542   2.325  14.577  0.5803 -0.3880 -0.7237
 1238TIP3    H225206   2.532   2.180  14.534  0.0479 -1.0884  1.5657
 1239TIP3   OH225207   1.829   3.293  13.979  0.3668  0.2948  0.3293
 1239TIP3    H125208   1.751   3.244  13.952 -0.2859  0.7148  1.3824
 1239TIP3    H225209   1.882   3.298  13.900 -1.9464  2.4345 -1.2782
 1240TIP3   OH225210   5.278   4.652  11.925  0.4325  0.2089  0.1850
 1240TIP3    H125211   5.184   4.635  11.915  0.2986  0.3499  1.0915
 1240TIP3    H225212   5.297   4.625  12.015  0.9050  1.8026  0.5898
 1241TIP3   OH225213   2.768   3.700  15.125  0.0015  0.4279 -0.2526
 1241TIP3    H125214   2.817   3.632  15.079  1.8300  2.1577 -1.0518
 1241TIP3    H225215   2.688   3.711  15.075 -0.4389 -1.2478  0.0244
 1242TIP3   OH225216   6.613   3.648   4.770 -0.3333  0.5042 -0.5724
 1242TIP3    H125217   6.540   3.683   4.720 -0.5220  0.3216 -0.4244
 1242TIP3    H225218   6.614   3.554   4.750 -1.2701  0.1663  0.8393
 1243TIP3   OH225219   0.615   2.277  10.605  0.3028 -0.3252 -0.3856
 1243TIP3    H125220   0.595   2.360  10.561  1.1329  1.5416  2.4286
 1243TIP3    H225221   0.529   2.239  10.624 -0.0819 -0.4693 -2.2529
 1244TIP3   OH225222   4.774   5.829  13.364 -0.6749 -0.0899  0.1202
 1244TIP3    H125223   4.788   5.913  13.408 -2.7038  0.0180  0.6529
 1244TIP3    H225224   4.853   5.816  13.311  0.9127  0.8014  2.1520
 1245TIP3   OH225225   0.489   1.770   1.662 -0.6133 -0.2330 -0.2859
 1245TIP3    H125226   0.517   1.749   1.572 -2.2166  0.4721 -0.9897
 1245TIP3    H225227   0.414   1.829   1.650 -1.7593 -1.2474  1.4916
 1246TIP3   OH225228   4.291   6.799   0.446 -0.1049 -0.1305  0.3645
 1246TIP3    H125229   4.256   6.873   0.496  1.7339 -0.7827  2.8326
 1246TIP3    H225230   4.358   6.838   0.390 -0.8332  0.3604 -0.1865
 1247TIP3   OH225231   5.274   0.252   3.040 -0.1359  0.3748  0.2151
 1247TIP3    H125232   5.332   0.201   2.984  1.1820  1.3226  0.6787
 1247TIP3    H225233   5.197   0.270   2.985  0.9182  0.8817 -1.1412
 1248TIP3   OH225234   0.547   4.721   4.042 -0.5243  0.6371  0.2857
 1248TIP3    H125235   0.476   4.741   3.981 -0.6383  0.6252  0.4133
 1248TIP3    H225236   0.524   4.768   4.122 -0.8468 -0.0808  0.6238
 1249TIP3   OH225237   3.462   1.478   4.714 -0.2940  0.0460 -0.3331
 1249TIP3    H125238   3.456   1.502   4.807 -2.5125  1.5113 -0.7721
 1249TIP3    H225239   3.444   1.559   4.667 -0.6173 -0.9653 -2.0313
 1250TIP3   OH225240   4.101   5.852  16.403 -0.0943  0.4335 -0.4737
 1250TIP3    H125241   4.056   5.901  16.472  0.7002 -0.1366  0.4793
 1250TIP3    H225242   4.163   5.796  16.450 -0.1537 -0.6221 -1.6078
 1251TIP3   OH225243   3.409   3.251   3.644 -0.3186  0.0878  0.7732
 1251TIP3    H125244   3.393   3.165   3.683 -0.9493  0.4485  1.3173
 1251TIP3    H225245   3.431   3.232   3.553 -4.4851 -0.4826 -0.3144
 1252TIP3   OH225246   2.514   5.335  16.771 -0.4133 -0.0597  0.1130
 1252TIP3    H125247   2.437   5.314  16.718  0.8961 -0.6048 -1.6661
 1252TIP3    H225248   2.505   5.428  16.790 -1.7286 -0.2106  0.3182
 1253TIP3   OH225249   6.743   5.233  11.581  0.1080 -0.2336  0.2913
 1253TIP3    H125250   6.805   5.194  11.519 -0.4929  0.2692 -0.6530
 1253TIP3    H225251   6.692   5.159  11.614  0.8031 -0.5764  0.6251
 1254TIP3   OH225252   3.435   3.928   5.214  0.0948 -0.3838  0.2052
 1254TIP3    H125253   3.502   3.862   5.198 -0.2767 -0.4603 -1.1277
 1254TIP3    H225254   3.432   3.980   5.134 -2.1379 -1.0254 -0.2056
 1255TIP3   OH225255   6.564   1.756  16.595  0.3389  0.1681 -0.5400
 1255TIP3    H125256   6.625   1.700  16.548  0.1599 -1.1080  0.6733
 1255TIP3    H225257   6.596   1.755  16.686 -0.7967  0.4555 -0.1219
 1256TIP3   OH225258   1.711   0.907   0.294  0.3946 -0.1636  0.7171
 1256TIP3    H125259   1.730   0.856   0.373  0.3823 -2.8256 -0.9004
 1256TIP3    H225260   1.795   0.946   0.270  0.3651  0.8130  2.0832
 1257TIP3   OH225261   3.751   0.949  16.504  0.3183  0.4717 -0.4817
 1257TIP3    H125262   3.833   0.914  16.538  0.4224  0.7486 -0.4517
 1257TIP3    H225263   3.692   0.873  16.503  0.1458  0.5594  0.8180
 1258TIP3   OH225264   5.520   2.043   1.067  0.2564  0.3914  0.0131
 1258TIP3    H125265   5.590   2.000   1.115  0.4080  1.1997  0.5396
 1258TIP3    H225266   5.564   2.090   0.997  0.4344  2.0503  1.1729
 1259TIP3   OH225267   2.017   5.599  12.954 -0.3718  0.5349  0.4446
 1259TIP3    H125268   1.967   5.537  12.900 -0.0903 -1.1401  1.9869
 1259TIP3    H225269   2.089   5.627  12.899 -1.2690  0.5569 -0.7558
 1260TIP3   OH225270   5.973   0.966   5.196 -0.4585  0.0904  0.2250
 1260TIP3    H125271   5.907   1.006   5.139 -0.0343  1.5780  0.7314
 1260TIP3    H225272   6.047   1.026   5.192  0.0022 -0.3665  1.4547
 1261TIP3   OH225273   2.976   2.169  11.362  0.4464  0.3200 -1.0089
 1261TIP3    H125274   2.948   2.233  11.296 -1.5778 -0.2335 -0.7251
 1261TIP3    H225275   2.896   2.128  11.393  1.3983  0.0194  1.2939
 1262TIP3   OH225276   4.616   1.735   4.550  0.2315  0.1763  0.2464
 1262TIP3    H125277   4.565   1.774   4.621  3.0965  1.4560  1.7810
 1262TIP3    H225278   4.586   1.644   4.546 -0.8451  0.3772  2.3184
 1263TIP3   OH225279   3.036   3.702   2.959  0.2247 -0.2343  0.2236
 1263TIP3    H125280   2.978   3.770   2.993  0.2793 -0.6042  1.0712
 1263TIP3    H225281   2.986   3.621   2.966 -0.6624 -0.0569 -2.7446
 1264TIP3   OH225282   6.319   4.184   3.048 -0.0546 -0.3433 -0.1026
 1264TIP3    H125283   6.327   4.151   3.138  1.3295 -0.6392 -0.3043
 1264TIP3    H225284   6.255   4.255   3.054  1.0168  0.5625  1.3846
 1265TIP3   OH225285   6.530   3.892   0.978 -0.7339 -0.5376 -0.3616
 1265TIP3    H125286   6.620   3.859   0.979 -0.7780 -0.6579 -0.2787
 1265TIP3    H225287   6.539   3.987   0.971 -0.5842 -0.4798  0.5075
 1266TIP3   OH225288   2.718   3.432  15.373  0.2509 -0.0049  0.0039
 1266TIP3    H125289   2.664   3.511  15.377  2.0745  1.4246 -1.6397
 1266TIP3    H225290   2.769   3.434  15.453  0.3797  0.5607 -0.0901
 1267TIP3   OH225291   2.989   1.745   2.473  0.0510  0.7643  0.1749
 1267TIP3    H125292   2.913   1.796   2.499 -0.1855  0.0791  0.8449
 1267TIP3    H225293   3.059   1.809   2.463 -0.4827  1.3314  0.0660
 1268TIP3   OH225294   4.271   2.423  11.078  0.3231  0.6289 -0.2030
 1268TIP3    H125295   4.269   2.459  11.167  0.9918  1.2346 -0.4163
 1268TIP3    H225296   4.262   2.500  11.022  1.4773  0.4388 -0.6693
 1269TIP3   OH225297   5.196   5.371   1.147  0.2093 -0.1845  0.0815
 1269TIP3    H125298   5.241   5.329   1.074  1.4732  1.4898 -0.1693
 1269TIP3    H225299   5.123   5.312   1.168  2.0397 -2.6397 -0.0062
 1270TIP3   OH225300   4.518   4.642   0.168  0.2641  0.4055 -0.2672
 1270TIP3    H125301   4.469   4.700   0.226 -0.4507 -1.0843  0.6972
 1270TIP3    H225302   4.578   4.595   0.226 -0.2478 -0.9024 -0.7544
 1271TIP3   OH225303   4.893   4.380   0.529 -0.2647 -0.6864 -0.3252
 1271TIP3    H125304   4.952   4.370   0.454  0.5810  1.4415 -0.0113
 1271TIP3    H225305   4.929   4.322   0.596  0.8758 -0.2079 -0.5033
 1272TIP3   OH225306   3.513   4.678  15.472 -0.1442  0.3581  0.2771
 1272TIP3    H125307   3.549   4.714  15.391 -0.5852  0.7666  0.2608
 1272TIP3    H225308   3.590   4.650  15.522  0.2877  2.1384  0.6811
 1273TIP3   OH225309   3.545   2.994   4.349  0.1879  0.3888  0.0743
 1273TIP3    H125310   3.463   3.038   4.326  1.1125  2.8715  1.1757
 1273TIP3    H225311   3.549   2.998   4.444  1.6322  0.4140  0.0349
 1274TIP3   OH225312   4.428   1.524  12.194  0.3766  0.2970  0.2441
 1274TIP3    H125313   4.486   1.455  12.226  0.6621  0.4168 -0.0123
 1274TIP3    H225314   4.427   1.588  12.265  0.3749  0.1864  0.3448
 1275TIP3   OH225315   3.866   5.349   3.908  0.4888 -0.4499 -0.2231
 1275TIP3    H125316   3.918   5.427   3.923  1.5738 -0.7027 -2.2469
 1275TIP3    H225317   3.900   5.284   3.969 -0.6270  0.6927  1.6890
 1276TIP3   OH225318   4.223   1.402   2.404 -0.2989 -0.4057 -0.3544
 1276TIP3    H125319   4.188   1.325   2.359  3.2078 -1.6967 -1.1956
 1276TIP3    H225320   4.315   1.381   2.419  0.5381  3.1903  0.4518
 1277TIP3   OH225321   0.341   3.388  11.643  0.2445 -1.0512  0.5451
 1277TIP3    H125322   0.366   3.433  11.724 -1.4430 -0.4513  0.7681
 1277TIP3    H225323   0.412   3.409  11.582 -0.1505  1.4293  0.8355
 1278TIP3   OH225324   6.695   0.585  15.530 -0.1463 -0.0448 -0.5544
 1278TIP3    H125325   6.659   0.667  15.496  0.2811  0.8957  1.1159
 1278TIP3    H225326   6.772   0.612  15.581  0.8814 -1.6491 -1.1756
 1279TIP3   OH225327   0.458   6.398  15.184  0.0066 -0.0474 -0.1512
 1279TIP3    H125328   0.517   6.438  15.248 -0.0019 -0.9121  0.4181
 1279TIP3    H225329   0.482   6.306  15.183 -1.1881 -0.3808 -0.0539
 1280TIP3   OH225330   2.080   1.120  15.422 -0.0299  0.0517  0.2737
 1280TIP3    H125331   2.040   1.059  15.484 -1.4678  0.2940 -0.3645
 1280TIP3    H225332   2.032   1.202  15.436 -0.4316  0.0824 -1.1999
 1281TIP3   OH225333   2.675   2.212   5.835 -0.1214  0.0910 -0.3035
 1281TIP3    H125334   2.720   2.209   5.750  0.4521 -2.8460 -0.0149
 1281TIP3    H225335   2.745   2.226   5.898  0.1158 -1.9247 -0.0547
 1282TIP3   OH225336   3.406   5.464   0.627 -0.0267 -0.3844  0.2282
 1282TIP3    H125337   3.418   5.449   0.533 -0.4631 -1.3522  0.3181
 1282TIP3    H225338   3.385   5.557   0.634 -0.5017 -0.4132 -0.6801
 1283TIP3   OH225339   0.530   3.022  14.093 -0.1037 -0.1545 -0.5028
 1283TIP3    H125340   0.461   2.981  14.040  1.3062 -2.0293 -1.0338
 1283TIP3    H225341   0.582   3.072  14.030 -1.4986  2.1195  0.0596
 1284TIP3   OH225342   5.882   2.150  13.406  0.4102  0.1282 -0.1575
 1284TIP3    H125343   5.905   2.220  13.345 -1.1310  0.0188 -0.9049
 1284TIP3    H225344   5.804   2.109  13.368 -0.2330 -0.3411  1.5729
 1285TIP3   OH225345   4.889   2.213   5.826  0.7322  0.0572  0.0090
 1285TIP3    H125346   4.938   2.138   5.860 -0.3804 -0.2586  0.9648
 1285TIP3    H225347   4.877   2.270   5.902 -1.0375 -0.2455 -0.0038
 1286TIP3   OH225348   3.116   3.311   3.689 -0.2757  0.5875 -0.4609
 1286TIP3    H125349   3.083   3.227   3.658  0.1876 -0.1688  1.0032
 1286TIP3    H225350   3.201   3.320   3.646  0.5221 -0.6166  0.7817
 1287TIP3   OH225351   6.786   3.736  13.890  0.4399  0.0090  0.0061
 1287TIP3    H125352   6.874   3.719  13.856  0.4329  0.1487 -0.0818
 1287TIP3    H225353   6.730   3.731  13.813  0.6395  2.1036 -0.3421
 1288TIP3   OH225354   0.896   4.755  14.311  0.2597  0.9557  0.0164
 1288TIP3    H125355   0.855   4.668  14.308  1.1620  0.4061  1.9045
 1288TIP3    H225356   0.899   4.783  14.220  0.3122 -1.1690 -0.6971
 1289TIP3   OH225357   2.330   4.924   4.287 -0.2600  0.4795  0.0659
 1289TIP3    H125358   2.397   4.983   4.255 -1.2563  1.2211 -0.7074
 1289TIP3    H225359   2.259   4.981   4.316 -0.3995 -0.2744  1.2682
 1290TIP3   OH225360   2.095   4.559  11.927 -0.5802 -1.1069  0.1968
 1290TIP3    H125361   2.042   4.638  11.916 -2.3949 -2.4695 -1.5135
 1290TIP3    H225362   2.135   4.546  11.841  0.7205 -1.3865  0.8233
 1291TIP3   OH225363   3.880   3.032  12.543 -0.0713 -0.5531 -0.2861
 1291TIP3    H125364   3.921   2.984  12.616 -0.9484  1.5233  1.6856
 1291TIP3    H225365   3.787   3.035  12.565  0.0982  3.2364  0.5384
 1292TIP3   OH225366   2.281   3.398   0.505  0.6206  0.4549 -0.4040
 1292TIP3    H125367   2.320   3.333   0.563  0.1800  0.4842 -0.0702
 1292TIP3    H225368   2.276   3.478   0.558 -2.5216 -0.2459  0.5906
 1293TIP3   OH225369   5.264   2.588  16.535 -0.0060  0.1395 -0.2518
 1293TIP3    H125370   5.189   2.606  16.592 -1.4106  0.9570 -2.2455
 1293TIP3    H225371   5.340   2.608  16.589 -1.2613  0.7017  1.3982
 1294TIP3   OH225372   0.521   5.036  12.315  0.1713 -0.0648  0.0145
 1294TIP3    H125373   0.548   5.127  12.301  3.2140 -0.7942  0.3497
 1294TIP3    H225374   0.534   4.994  12.231  1.0315 -0.6377  0.4183
 1295TIP3   OH225375   5.150   6.430   0.973 -0.3923 -0.6189  0.1056
 1295TIP3    H125376   5.071   6.440   1.027 -1.1878 -1.4130 -0.8773
 1295TIP3    H225377   5.146   6.502   0.910 -0.1651 -0.4899  0.2336
 1296TIP3   OH225378   0.789   2.052  10.578 -0.4057 -0.6638  0.1362
 1296TIP3    H125379   0.751   2.139  10.581  0.7813  0.2143 -3.8339
 1296TIP3    H225380   0.868   2.062  10.525  0.2636 -4.0147  0.2459
 1297TIP3   OH225381   3.881   5.892  13.863  0.1267  0.6273 -0.0861
 1297TIP3    H125382   3.815   5.905  13.795 -1.1763 -0.8383  0.8384
 1297TIP3    H225383   3.870   5.966  13.921 -0.5973  0.5076 -0.0534
 1298TIP3   OH225384   3.161   0.619  11.093 -0.1566  0.0686 -0.0113
 1298TIP3    H125385   3.175   0.655  11.006  1.2129 -1.1460 -0.3427
 1298TIP3    H225386   3.217   0.672  11.150 -0.2503  0.2007 -0.0423
 1299TIP3   OH225387   3.884   3.745  15.375 -0.2364  0.5152  0.1216
 1299TIP3    H125388   3.808   3.730  15.318 -0.4273 -1.9041  0.8744
 1299TIP3    H225389   3.957   3.759  15.315 -0.6978 -0.5168 -0.7313
 1300TIP3   OH225390   1.473   2.549  16.774 -0.0005 -0.1237 -0.0620
 1300TIP3    H125391   1.407   2.496  16.728  0.6535  0.3956 -1.6868
 1300TIP3    H225392   1.539   2.486  16.801  1.5878 -0.1109 -3.4054
 1301TIP3   OH225393   4.540   3.702  11.565  0.4889  0.5210  0.1367
 1301TIP3    H125394   4.456   3.693  11.518  0.3110  0.6488  0.4260
 1301TIP3    H225395   4.602   3.651  11.514  0.0240 -0.3685  0.4508
 1302TIP3   OH225396   5.127   3.756   0.979 -0.0343 -0.3047 -0.2096
 1302TIP3    H125397   5.216   3.774   0.950 -0.6676 -0.2022 -2.2669
 1302TIP3    H225398   5.133   3.671   1.024  1.1446 -0.1236 -0.0088
 1303TIP3   OH225399   3.648   3.883   2.168 -0.6526 -0.4134  0.2459
 1303TIP3    H125400   3.711   3.898   2.239 -2.1471 -1.0813  1.7815
 1303TIP3    H225401   3.603   3.967   2.158  0.5774  0.1312 -1.0075
 1304TIP3   OH225402   2.241   4.502   2.463 -0.2497  0.4446  0.0711
 1304TIP3    H125403   2.304   4.471   2.529 -1.9558  0.8743  2.0205
 1304TIP3    H225404   2.222   4.425   2.410  1.3389  0.1359 -0.1272
 1305TIP3   OH225405   5.267   4.890  15.370 -0.2358  0.0781  0.3655
 1305TIP3    H125406   5.276   4.981  15.342  0.6864  0.1491  0.8692
 1305TIP3    H225407   5.230   4.845  15.294 -2.3022  1.1659  0.6557
 1306TIP3   OH225408   4.646   5.560  13.126 -0.0972 -0.3160 -0.5137
 1306TIP3    H125409   4.585   5.550  13.053 -0.4699  0.9688 -0.4029
 1306TIP3    H225410   4.732   5.557  13.086 -0.2894 -0.1410 -0.9444
 1307TIP3   OH225411   0.013   6.199  15.948 -0.7250  0.2414  0.3368
 1307TIP3    H125412  -0.038   6.150  16.012  0.0543 -1.5698 -0.3510
 1307TIP3    H225413  -0.052   6.233  15.886 -1.3308  0.6341  1.1626
 1308TIP3   OH225414   6.841   5.225  14.528 -0.6026  0.3027 -0.0322
 1308TIP3    H125415   6.833   5.197  14.437  1.4515  0.4169 -0.2952
 1308TIP3    H225416   6.816   5.147  14.579 -1.4038  0.1217 -0.6779
 1309TIP3   OH225417   4.632   3.905   6.030  0.5407 -0.0863  0.1554
 1309TIP3    H125418   4.603   3.815   6.020  1.9914 -0.5977  0.4095
 1309TIP3    H225419   4.715   3.899   6.076  0.2544  1.4420  0.9422
 1310TIP3   OH225420   1.225   1.633  12.769  0.2146 -0.5210 -0.0207
 1310TIP3    H125421   1.160   1.606  12.703  0.4937  3.2081 -2.1011
 1310TIP3    H225422   1.309   1.627  12.724  0.5518  0.9190  0.3712
 1311TIP3   OH225423   2.999   2.032   3.512 -0.3380 -0.4579 -0.3868
 1311TIP3    H125424   2.932   2.054   3.448 -0.5338 -1.3100 -0.4794
 1311TIP3    H225425   2.980   1.942   3.537 -0.0728 -0.2414  0.6352
 1312TIP3   OH225426   0.187   6.289  15.187  0.0525  0.0827  0.3723
 1312TIP3    H125427   0.203   6.228  15.259  0.5690 -2.3047 -1.6161
 1312TIP3    H225428   0.274   6.319  15.162  0.0699 -0.6115 -0.4460
 1313TIP3   OH225429   3.712   0.445   2.038 -0.1882 -0.0729 -0.1514
 1313TIP3    H125430   3.646   0.514   2.032 -0.0033  0.0067 -3.5486
 1313TIP3    H225431   3.754   0.459   2.122 -0.9114  3.2851 -0.2046
 1314TIP3   OH225432   2.298   4.598   4.987 -0.3221  0.2323 -0.0438
 1314TIP3    H125433   2.300   4.638   5.074  0.2112 -0.0502  0.0742
 1314TIP3    H225434   2.221   4.637   4.946  0.6786  2.1237 -0.2781
 1315TIP3   OH225435   4.314   3.762  10.740  0.3937 -0.4850 -0.1473
 1315TIP3    H125436   4.258   3.685  10.726 -0.6343  0.2566 -0.2274
 1315TIP3    H225437   4.254   3.830  10.771  1.2972  0.2727 -0.0190
 1316TIP3   OH225438   2.462   5.591   2.940  0.6177  0.5374 -0.1527
 1316TIP3    H125439   2.371   5.606   2.965  1.1687  1.4996  1.4233
 1316TIP3    H225440   2.480   5.658   2.873 -0.0719 -0.2676 -1.1823
 1317TIP3   OH225441   3.924   3.371   2.363 -0.1614  0.6332 -0.0476
 1317TIP3    H125442   3.953   3.462   2.367 -0.9335  0.9294 -0.8956
 1317TIP3    H225443   3.951   3.341   2.276  0.1232  0.0384  0.2421
 1318TIP3   OH225444   1.939   4.085  16.608  0.6999 -0.3405  0.2091
 1318TIP3    H125445   1.880   4.087  16.533  1.5337  1.5821 -0.4531
 1318TIP3    H225446   1.881   4.075  16.684 -0.6115  2.2052 -0.3447
 1319TIP3   OH225447   3.594   0.422  12.967  0.3777 -0.0579 -0.5032
 1319TIP3    H125448   3.681   0.443  12.934  2.5401 -1.8159  3.4013
 1319TIP3    H225449   3.588   0.467  13.051 -1.5021 -1.8083  0.3917
 1320TIP3   OH225450   2.689   0.291  13.714 -0.4123 -0.6483  0.1938
 1320TIP3    H125451   2.630   0.273  13.787  0.6355 -1.3987  0.8850
 1320TIP3    H225452   2.704   0.206  13.673 -0.9845 -0.2366 -0.9133
 1321TIP3   OH225453   5.935   2.042   1.347  0.2757 -0.1136 -0.5656
 1321TIP3    H125454   6.022   2.067   1.317 -0.2580  1.1174 -1.1328
 1321TIP3    H225455   5.915   2.103   1.418 -0.5532  0.2934 -1.1418
 1322TIP3   OH225456   2.998   1.613   1.852 -0.0875 -0.3206 -0.1063
 1322TIP3    H125457   2.935   1.590   1.921 -0.9137 -1.9247 -1.3269
 1322TIP3    H225458   2.943   1.648   1.781  0.5637 -0.2665 -0.5881
 1323TIP3   OH225459   0.657   5.813   0.501  0.5110  0.0078 -0.5656
 1323TIP3    H125460   0.707   5.877   0.450  0.6755  0.9205  0.6973
 1323TIP3    H225461   0.584   5.863   0.536  2.0492  0.2582  2.6118
 1324TIP3   OH225462   3.932   0.313   1.711  0.1853 -0.3799  0.3631
 1324TIP3    H125463   3.971   0.350   1.790 -0.4976 -2.0558  1.5429
 1324TIP3    H225464   3.843   0.349   1.710 -0.0327 -0.9006  0.7526
 1325TIP3   OH225465   2.563   1.127  12.216 -0.1660  0.7955  0.1416
 1325TIP3    H125466   2.572   1.220  12.194  3.1118  0.2180 -1.5839
 1325TIP3    H225467   2.650   1.101  12.246 -0.9635 -1.7488  0.4569
 1326TIP3   OH225468   3.220   4.918  13.203  0.3878  0.0152  0.3893
 1326TIP3    H125469   3.270   4.919  13.122  0.2211  0.2567  0.2904
 1326TIP3    H225470   3.245   4.998  13.249 -2.6719  2.1797 -1.3587
 1327TIP3   OH225471   0.387   3.604   4.484  0.0450  0.0074 -0.2795
 1327TIP3    H125472   0.411   3.680   4.537 -0.6932  0.3478 -0.4095
 1327TIP3    H225473   0.293   3.615   4.468  0.5254  0.8806 -3.1537
 1328TIP3   OH225474   0.794   6.818  16.581  0.3517  0.7814  0.4390
 1328TIP3    H125475   0.830   6.894  16.535  1.1192  0.5308  0.6145
 1328TIP3    H225476   0.753   6.855  16.659  0.3634  1.0571  0.3164
 1329TIP3   OH225477   2.081   3.110   4.308 -0.4446 -0.2525  0.1812
 1329TIP3    H125478   2.022   3.156   4.368  0.8249 -0.5922  1.7585
 1329TIP3    H225479   2.088   3.022   4.345  2.4098  0.2746  1.1044
 1330TIP3   OH225480   1.358   6.354  15.209  0.4599 -0.0839 -0.2977
 1330TIP3    H125481   1.428   6.315  15.260 -0.3958  0.3148  1.2228
 1330TIP3    H225482   1.394   6.437  15.177  0.6908  0.1154  0.4751
 1331TIP3   OH225483   1.566   6.693  13.457  0.5397  0.3668 -0.0997
 1331TIP3    H125484   1.473   6.685  13.435  0.5430 -1.1459  0.3476
 1331TIP3    H225485   1.607   6.618  13.414  1.3264  0.2359  0.8606
 1332TIP3   OH225486   5.093   6.092  15.189 -0.6626  0.0879 -0.2110
 1332TIP3    H125487   5.052   6.163  15.141 -0.7500 -1.9390 -3.4298
 1332TIP3    H225488   5.021   6.051  15.238 -1.3352  0.0781 -1.1882
 1333TIP3   OH225489   4.219   0.156  13.490  0.1997  0.1929  0.4192
 1333TIP3    H125490   4.200   0.131  13.581 -2.0035 -3.0005 -0.7399
 1333TIP3    H225491   4.292   0.099  13.465 -0.0668  0.0973 -0.1552
 1334TIP3   OH225492   0.032   0.705   0.410  0.1618 -0.0651  0.6179
 1334TIP3    H125493  -0.007   0.682   0.494  1.7139 -1.0772  1.0906
 1334TIP3    H225494   0.081   0.785   0.427  0.0349  0.0333  0.5292
 1335TIP3   OH225495   6.695   4.888  16.324 -0.0885  0.5834  0.7354
 1335TIP3    H125496   6.758   4.933  16.268 -0.4747 -0.4967 -0.6029
 1335TIP3    H225497   6.629   4.854  16.264 -0.3867 -0.8230  1.8041
 1336TIP3   OH225498   4.339   3.246   4.279  0.1516 -0.0738 -0.1029
 1336TIP3    H125499   4.430   3.254   4.310 -0.7566  0.3263  2.7562
 1336TIP3    H225500   4.310   3.161   4.312 -0.7707  0.1793 -0.2483
 1337TIP3   OH225501   4.504   0.249   1.760 -0.5243  0.5014 -0.3658
 1337TIP3    H125502   4.591   0.252   1.800 -0.5778 -1.5814  0.0068
 1337TIP3    H225503   4.444   0.257   1.834 -0.6357  0.3993 -0.4449
 1338TIP3   OH225504   3.151   3.584   5.838 -0.1173 -0.1265  0.4910
 1338TIP3    H125505   3.190   3.575   5.924 -1.6461  1.9258  1.4610
 1338TIP3    H225506   3.093   3.660   5.844  1.9373  2.0834 -3.1542
 1339TIP3   OH225507   5.708   4.620  13.862 -0.1900  0.2852  0.2635
 1339TIP3    H125508   5.639   4.554  13.853 -0.6024  0.5349  1.4267
 1339TIP3    H225509   5.672   4.684  13.923  0.8500  0.7245  0.4320
 1340TIP3   OH225510   4.841   1.835  10.691  0.1910  0.2078  0.4443
 1340TIP3    H125511   4.869   1.894  10.621  0.5870 -0.0766  0.3576
 1340TIP3    H225512   4.766   1.879  10.731 -0.7303 -0.1158 -0.8401
 1341TIP3   OH225513   2.909   6.817  11.031 -0.5285 -0.4155 -0.2521
 1341TIP3    H125514   2.849   6.744  11.044 -1.6790  0.7417  1.3217
 1341TIP3    H225515   2.887   6.879  11.101  1.6052  0.6490 -0.4446
 1342TIP3   OH225516   6.166   0.546  12.971 -0.0425 -0.2839  0.7196
 1342TIP3    H125517   6.178   0.515  13.060  0.4841 -0.0558  0.7317
 1342TIP3    H225518   6.189   0.471  12.916  1.6236  0.1625  0.7393
 1343TIP3   OH225519   4.193   2.484   5.694 -0.0644 -0.3469 -0.0595
 1343TIP3    H125520   4.231   2.417   5.638 -0.0894 -0.0491 -0.4400
 1343TIP3    H225521   4.261   2.503   5.759 -0.6554 -1.9058  1.0720
 1344TIP3   OH225522   1.665   1.225   5.181  0.6029 -0.0178  0.4466
 1344TIP3    H125523   1.659   1.131   5.194 -1.7391 -0.1360 -0.9152
 1344TIP3    H225524   1.585   1.260   5.219 -0.0324  1.0280 -1.7093
 1345TIP3   OH225525   6.175   2.481   3.399  0.3835  0.1901  0.6262
 1345TIP3    H125526   6.105   2.420   3.425 -2.3894  1.2582 -3.3654
 1345TIP3    H225527   6.148   2.565   3.435 -0.6320  0.6378 -1.0585
 1346TIP3   OH225528   0.343   2.212   4.839  0.3658 -0.5738 -0.3505
 1346TIP3    H125529   0.380   2.230   4.752 -0.2402  0.8778 -0.3249
 1346TIP3    H225530   0.281   2.140   4.824 -0.0019 -0.0949 -1.1884
 1347TIP3   OH225531   4.217   2.059   4.426  0.0650  0.1018  0.1227
 1347TIP3    H125532   4.203   1.974   4.468  2.2585 -0.7509 -0.6871
 1347TIP3    H225533   4.240   2.037   4.336 -0.0405  1.6034 -0.2854
 1348TIP3   OH225534   0.360   3.723   3.630 -0.1458 -0.2641 -0.1336
 1348TIP3    H125535   0.433   3.663   3.611  0.0930 -0.1623  0.4549
 1348TIP3    H225536   0.359   3.730   3.725  0.6729  1.7166 -0.2352
 1349TIP3   OH225537   3.930   6.450   5.586  0.3550  0.2444 -0.0485
 1349TIP3    H125538   3.976   6.531   5.565 -0.1972  0.7807  0.7324
 1349TIP3    H225539   3.984   6.381   5.548  0.5854  1.0000 -1.1429
 1350TIP3   OH225540   4.948   0.701   3.840 -0.0132 -0.1068 -0.1114
 1350TIP3    H125541   4.955   0.626   3.899 -1.2234 -0.2388 -0.1111
 1350TIP3    H225542   4.867   0.685   3.790  0.8002  0.1668 -1.5724
 1351TIP3   OH225543   4.288   0.525  11.821  0.1668  0.7173 -0.0301
 1351TIP3    H125544   4.255   0.450  11.772  0.0001  0.0544  1.0502
 1351TIP3    H225545   4.372   0.547  11.779 -0.2004  0.4845 -0.8953
 1352TIP3   OH225546   6.762   5.938  11.439 -0.0432  0.0065 -0.1697
 1352TIP3    H125547   6.679   5.898  11.413 -0.1363  1.4138 -2.1884
 1352TIP3    H225548   6.818   5.931  11.362  1.9469 -1.3138  1.2854
 1353TIP3   OH225549   4.157   0.176  11.879 -0.1018  0.1957  0.3435
 1353TIP3    H125550   4.234   0.136  11.839  0.2923 -0.3636  1.6062
 1353TIP3    H225551   4.189   0.253  11.925 -0.5342  0.7918 -0.3406
 1354TIP3   OH225552   0.081   0.767  15.708  0.0153  0.1549  0.0400
 1354TIP3    H125553   0.133   0.803  15.636 -1.4179 -0.4151 -1.3189
 1354TIP3    H225554   0.124   0.683  15.729  0.4557  0.3391 -0.1012
 1355TIP3   OH225555   5.245   6.055   5.250  0.1074  0.3156 -0.4287
 1355TIP3    H125556   5.178   6.029   5.187 -0.7394  1.9755 -0.2683
 1355TIP3    H225557   5.223   6.145   5.273  0.5304 -0.1355  2.0577
 1356TIP3   OH225558   6.698   1.786   0.485 -0.6548  0.4135 -0.0139
 1356TIP3    H125559   6.676   1.713   0.427 -0.8185  1.0495 -0.7633
 1356TIP3    H225560   6.614   1.828   0.504 -0.6222  0.1369  0.8021
 1357TIP3   OH225561   6.123   3.413  12.310 -0.1955  0.3062 -0.1200
 1357TIP3    H125562   6.080   3.365  12.240 -0.9026  1.3907 -0.4608
 1357TIP3    H225563   6.193   3.355  12.340 -0.9298 -0.8676 -0.5915
 1358TIP3   OH225564   2.864   1.318   4.944  0.2516  0.3098 -0.4108
 1358TIP3    H125565   2.805   1.360   4.882  0.0075 -0.7664 -0.9215
 1358TIP3    H225566   2.921   1.264   4.890 -0.5626 -1.3724  0.3553
 1359TIP3   OH225567   5.398   1.269   0.097  0.4019  0.5676 -0.1381
 1359TIP3    H125568   5.420   1.361   0.114  2.8900  0.3247 -1.4786
 1359TIP3    H225569   5.380   1.232   0.183  1.9282  1.7603  0.7464
 1360TIP3   OH225570   3.581   2.475  11.009  0.4337  0.7301 -0.1731
 1360TIP3    H125571   3.613   2.551  10.961  1.1015  0.1562 -0.6600
 1360TIP3    H225572   3.511   2.440  10.955 -0.4523  1.4798  0.4653
 1361TIP3   OH225573   1.921   2.154  10.605 -0.4609  0.1402 -0.3956
 1361TIP3    H125574   1.951   2.156  10.696  1.8889  1.7397 -1.0833
 1361TIP3    H225575   1.937   2.064  10.576 -0.0165 -0.0553  0.4235
 1362TIP3   OH225576   5.438   4.193   1.170  0.0988  0.4453 -0.2006
 1362TIP3    H125577   5.516   4.143   1.194  0.8987  0.8218 -1.8337
 1362TIP3    H225578   5.469   4.282   1.157 -0.5908  0.6041 -0.8454
 1363TIP3   OH225579   6.681   1.064  16.830  0.4040 -0.2274 -0.0063
 1363TIP3    H125580   6.598   1.018  16.842  0.3911 -0.3138 -0.4320
 1363TIP3    H225581   6.700   1.058  16.736 -0.2785  1.8217 -0.3291
 1364TIP3   OH225582   0.248   5.685   2.976  0.4263  0.1638 -0.5993
 1364TIP3    H125583   0.277   5.709   2.889  0.5926  0.4671 -0.4607
 1364TIP3    H225584   0.254   5.766   3.027 -2.4804  0.7959 -1.0330
 1365TIP3   OH225585   0.241   1.923   1.617  0.0877 -0.2712 -0.0332
 1365TIP3    H125586   0.150   1.896   1.602 -0.5517  2.1680 -0.9823
 1365TIP3    H225587   0.256   1.993   1.555  1.3685  2.0045  2.6143
 1366TIP3   OH225588   6.317   0.617   5.403  0.3300 -0.3409  0.0059
 1366TIP3    H125589   6.235   0.590   5.363  0.1621 -0.5834  0.5049
 1366TIP3    H225590   6.374   0.540   5.396 -0.1968 -0.9145  1.5582
 1367TIP3   OH225591   5.143   3.368  13.942  0.0800  0.4294  0.4440
 1367TIP3    H125592   5.088   3.291  13.954  0.5301  0.2647  1.5733
 1367TIP3    H225593   5.086   3.442  13.962 -0.1362  0.3425  0.1470
 1368TIP3   OH225594   2.191   4.667  11.514  0.0916  0.2531 -0.1522
 1368TIP3    H125595   2.242   4.705  11.585  0.3396  0.8198 -0.6297
 1368TIP3    H225596   2.241   4.590  11.486 -0.2401 -0.2458  0.5871
 1369TIP3   OH225597   6.688   3.059   0.330 -0.4366  0.2405 -0.0643
 1369TIP3    H125598   6.743   3.116   0.383 -0.4384  1.5212 -1.3632
 1369TIP3    H225599   6.601   3.098   0.335 -0.4636  0.3106 -0.8727
 1370TIP3   OH225600   6.681   3.606   2.731 -0.6073 -0.0582 -0.4587
 1370TIP3    H125601   6.658   3.537   2.669  1.1842 -2.2087  1.0739
 1370TIP3    H225602   6.607   3.612   2.790 -1.2856  0.2401 -1.3218
 1371TIP3   OH225603   6.204   4.547  14.697 -0.3641  0.2949  0.1319
 1371TIP3    H125604   6.253   4.573  14.620 -0.6446 -0.9588 -0.5041
 1371TIP3    H225605   6.258   4.479  14.738  0.5202  1.9797  1.9259
 1372TIP3   OH225606   1.198   3.728   4.364 -0.3694 -0.2655  0.0365
 1372TIP3    H125607   1.144   3.764   4.294 -1.3382 -2.1027 -0.2418
 1372TIP3    H225608   1.138   3.718   4.438  0.9053  2.8144  1.6564
 1373TIP3   OH225609   4.017   6.718  16.606 -0.1220  0.0876  0.1239
 1373TIP3    H125610   4.095   6.692  16.656 -0.4670 -0.2111  0.5106
 1373TIP3    H225611   4.020   6.814  16.606 -0.7498  0.1428  1.7679
 1374TIP3   OH225612   0.399   6.632  11.075 -0.6752  0.4978  0.8005
 1374TIP3    H125613   0.359   6.717  11.093  0.3492  0.8404  1.5793
 1374TIP3    H225614   0.417   6.596  11.162  0.2581  0.1555  0.4744
 1375TIP3   OH225615   2.909   2.224  16.552 -0.0996  0.3858  0.6983
 1375TIP3    H125616   2.981   2.261  16.503  0.1108  0.1750  0.8456
 1375TIP3    H225617   2.936   2.134  16.570 -0.6755  0.1034  0.1941
 1376TIP3   OH225618   0.178   2.445  13.219 -0.3370 -0.4312 -0.2236
 1376TIP3    H125619   0.179   2.456  13.124 -0.7011 -1.0675 -0.3056
 1376TIP3    H225620   0.147   2.356  13.233 -0.7479 -0.1901  0.5051
 1377TIP3   OH225621   6.175   6.043   3.841  0.3129  0.1942 -0.1264
 1377TIP3    H125622   6.170   5.948   3.852  2.9054  0.1980  3.0162
 1377TIP3    H225623   6.236   6.055   3.768  0.5347 -0.6092 -0.0924
 1378TIP3   OH225624   1.008   0.373   4.201  0.7061 -0.2336  0.7129
 1378TIP3    H125625   1.009   0.407   4.111 -1.8730 -2.5881 -0.3533
 1378TIP3    H225626   1.072   0.302   4.201 -1.7270 -2.6145 -0.4854
 1379TIP3   OH225627   2.435   3.538  14.252  0.0194 -0.9415  0.6684
 1379TIP3    H125628   2.444   3.630  14.229 -2.4932 -0.7922 -0.0164
 1379TIP3    H225629   2.446   3.535  14.347  0.8367 -0.0501  0.6068
 1380TIP3   OH225630   6.010   2.784   2.539 -0.1304  0.0290  0.7075
 1380TIP3    H125631   6.044   2.870   2.562  1.4411 -0.0788 -0.9159
 1380TIP3    H225632   6.071   2.723   2.581 -0.2503 -0.2383  0.4952
 1381TIP3   OH225633   5.062   0.218  16.113  0.5769  0.2746  0.2143
 1381TIP3    H125634   5.023   0.300  16.083  0.5413  0.2862  0.2928
 1381TIP3    H225635   5.005   0.150  16.076  1.8010  0.1939 -1.6547
 1382TIP3   OH225636   2.728   6.207  11.125 -0.7628 -0.1967 -0.1380
 1382TIP3    H125637   2.794   6.180  11.061  1.0926  3.7387 -0.1509
 1382TIP3    H225638   2.686   6.283  11.086 -2.7053 -0.3500  1.5048
 1383TIP3   OH225639   5.395   3.727  14.551  0.2044 -0.1335  0.0770
 1383TIP3    H125640   5.423   3.639  14.524  2.0121  0.4331 -0.0731
 1383TIP3    H225641   5.428   3.785  14.482 -3.3722  0.4965 -1.3324
 1384TIP3   OH225642   5.941   4.238  13.271 -0.7760 -0.4365  0.4210
 1384TIP3    H125643   5.972   4.161  13.224 -1.1773 -0.9483  0.9737
 1384TIP3    H225644   5.880   4.203  13.336 -0.8779  0.3380  0.7513
 1385TIP3   OH225645   1.580   2.614   5.477  0.2008  0.5562  0.0183
 1385TIP3    H125646   1.673   2.596   5.486  0.1704 -0.3803 -1.2225
 1385TIP3    H225647   1.567   2.701   5.515  1.3208  0.1208  1.4759
 1386TIP3   OH225648   4.046   6.493  12.777 -1.0621  0.2748  0.0184
 1386TIP3    H125649   4.082   6.404  12.769  0.3013  0.6867  1.1197
 1386TIP3    H225650   4.042   6.508  12.872 -1.4924  1.3181 -0.1547
 1387TIP3   OH225651   4.804   2.586  16.332  0.4505  0.1567  0.2803
 1387TIP3    H125652   4.767   2.501  16.308  1.2535 -0.6323  1.6978
 1387TIP3    H225653   4.731   2.648  16.322 -0.0960 -0.6494 -0.9381
 1388TIP3   OH225654   5.642   6.317  11.978 -0.2389 -0.1984 -0.5739
 1388TIP3    H125655   5.704   6.253  11.942  1.9496  0.7923  1.2040
 1388TIP3    H225656   5.617   6.280  12.063  0.1726  0.7700 -0.0241
 1389TIP3   OH225657   6.692   2.773   6.524  0.2468 -0.4434  0.0058
 1389TIP3    H125658   6.685   2.791   6.431 -0.2271 -0.4205  0.0418
 1389TIP3    H225659   6.777   2.730   6.534 -1.1556 -3.7917 -0.9943
 1390TIP3   OH225660   5.875   6.375   0.516  0.5419  0.1642  0.4779
 1390TIP3    H125661   5.934   6.451   0.512  0.5891  0.0702 -1.9359
 1390TIP3    H225662   5.872   6.342   0.426 -0.0637 -2.2702  1.3209
 1391TIP3   OH225663   4.071   5.413  14.811 -0.0273 -0.4089  0.3778
 1391TIP3    H125664   4.077   5.394  14.718 -0.7072  0.9194  0.0368
 1391TIP3    H225665   3.982   5.387  14.836 -0.8802  1.8816 -0.0393
 1392TIP3   OH225666   5.423   0.625   2.488  0.0045  0.6128 -0.4756
 1392TIP3    H125667   5.479   0.567   2.540 -0.8308 -0.0887 -0.3330
 1392TIP3    H225668   5.479   0.700   2.466 -0.0815  1.9445  3.0932
 1393TIP3   OH225669   5.017   5.349   3.199  0.0298  0.1614  0.0108
 1393TIP3    H125670   5.040   5.334   3.291 -3.5846 -0.8219  0.9283
 1393TIP3    H225671   4.921   5.358   3.199 -0.1735 -0.1828 -3.7038
 1394TIP3   OH225672   0.682   6.203  14.130  0.0453 -0.9353  0.2469
 1394TIP3    H125673   0.685   6.298  14.138 -1.8870 -0.8835  0.7015
 1394TIP3    H225674   0.704   6.172  14.218 -1.6017 -0.8326  0.7156
 1395TIP3   OH225675   3.655   5.780   0.097  0.9342 -0.0955 -0.3626
 1395TIP3    H125676   3.622   5.725   0.169  3.6627 -1.3483  0.0470
 1395TIP3    H225677   3.661   5.867   0.134  0.0197 -0.2265  0.1373
 1396TIP3   OH225678   0.667   4.820   0.275 -0.1729  0.1113 -0.2021
 1396TIP3    H125679   0.714   4.815   0.192 -1.2754 -2.1266 -0.7824
 1396TIP3    H225680   0.595   4.881   0.259 -0.3476 -0.2654 -0.8983
 1397TIP3   OH225681   5.275   3.136  14.431  0.2947 -0.2047 -0.2015
 1397TIP3    H125682   5.184   3.150  14.453  0.1736 -2.3962  0.9154
 1397TIP3    H225683   5.317   3.221  14.445 -1.6940  1.1416 -1.7672
 1398TIP3   OH225684   5.173   5.840  16.779  0.0375  0.1067 -0.4052
 1398TIP3    H125685   5.104   5.902  16.801  1.2767  1.9772 -1.5048
 1398TIP3    H225686   5.194   5.797  16.862 -1.4649  0.4831  0.2075
 1399TIP3   OH225687   3.995   5.555   2.154  0.4772 -0.3512 -0.7385
 1399TIP3    H125688   3.929   5.601   2.102 -0.4588 -0.6192  0.1712
 1399TIP3    H225689   4.010   5.473   2.107 -0.5985 -0.7336 -0.4351
 1400TIP3   OH225690   1.624   3.704  12.438 -0.6378  0.3492  0.0904
 1400TIP3    H125691   1.714   3.727  12.414 -0.6450 -0.7143 -1.0932
 1400TIP3    H225692   1.615   3.613  12.408 -1.7940  0.1179  1.1000
 1401TIP3   OH225693   2.167   3.960  10.863 -0.4228  0.3477  0.8321
 1401TIP3    H125694   2.169   3.928  10.954  0.7064  1.7602  1.3441
 1401TIP3    H225695   2.146   4.053  10.871 -3.1741 -0.0681 -0.5890
 1402TIP3   OH225696   4.961   4.637   0.179 -0.0093 -0.7463 -0.2957
 1402TIP3    H125697   5.016   4.701   0.223 -0.5846 -1.0384  0.9090
 1402TIP3    H225698   4.928   4.682   0.102  0.3845  0.0621 -0.0037
 1403TIP3   OH225699   1.234   5.813   0.422  0.2952 -0.6418  0.3030
 1403TIP3    H125700   1.319   5.856   0.432 -0.5822  0.7010  3.0021
 1403TIP3    H225701   1.255   5.725   0.391  2.9322 -1.1397  3.0738
 1404TIP3   OH225702   6.483   3.060  11.432  0.2685 -0.0815  0.7881
 1404TIP3    H125703   6.492   2.967  11.414  1.1596  0.1182  0.1281
 1404TIP3    H225704   6.516   3.103  11.353  0.8257  0.8058  1.4804
 1405TIP3   OH225705   1.901   0.153  17.075 -0.1935  0.6955 -0.2402
 1405TIP3    H125706   1.808   0.169  17.061 -0.2712 -0.2276 -0.8404
 1405TIP3    H225707   1.904   0.080  17.136  0.1185  0.0245 -1.0368
 1406TIP3   OH225708   0.097   5.947  11.256  0.4216  0.5589  0.1583
 1406TIP3    H125709   0.181   5.905  11.239  1.0054  1.9891 -0.6151
 1406TIP3    H225710   0.055   5.952  11.170  0.5920  1.9995  0.1385
 1407TIP3   OH225711   5.674   1.671  16.661  0.3937 -0.0744  0.0261
 1407TIP3    H125712   5.584   1.701  16.669  0.9267  2.3326 -1.6224
 1407TIP3    H225713   5.719   1.744  16.618  2.8028 -1.7621 -0.5215
 1408TIP3   OH225714   3.399   2.142   2.525 -0.9389 -0.6815  0.2187
 1408TIP3    H125715   3.384   2.069   2.585 -0.1342 -1.0417  0.0048
 1408TIP3    H225716   3.494   2.152   2.523 -0.7968 -1.7047 -2.1481
 1409TIP3   OH225717   5.523   1.448  11.156 -0.0189  0.1437  0.5795
 1409TIP3    H125718   5.469   1.457  11.234 -0.1514 -0.3488  0.5486
 1409TIP3    H225719   5.595   1.391  11.183  1.8934  2.7219  1.3288
 1410TIP3   OH225720   1.673   4.506   1.780 -0.0279 -0.4651  0.2977
 1410TIP3    H125721   1.743   4.514   1.844  1.0563 -0.7042 -0.8151
 1410TIP3    H225722   1.688   4.421   1.738 -0.9557 -0.4983  0.0053
 1411TIP3   OH225723   5.072   2.961  13.505 -0.0975 -0.2596  0.3111
 1411TIP3    H125724   5.147   2.981  13.562  0.2904  0.0279 -0.2864
 1411TIP3    H225725   5.013   2.910  13.560  0.9532 -1.2885  0.5263
 1412TIP3   OH225726   0.534   4.818  16.745 -0.2793  0.1217  0.0202
 1412TIP3    H125727   0.459   4.869  16.775 -0.0618 -0.3787  1.5034
 1412TIP3    H225728   0.556   4.856  16.660 -1.1927  1.3465  0.2939
 1413TIP3   OH225729   4.896   0.784   0.408  0.0456 -0.8789  0.5460
 1413TIP3    H125730   4.960   0.774   0.338  1.7078 -0.6240  1.9726
 1413TIP3    H225731   4.884   0.879   0.416 -1.4512 -0.9453 -0.4872
 1414TIP3   OH225732   0.053   2.755   5.153  0.6596 -0.1970 -0.1050
 1414TIP3    H125733   0.084   2.751   5.244 -2.1388 -0.5955  0.9233
 1414TIP3    H225734   0.062   2.847   5.128  0.9330  0.0250  0.7736
 1415TIP3   OH225735   4.419   6.491   5.670 -0.2240 -0.4175  0.3362
 1415TIP3    H125736   4.479   6.558   5.704  0.1730 -0.8636  0.5211
 1415TIP3    H225737   4.455   6.468   5.584 -1.3418  0.8565 -0.5102
 1416TIP3   OH225738   0.207   6.431   3.695 -0.8370  0.1923  0.3721
 1416TIP3    H125739   0.113   6.412   3.695 -1.1605  1.4747 -2.0893
 1416TIP3    H225740   0.213   6.523   3.669  1.0968  0.3668  1.2673
 1417TIP3   OH225741   0.842   2.091  16.370  0.3837 -0.5165  0.2736
 1417TIP3    H125742   0.829   2.065  16.279 -2.7801 -0.3753  0.5880
 1417TIP3    H225743   0.931   2.128  16.372  1.1488 -1.9937 -2.3520
 1418TIP3   OH225744   2.151   2.915  16.703 -0.3549  0.3625 -0.1669
 1418TIP3    H125745   2.174   3.008  16.706 -0.2748  0.3612 -0.7024
 1418TIP3    H225746   2.065   2.911  16.744 -0.6971  0.7813 -0.8308
 1419TIP3   OH225747   2.989   0.483   3.617  0.6382 -0.0569 -0.1118
 1419TIP3    H125748   2.908   0.534   3.606  0.7834  0.2239  0.1276
 1419TIP3    H225749   2.967   0.416   3.682  0.9194  0.7149  0.7974
 1420TIP3   OH225750   1.912   1.789  12.373 -0.1914 -0.1634 -0.0457
 1420TIP3    H125751   1.872   1.876  12.376  0.5013  0.1307  1.5864
 1420TIP3    H225752   1.852   1.733  12.423  0.5870 -0.0684  1.0259
 1421TIP3   OH225753   1.180   4.497  15.531  0.0427  0.4379 -0.1705
 1421TIP3    H125754   1.198   4.413  15.574 -1.5880  0.7774  1.3178
 1421TIP3    H225755   1.266   4.536  15.516  0.7744 -0.9854  0.1774
 1422TIP3   OH225756   4.799   2.046  15.938  0.3773  0.4264  0.3044
 1422TIP3    H125757   4.717   2.052  15.889 -0.1892 -0.5530  1.0917
 1422TIP3    H225758   4.854   2.115  15.901 -1.3586  2.1784  0.8346
 1423TIP3   OH225759   5.854   3.793   3.404 -0.1589  0.1285 -0.0949
 1423TIP3    H125760   5.786   3.850   3.367 -1.2768 -0.1203  1.4794
 1423TIP3    H225761   5.808   3.711   3.425  0.6924 -0.1558  0.7463
 1424TIP3   OH225762   4.036   3.302  14.805 -0.5229  0.3973  0.0798
 1424TIP3    H125763   3.992   3.352  14.873 -0.0528  0.4224  0.3745
 1424TIP3    H225764   3.968   3.280  14.742 -0.9460  0.4319  0.5272
 1425TIP3   OH225765   5.330   2.609  14.707 -0.3138 -0.0727 -0.1884
 1425TIP3    H125766   5.392   2.567  14.766  1.0720  1.3290 -0.5870
 1425TIP3    H225767   5.260   2.544  14.696 -0.6617 -0.3964  2.9635
 1426TIP3   OH225768   1.207   4.894   1.388  0.1346  0.6425 -0.5283
 1426TIP3    H125769   1.173   4.907   1.300  0.2610 -0.7905 -0.8201
 1426TIP3    H225770   1.139   4.844   1.433 -0.2247  1.9390  0.4209
 1427TIP3   OH225771   1.172   3.529   4.871 -0.3120 -0.5316 -0.2660
 1427TIP3    H125772   1.257   3.565   4.845  0.0156 -2.0223 -1.3739
 1427TIP3    H225773   1.131   3.503   4.789 -0.4077 -2.8976  0.4656
 1428TIP3   OH225774   2.230   1.596   0.652  0.4983  0.4761 -0.0222
 1428TIP3    H125775   2.184   1.512   0.656  0.2706  0.5349 -1.1510
 1428TIP3    H225776   2.177   1.650   0.593  0.4111  1.5734  0.9982
 1429TIP3   OH225777   1.612   4.914  14.897  0.7018  0.0012  0.3704
 1429TIP3    H125778   1.632   4.935  14.805 -0.2567  1.0617  0.3798
 1429TIP3    H225779   1.522   4.944  14.909  0.4321 -1.1499  1.3624
 1430TIP3   OH225780   1.688   3.416  10.470  0.4564 -0.2392 -0.3865
 1430TIP3    H125781   1.608   3.364  10.473 -0.9970  1.7653 -1.9664
 1430TIP3    H225782   1.715   3.413  10.378  0.1529  2.0183 -0.5796
 1431TIP3   OH225783   2.096   3.381  12.313 -0.0834 -0.0685  0.1566
 1431TIP3    H125784   2.168   3.444  12.311 -0.9783  1.0485  1.3458
 1431TIP3    H225785   2.101   3.336  12.229  1.2205  0.8655 -0.2974
 1432TIP3   OH225786   4.638   1.323   3.766  0.4867 -0.3172  0.4060
 1432TIP3    H125787   4.563   1.365   3.808  1.1467 -0.1749  1.4851
 1432TIP3    H225788   4.698   1.304   3.838  1.8558  0.3207 -0.5276
 1433TIP3   OH225789   6.748   1.941  14.933 -0.6107 -0.1535  0.0716
 1433TIP3    H125790   6.688   1.934  14.859  0.5746  1.9839 -1.1861
 1433TIP3    H225791   6.832   1.967  14.894  0.7245 -1.3664  1.9428
 1434TIP3   OH225792   6.269   5.851   6.138 -0.3570  0.2925 -0.1956
 1434TIP3    H125793   6.256   5.886   6.050 -0.2400 -0.6441 -0.5972
 1434TIP3    H225794   6.351   5.889   6.167  0.1878 -0.2825 -0.9482
 1435TIP3   OH225795   6.509   5.496  15.581  0.0706 -0.0623 -0.8865
 1435TIP3    H125796   6.598   5.528  15.598  0.2230  0.1092 -1.9054
 1435TIP3    H225797   6.452   5.567  15.608  0.1603 -0.5582  0.7298
 1436TIP3   OH225798   6.742   2.865  16.908 -0.1521 -0.2697 -0.4751
 1436TIP3    H125799   6.821   2.867  16.854  0.3195 -1.2632  0.1575
 1436TIP3    H225800   6.689   2.938  16.875  0.2618 -0.6318 -2.0583
 1437TIP3   OH225801   3.086   4.624  14.839 -0.1266 -0.8216 -0.1881
 1437TIP3    H125802   3.014   4.572  14.876  1.1925 -2.5243  0.1114
 1437TIP3    H225803   3.102   4.693  14.904 -1.5347 -0.3473 -0.3152
 1438TIP3   OH225804   1.598   5.233   0.408 -0.2863 -0.8099 -0.2977
 1438TIP3    H125805   1.508   5.235   0.441 -0.3759 -0.8074 -0.5415
 1438TIP3    H225806   1.629   5.144   0.428 -0.5592 -1.0177 -0.7874
 1439TIP3   OH225807   6.174   3.963  14.870  0.2169 -0.2910 -0.3695
 1439TIP3    H125808   6.155   3.937  14.779  0.0899 -1.5925  0.0169
 1439TIP3    H225809   6.269   3.956  14.877  0.6552  2.9010 -1.2890
 1440TIP3   OH225810   2.239   6.256  12.418  0.4637 -0.3439 -0.0693
 1440TIP3    H125811   2.205   6.175  12.455  0.6532 -0.3764  0.0344
 1440TIP3    H225812   2.255   6.235  12.326  1.8769 -0.8591  0.2728
 1441TIP3   OH225813   6.147   2.912   2.768  0.0507  0.5602  0.1611
 1441TIP3    H125814   6.068   2.884   2.813  0.2468  0.1936  0.2826
 1441TIP3    H225815   6.150   3.007   2.783 -0.6929  0.6767 -0.3811
 1442TIP3   OH225816   0.244   4.889  12.073 -0.3055 -0.3457  0.1425
 1442TIP3    H125817   0.184   4.889  12.148 -1.1251  0.7361 -0.4756
 1442TIP3    H225818   0.281   4.801  12.072 -1.9400 -1.0922  0.5359
 1443TIP3   OH225819   0.280   3.625   6.508  0.2734 -0.0180  0.0692
 1443TIP3    H125820   0.274   3.546   6.561  2.3544  0.9424  1.9080
 1443TIP3    H225821   0.225   3.689   6.554  0.6076  0.3034  0.0264
 1444TIP3   OH225822   0.507   3.204   2.634  0.7553 -0.1365  0.2857
 1444TIP3    H125823   0.441   3.254   2.586  2.0298  0.4430 -0.9204
 1444TIP3    H225824   0.502   3.239   2.723 -1.4296 -1.0148  0.5632
 1445TIP3   OH225825   0.730   4.577  10.353 -0.1904  0.0974 -0.1891
 1445TIP3    H125826   0.638   4.568  10.328 -0.9117 -0.6309  2.4222
 1445TIP3    H225827   0.739   4.670  10.376 -0.6952 -0.1052  0.8998
 1446TIP3   OH225828   0.888   1.854  11.411 -0.5004  0.5666 -0.1471
 1446TIP3    H125829   0.894   1.821  11.322  0.5032  0.7797 -0.1652
 1446TIP3    H225830   0.977   1.851  11.445 -0.7757  0.9997  0.6686
 1447TIP3   OH225831   0.115   0.890   4.875 -0.1723  0.5824 -0.1593
 1447TIP3    H125832   0.147   0.865   4.961 -1.0701  1.3089  0.4105
 1447TIP3    H225833   0.177   0.956   4.844  0.5998 -0.2528 -0.4314
 1448TIP3   OH225834   4.304   0.127  16.783 -0.5342 -0.3201  0.4609
 1448TIP3    H125835   4.245   0.189  16.827  0.7407  1.6457 -0.4547
 1448TIP3    H225836   4.257   0.044  16.786 -2.9715  0.9565  0.5291
 1449TIP3   OH225837   3.484   0.542   3.221 -0.3232 -0.4725  0.2538
 1449TIP3    H125838   3.531   0.478   3.274 -1.2950 -0.4622  1.1614
 1449TIP3    H225839   3.536   0.622   3.229  0.6758 -1.0215 -0.5561
 1450TIP3   OH225840   5.934   4.415   2.472  0.5379 -0.0138  0.0569
 1450TIP3    H125841   5.935   4.340   2.531  1.8444 -0.9564 -1.1093
 1450TIP3    H225842   5.986   4.481   2.517  0.2497 -0.1680  0.6275
 1451TIP3   OH225843   3.744   2.212  14.167 -0.0366  0.3082  0.0604
 1451TIP3    H125844   3.686   2.137  14.183  0.1550  0.6364  2.6762
 1451TIP3    H225845   3.707   2.283  14.219  0.6472  1.6479 -1.1831
 1452TIP3   OH225846   2.459   0.705  13.253  0.1044 -0.1706 -0.1559
 1452TIP3    H125847   2.538   0.759  13.249 -0.8040  1.3692  1.3073
 1452TIP3    H225848   2.423   0.708  13.165  0.9130  0.2850 -0.4849
 1453TIP3   OH225849   1.075   3.429   6.259  0.2643  0.1166 -0.4665
 1453TIP3    H125850   1.007   3.495   6.242 -0.7409 -0.5812  0.6570
 1453TIP3    H225851   1.040   3.349   6.219  1.3721  0.1802 -1.6258
 1454TIP3   OH225852   5.208   2.964   4.345  0.2366 -0.4014 -0.2759
 1454TIP3    H125853   5.185   2.893   4.405 -2.1424 -0.9925 -1.7239
 1454TIP3    H225854   5.136   3.027   4.353  1.0040  0.5974 -0.8934
 1455TIP3   OH225855   0.665   0.500  13.634  0.3849 -0.2836  0.1362
 1455TIP3    H125856   0.672   0.473  13.726  0.0889 -0.3341  0.1457
 1455TIP3    H225857   0.583   0.460  13.604 -1.0525  2.0550  0.6482
 1456TIP3   OH225858   0.253   0.365   2.182 -0.0802 -0.3728 -0.4829
 1456TIP3    H125859   0.224   0.411   2.260 -0.6674 -0.2469 -0.7721
 1456TIP3    H225860   0.194   0.290   2.174  1.0747 -1.3906  0.1681
 1457TIP3   OH225861   3.436   6.576   5.732  0.1416  0.4148 -0.0198
 1457TIP3    H125862   3.438   6.624   5.815  1.5615  0.8855 -0.2990
 1457TIP3    H225863   3.506   6.616   5.680 -1.6124  1.0771 -1.9953
 1458TIP3   OH225864   0.105   4.907  16.873 -0.4384 -0.1312 -0.3083
 1458TIP3    H125865   0.123   4.822  16.912 -0.6300 -0.3512 -0.6956
 1458TIP3    H225866   0.010   4.909  16.861 -0.4726  0.2765  0.0206
 1459TIP3   OH225867   5.525   5.182  13.175 -0.2858  0.1570  0.0081
 1459TIP3    H125868   5.440   5.219  13.200 -0.9214 -1.4364  0.3331
 1459TIP3    H225869   5.539   5.110  13.236  0.3093 -0.9282 -1.3542
 1460TIP3   OH225870   6.764   0.695   4.415 -0.1401  0.0562  0.0214
 1460TIP3    H125871   6.781   0.779   4.371 -0.0216 -0.0258 -0.0884
 1460TIP3    H225872   6.731   0.720   4.501  0.8254  0.2201  0.3542
 1461TIP3   OH225873   1.146   0.888  16.766  0.2673  0.1902 -0.4343
 1461TIP3    H125874   1.155   0.834  16.845 -3.3582 -0.7043 -0.4745
 1461TIP3    H225875   1.138   0.824  16.695  0.2846  0.9282 -1.1014
 1462TIP3   OH225876   1.620   1.103   2.166 -0.0467 -0.4218  0.0641
 1462TIP3    H125877   1.641   1.119   2.258 -1.6635 -0.5552  0.4872
 1462TIP3    H225878   1.647   1.183   2.121 -0.2076  0.0721  0.8280
 1463TIP3   OH225879   0.908   1.769  12.200 -0.5036  0.1842 -0.0416
 1463TIP3    H125880   0.919   1.760  12.294 -2.5605 -0.0898  0.2093
 1463TIP3    H225881   0.981   1.720  12.163 -0.5731 -1.0804  1.4029
 1464TIP3   OH225882   1.728   4.065  15.034  0.8780 -0.6674  0.2950
 1464TIP3    H125883   1.768   4.131  15.091 -1.1782 -1.0592  2.3409
 1464TIP3    H225884   1.773   3.984  15.057 -0.0946 -0.8639  1.5773
 1465TIP3   OH225885   5.859   0.318   3.849 -0.0626  0.1689 -0.0549
 1465TIP3    H125886   5.815   0.402   3.859  1.5827  1.1870 -0.9782
 1465TIP3    H225887   5.915   0.310   3.926  0.0412  0.0700 -0.1393
 1466TIP3   OH225888   0.547   1.384   3.961 -0.2543 -0.4124 -0.5195
 1466TIP3    H125889   0.598   1.454   3.999  0.2199 -1.5292  0.9925
 1466TIP3    H225890   0.612   1.323   3.925 -0.6665  1.0490 -4.1878
 1467TIP3   OH225891   6.717   5.414   1.611 -0.2019  0.6976 -0.1526
 1467TIP3    H125892   6.805   5.422   1.574 -0.0066 -0.8819 -0.1032
 1467TIP3    H225893   6.660   5.397   1.536 -0.6282  2.4837 -0.2830
 1468TIP3   OH225894   1.560   5.697  11.072 -0.0173 -0.5919 -0.6276
 1468TIP3    H125895   1.548   5.790  11.051  0.7082 -0.1173  0.9061
 1468TIP3    H225896   1.643   5.674  11.031 -0.4685 -0.7287 -1.4831
 1469TIP3   OH225897   3.632   5.312   1.737 -0.0553 -0.2546  0.1499
 1469TIP3    H125898   3.603   5.314   1.646  2.5480 -0.5853 -0.7444
 1469TIP3    H225899   3.609   5.225   1.768 -0.1901 -0.4337 -0.4503
 1470TIP3   OH225900   4.511   3.799  13.753 -0.1736 -0.0296 -0.3237
 1470TIP3    H125901   4.589   3.744  13.743  0.3354  0.3285  1.4046
 1470TIP3    H225902   4.510   3.853  13.674  1.9282  0.6824  0.0792
 1471TIP3   OH225903   4.559   5.733   2.635 -0.2831  0.8759  0.1610
 1471TIP3    H125904   4.635   5.679   2.655 -0.3249  0.1225 -1.5484
 1471TIP3    H225905   4.510   5.737   2.717  1.3052  0.9293  1.1504
 1472TIP3   OH225906   0.126   3.153  16.564 -0.1617 -0.3091  0.2884
 1472TIP3    H125907   0.130   3.249  16.568  0.3867 -0.2787 -0.6682
 1472TIP3    H225908   0.044   3.131  16.609 -1.9149  0.8265 -2.1231
 1473TIP3   OH225909   2.078   3.875  13.373 -0.0388 -0.6328  0.6356
 1473TIP3    H125910   2.070   3.821  13.452 -2.0635 -1.1157  0.1648
 1473TIP3    H225911   2.157   3.844  13.331  0.9576 -0.5334  2.3285
 1474TIP3   OH225912   0.491   4.451   3.415 -0.2215 -0.0723 -0.1726
 1474TIP3    H125913   0.409   4.485   3.380 -1.0990 -0.9117  1.0022
 1474TIP3    H225914   0.470   4.425   3.505  0.8142 -2.1265 -0.4644
 1475TIP3   OH225915   5.560   2.812  15.544 -0.2731  0.0201 -0.1729
 1475TIP3    H125916   5.566   2.886  15.483 -2.4129 -0.1941 -0.7320
 1475TIP3    H225917   5.651   2.791  15.565  0.4253  2.0469 -0.9172
 1476TIP3   OH225918   0.160   0.707   3.210  0.7152  0.1739 -0.4534
 1476TIP3    H125919   0.101   0.719   3.135 -0.4696 -0.6409  0.3273
 1476TIP3    H225920   0.233   0.656   3.174  0.9451  1.1326 -1.4130
 1477TIP3   OH225921   3.389   0.007   3.915 -0.5619 -0.1543  0.0819
 1477TIP3    H125922   3.371   0.100   3.928 -1.8592 -0.5268  1.2124
 1477TIP3    H225923   3.462  -0.012   3.974  0.4940  0.3578 -1.0088
 1478TIP3   OH225924   4.182   0.913  13.053  0.1566  0.0091  0.0079
 1478TIP3    H125925   4.217   0.894  12.966  0.5930  0.9013 -0.0142
 1478TIP3    H225926   4.233   0.857  13.112  0.2611 -0.1612 -0.2435
 1479TIP3   OH225927   4.295   5.478   2.657 -0.1820  0.4927 -0.4190
 1479TIP3    H125928   4.223   5.469   2.720 -0.3276 -1.7067 -0.8432
 1479TIP3    H225929   4.374   5.477   2.711 -0.3747  2.9245  0.0507
 1480TIP3   OH225930   4.897   4.206  12.872 -0.1595 -0.0177  0.0716
 1480TIP3    H125931   4.807   4.176  12.860  0.3162 -2.3448  1.7844
 1480TIP3    H225932   4.901   4.233  12.963  0.9299 -0.1600  0.0714
 1481TIP3   OH225933   2.965   2.742  16.240 -0.6958 -0.0049 -0.3402
 1481TIP3    H125934   2.882   2.719  16.283 -0.5032 -0.5508 -0.2552
 1481TIP3    H225935   2.954   2.833  16.215 -1.3519 -0.0913 -0.3878
 1482TIP3   OH225936   4.871   3.825   1.026  0.2853  0.2370  0.4111
 1482TIP3    H125937   4.966   3.813   1.025  0.4000  1.0547 -0.4408
 1482TIP3    H225938   4.858   3.909   1.070  0.1181  1.0331 -1.0551
 1483TIP3   OH225939   5.305   4.343   5.329 -0.1080 -0.4948  0.5760
 1483TIP3    H125940   5.323   4.435   5.309  1.4413 -0.9068 -0.0554
 1483TIP3    H225941   5.219   4.344   5.371 -0.0432  1.2536  0.7339
 1484TIP3   OH225942   4.283   4.188   4.542  0.3726  0.0098 -0.7881
 1484TIP3    H125943   4.312   4.274   4.575  2.1924 -0.9125  0.2116
 1484TIP3    H225944   4.319   4.183   4.454  0.7743  0.0423 -0.6282
 1485TIP3   OH225945   2.871   0.700   1.694  0.3319  0.6809 -0.4532
 1485TIP3    H125946   2.952   0.661   1.659  0.6054 -2.6922  3.2005
 1485TIP3    H225947   2.902   0.774   1.748  1.3088 -1.2406  1.8115
 1486TIP3   OH225948   5.883   1.974   3.980  0.3321  0.3708  0.1308
 1486TIP3    H125949   5.820   2.024   4.032  0.1207  0.8056 -0.5275
 1486TIP3    H225950   5.887   1.888   4.022 -0.1541  0.5783  0.6049
 1487TIP3   OH225951   0.859   1.538   5.741 -0.0770  0.8653 -0.6355
 1487TIP3    H125952   0.850   1.482   5.818  1.2732  0.9878 -0.3629
 1487TIP3    H225953   0.843   1.627   5.774 -0.6281  0.8119 -0.7434
 1488TIP3   OH225954   3.145   6.465   2.333  0.1303 -0.4649 -0.3406
 1488TIP3    H125955   3.173   6.529   2.268  1.1200 -0.1246  0.3877
 1488TIP3    H225956   3.188   6.493   2.414 -1.1696 -0.8022  0.4984
 1489TIP3   OH225957   0.253   1.319  15.223  0.2610 -0.3652 -0.6358
 1489TIP3    H125958   0.309   1.266  15.279  2.8005  0.5984 -2.1096
 1489TIP3    H225959   0.250   1.405  15.265  1.6671  0.1791 -1.5626
 1490TIP3   OH225960   3.477   6.203  16.602  0.0055  0.8734 -0.0298
 1490TIP3    H125961   3.571   6.217  16.595 -0.2016  1.8918 -1.1102
 1490TIP3    H225962   3.438   6.283  16.567 -1.2653  0.1772 -0.2793
 1491TIP3   OH225963   2.779   3.296  13.503 -0.0847 -0.6927  0.0733
 1491TIP3    H125964   2.718   3.305  13.430  0.3625  2.0231 -0.0857
 1491TIP3    H225965   2.807   3.205  13.501 -1.7941 -1.2352 -1.7277
 1492TIP3   OH225966   0.537   1.669   3.863  0.7583  0.3286  0.2655
 1492TIP3    H125967   0.576   1.705   3.943  1.2251  1.0053 -0.2611
 1492TIP3    H225968   0.472   1.734   3.836  0.0394 -0.2648  0.5104
 1493TIP3   OH225969   1.960   1.749  15.988 -0.6172  0.8115  0.5744
 1493TIP3    H125970   2.023   1.796  15.933  0.8290 -0.3848  1.1485
 1493TIP3    H225971   2.003   1.742  16.073 -0.7542 -1.5074  0.5174
 1494TIP3   OH225972   2.154   6.101   2.111  0.4321 -0.3072 -0.0193
 1494TIP3    H125973   2.148   6.156   2.033 -0.7788 -0.4713 -0.0735
 1494TIP3    H225974   2.122   6.156   2.182  2.1067  0.0400  0.4956
 1495TIP3   OH225975   1.050   0.036  15.690 -0.2154 -0.0670 -0.2237
 1495TIP3    H125976   1.049  -0.032  15.758 -0.7905 -0.7197 -0.8704
 1495TIP3    H225977   1.133   0.022  15.644 -0.4792 -0.5607 -0.5660
 1496TIP3   OH225978   1.150   3.649   3.159  0.0661 -0.0053 -0.3832
 1496TIP3    H125979   1.075   3.701   3.130 -0.2795  0.1594  0.7364
 1496TIP3    H225980   1.125   3.558   3.145 -0.1933  0.0632 -0.3598
 1497TIP3   OH225981   2.727   2.404   3.770 -0.1070  0.0468 -0.4606
 1497TIP3    H125982   2.661   2.347   3.731  0.3744 -0.9033  0.0978
 1497TIP3    H225983   2.810   2.360   3.756  0.4723  1.3401 -1.3384
 1498TIP3   OH225984   0.027   4.716  13.987  0.2501  0.2595  0.7807
 1498TIP3    H125985  -0.056   4.741  14.027  0.7609  0.8109  1.5309
 1498TIP3    H225986   0.041   4.781  13.919 -0.6717 -0.7399 -0.4033
 1499TIP3   OH225987   5.639   0.507   4.563  0.8237 -0.2298  0.1668
 1499TIP3    H125988   5.710   0.565   4.536  0.9337 -1.1752 -1.7168
 1499TIP3    H225989   5.660   0.483   4.653 -0.1627  3.9696  1.7461
 1500TIP3   OH225990   5.926   1.209  16.715 -0.0725 -0.1194 -0.5728
 1500TIP3    H125991   5.835   1.237  16.723  0.4118  1.4979 -0.5274
 1500TIP3    H225992   5.974   1.288  16.690  1.4481 -0.7591  0.1925
 1501TIP3   OH225993   1.416   2.474   5.031  0.4585 -0.0938  0.0976
 1501TIP3    H125994   1.343   2.500   5.088 -0.6125  0.2335 -1.3602
 1501TIP3    H225995   1.479   2.433   5.090 -0.0897  1.2402  1.6801
 1502TIP3   OH225996   2.684   5.761   0.461 -0.1986  0.3422 -0.4328
 1502TIP3    H125997   2.771   5.795   0.441  0.0318 -0.3729 -0.6566
 1502TIP3    H225998   2.699   5.670   0.487 -0.7449  0.5550  0.6946
 1503TIP3   OH225999   1.603   4.917   0.203 -0.2696 -0.4579 -0.0529
 1503TIP3    H126000   1.648   4.889   0.124 -0.2147  0.7498 -0.4675
 1503TIP3    H226001   1.673   4.941   0.264 -0.3268  1.2049 -0.6180
 1504TIP3   OH226002   3.690   4.543   3.647  0.1641 -0.3248  0.1348
 1504TIP3    H126003   3.660   4.625   3.610 -0.5527 -0.0952  1.1729
 1504TIP3    H226004   3.731   4.567   3.730  2.3853 -0.7464 -0.7588
 1505TIP3   OH226005   6.803   1.001  15.062 -0.5765  0.2554  0.0964
 1505TIP3    H126006   6.879   0.943  15.062 -0.4518  0.4177 -0.3493
 1505TIP3    H226007   6.735   0.951  15.018 -0.6432  0.2235  0.2353
 1506TIP3   OH226008   2.320   2.505  12.812  0.2788  0.3336 -0.3707
 1506TIP3    H126009   2.325   2.417  12.775 -1.5318 -1.4413  3.1032
 1506TIP3    H226010   2.356   2.496  12.900 -2.2445  2.4271  1.0170
 1507TIP3   OH226011   0.330   0.021   4.286  0.0998  0.4986  0.0212
 1507TIP3    H126012   0.355   0.068   4.206 -0.8328  2.3876  0.7837
 1507TIP3    H226013   0.290  -0.061   4.255  0.7846  0.6699 -1.3860
 1508TIP3   OH226014   4.667   2.460  11.920  0.4516 -0.5273  0.3962
 1508TIP3    H126015   4.658   2.487  11.828 -1.1576  1.9305  1.1666
 1508TIP3    H226016   4.752   2.416  11.924  1.2705  0.6642 -1.9732
 1509TIP3   OH226017   0.934   0.124  11.928  0.0657  0.0533  0.4347
 1509TIP3    H126018   0.886   0.077  11.860 -0.9162 -1.9928  2.4290
 1509TIP3    H226019   1.005   0.065  11.953 -0.3197  0.2102  1.9990
 1510TIP3   OH226020   0.740   1.395   5.565 -0.2381  0.2369  0.5774
 1510TIP3    H126021   0.661   1.448   5.564 -0.2219  0.2704  0.8997
 1510TIP3    H226022   0.796   1.435   5.631  0.3343  0.6174 -0.1204
 1511TIP3   OH226023   1.450   6.569  16.486 -0.7171  0.4318 -0.3850
 1511TIP3    H126024   1.466   6.569  16.392 -2.2947 -3.2913 -0.8342
 1511TIP3    H226025   1.491   6.489  16.517 -0.7848  1.2534  2.0354
 1512TIP3   OH226026   0.924   2.090   4.094 -0.5657  0.1841 -0.1481
 1512TIP3    H126027   0.918   2.185   4.098  0.8297  0.3591 -1.2195
 1512TIP3    H226028   1.002   2.068   4.145 -0.6533 -0.3380 -0.2286
 1513TIP3   OH226029   5.775   0.926   3.344 -0.2554 -0.0955 -0.0369
 1513TIP3    H126030   5.720   0.848   3.348  0.1732 -0.3695  0.6194
 1513TIP3    H226031   5.814   0.932   3.431 -1.7805  1.9247  0.5911
 1514TIP3   OH226032   0.995   2.453  14.531 -0.4158  0.1865 -0.2986
 1514TIP3    H126033   0.940   2.426  14.458 -0.0085  1.3161 -1.0483
 1514TIP3    H226034   0.968   2.543  14.549 -1.3380 -0.4370  1.7472
 1515TIP3   OH226035   3.053   0.281  13.925  0.6214  0.5627 -0.3920
 1515TIP3    H126036   3.019   0.350  13.869 -2.3664 -0.2530  0.2551
 1515TIP3    H226037   3.133   0.318  13.964 -0.2162  3.1655 -0.9811
 1516TIP3   OH226038   5.196   5.440   6.127 -0.0728 -0.4633 -0.4796
 1516TIP3    H126039   5.111   5.445   6.171 -0.2399  0.6237 -0.8885
 1516TIP3    H226040   5.249   5.509   6.168  0.4856 -0.8711 -0.4975
 1517TIP3   OH226041   0.057   3.121   4.833 -0.5147 -0.1752 -0.3540
 1517TIP3    H126042  -0.038   3.124   4.825 -0.5736  0.1857  0.3471
 1517TIP3    H226043   0.076   3.177   4.908  0.2194 -0.5563 -0.2440
 1518TIP3   OH226044   1.334   3.313  16.223  0.2669  0.2178  0.2086
 1518TIP3    H126045   1.249   3.320  16.179 -0.8813 -2.6995  1.7364
 1518TIP3    H226046   1.398   3.332  16.154 -1.5753  1.0613 -1.3494
 1519TIP3   OH226047   3.667   2.014  11.001 -0.0173 -0.3104 -0.0049
 1519TIP3    H126048   3.716   2.070  11.062 -2.1523  0.6808  0.9090
 1519TIP3    H226049   3.674   2.059  10.917  0.9160 -0.3704  0.0351
 1520TIP3   OH226050   4.731   6.852  12.361  0.0687  0.3320 -0.1727
 1520TIP3    H126051   4.815   6.865  12.319 -0.0542 -2.6231 -1.5937
 1520TIP3    H226052   4.751   6.800  12.439 -0.4410 -0.6925 -0.7077
 1521TIP3   OH226053   1.821   3.979  13.371 -0.1505 -0.1424 -0.2538
 1521TIP3    H126054   1.825   4.074  13.376 -0.8696 -0.1371  0.5528
 1521TIP3    H226055   1.913   3.951  13.364  0.2728  0.5218  1.8300
 1522TIP3   OH226056   2.762   4.663   2.440  0.6553  0.1704 -0.4496
 1522TIP3    H126057   2.711   4.607   2.497 -0.3558  0.5320 -0.9761
 1522TIP3    H226058   2.847   4.672   2.484 -0.3813  1.2010  1.4798
 1523TIP3   OH226059   3.003   0.298   2.308 -0.5232 -0.0253  0.0340
 1523TIP3    H126060   2.959   0.251   2.378 -1.0428 -1.6136 -1.2849
 1523TIP3    H226061   2.956   0.272   2.228 -0.0628  1.8419 -0.8962
 1524TIP3   OH226062   0.781   6.372   2.142  0.5272 -0.8885  0.5694
 1524TIP3    H126063   0.802   6.334   2.228  0.5115 -0.5564  0.7196
 1524TIP3    H226064   0.819   6.310   2.080  3.1231  0.2901  0.8320
 1525TIP3   OH226065   6.074   0.495  12.349 -0.1761 -0.0155  0.2318
 1525TIP3    H126066   6.115   0.417  12.387  1.3640  0.6949  0.1300
 1525TIP3    H226067   6.138   0.527  12.286 -1.1217  0.9055 -0.2907
 1526TIP3   OH226068   1.851   0.704  13.055 -0.6805  0.3060  0.4160
 1526TIP3    H126069   1.797   0.780  13.034 -0.6751  0.0539 -0.5459
 1526TIP3    H226070   1.934   0.720  13.009 -0.9960 -0.6954 -0.5314
 1527TIP3   OH226071   2.480   5.546   5.563 -0.4165  0.7846 -0.2756
 1527TIP3    H126072   2.481   5.454   5.589  0.7585  0.7920 -0.2301
 1527TIP3    H226073   2.394   5.559   5.523 -0.5379 -0.3753 -0.4305
 1528TIP3   OH226074   6.809   0.919   0.095 -0.3727  0.4543  0.0774
 1528TIP3    H126075   6.787   0.826   0.104  1.4420  0.0172  0.5194
 1528TIP3    H226076   6.820   0.949   0.185  0.8435  0.6087 -0.1117
 1529TIP3   OH226077   2.952   6.127  11.391 -0.3107  0.3457 -0.7423
 1529TIP3    H126078   2.881   6.069  11.366  0.4333 -0.5512 -0.8376
 1529TIP3    H226079   2.995   6.150  11.308 -0.4698  0.8609 -0.6846
 1530TIP3   OH226080   3.978   3.725   4.441  0.1146 -0.1721  0.3634
 1530TIP3    H126081   3.941   3.645   4.479  0.2275 -1.5883 -2.2981
 1530TIP3    H226082   3.906   3.788   4.444 -0.4464 -0.8266  1.1824
 1531TIP3   OH226083   5.668   3.784  13.931  0.3801 -0.0667 -0.3297
 1531TIP3    H126084   5.657   3.700  13.886 -0.0370  1.1836 -2.7851
 1531TIP3    H226085   5.706   3.762  14.016 -0.2165 -2.7516 -0.6780
 1532TIP3   OH226086   0.171   0.805   2.287  0.1827  0.2938  0.3784
 1532TIP3    H126087   0.132   0.874   2.234  0.0840  1.7314  2.1997
 1532TIP3    H226088   0.240   0.768   2.232 -0.1595  1.4461 -0.8670
 1533TIP3   OH226089   6.449   0.951  14.313  0.0907  0.1049 -0.3530
 1533TIP3    H126090   6.377   0.970  14.253 -1.2250 -0.1283  1.1148
 1533TIP3    H226091   6.434   0.861  14.341  0.2634  0.4499  0.8910
 1534TIP3   OH226092   6.815   6.674   3.900 -0.0937  0.5266 -0.1014
 1534TIP3    H126093   6.751   6.742   3.923  1.2320  2.5983 -2.0823
 1534TIP3    H226094   6.894   6.723   3.877  1.1007 -1.7575 -1.1697
 1535TIP3   OH226095   6.019   5.471   2.642 -0.1518 -0.1100 -0.2807
 1535TIP3    H126096   5.943   5.502   2.594 -0.7885 -2.1146 -0.6734
 1535TIP3    H226097   6.081   5.544   2.639 -3.0223  2.8105  2.6037
 1536TIP3   OH226098   4.855   5.071  10.556  0.4924 -0.5625  0.2151
 1536TIP3    H126099   4.888   4.995  10.509 -0.2333 -1.4769  1.1160
 1536TIP3    H226100   4.804   5.119  10.491 -2.7533 -3.1882  0.5110
 1537TIP3   OH226101   1.271   5.466  11.608 -0.1544  0.1648 -0.1039
 1537TIP3    H126102   1.290   5.449  11.700 -0.6967 -0.0036 -0.0183
 1537TIP3    H226103   1.290   5.560  11.597  1.9481 -0.2411 -0.3582
 1538TIP3   OH226104   2.137   6.026  15.197 -0.4036  0.1719  0.0153
 1538TIP3    H126105   2.075   6.086  15.238 -0.3935 -0.5911  1.2280
 1538TIP3    H226106   2.083   5.965  15.148 -0.4557  0.7932 -0.7080
 1539TIP3   OH226107   1.567   3.953   0.326  0.5826  0.0907 -0.0454
 1539TIP3    H126108   1.649   3.903   0.324  0.7902  0.4387 -0.8357
 1539TIP3    H226109   1.501   3.891   0.293  0.5799 -0.1043  0.3291
 1540TIP3   OH226110   1.088   3.955  16.735 -0.3436 -0.0838  0.3436
 1540TIP3    H126111   1.088   3.994  16.648 -0.3218 -0.1051  0.3338
 1540TIP3    H226112   1.140   4.014  16.789  0.0274 -0.3084  0.2352
 1541TIP3   OH226113   3.189   6.109  16.497 -0.6701  0.1152 -0.0063
 1541TIP3    H126114   3.123   6.152  16.551 -1.3011 -0.2424 -0.4789
 1541TIP3    H226115   3.191   6.018  16.528  0.5535  0.4204  0.8931
 1542TIP3   OH226116   6.346   3.237  16.509 -0.1645  0.2085 -0.1608
 1542TIP3    H126117   6.330   3.266  16.419 -1.2709 -0.4263 -0.1779
 1542TIP3    H226118   6.285   3.165  16.522 -1.4509  1.5808  1.7684
 1543TIP3   OH226119   2.936   5.953  16.481 -0.0143  0.7968 -0.4427
 1543TIP3    H126120   2.959   5.920  16.567 -0.7357  0.8619 -0.2167
 1543TIP3    H226121   2.859   6.009  16.496 -1.0682 -0.3493 -1.3069
 1544TIP3   OH226122   0.187   3.695  14.995 -0.0093  0.1050  0.3228
 1544TIP3    H126123   0.135   3.677  14.917 -2.1004 -0.7267  1.8220
 1544TIP3    H226124   0.154   3.778  15.027  0.3827  0.1249  0.6814
 1545TIP3   OH226125   2.837   3.136  13.221  0.2758 -0.1678 -0.0669
 1545TIP3    H126126   2.800   3.225  13.225 -0.3812 -0.3437 -1.4006
 1545TIP3    H226127   2.855   3.123  13.128  1.6792 -0.9309  0.2943
 1546TIP3   OH226128   3.424   5.288  12.630 -0.4173  0.3496  0.0051
 1546TIP3    H126129   3.507   5.260  12.592 -0.5516 -1.8465  1.1214
 1546TIP3    H226130   3.371   5.315  12.555  2.2830  5.2018 -0.5538
 1547TIP3   OH226131   6.396   4.757  12.257 -0.1303  0.4022 -0.3429
 1547TIP3    H126132   6.352   4.790  12.335  0.0897  0.3825 -0.2078
 1547TIP3    H226133   6.385   4.826  12.192 -1.8522 -0.3115 -0.8721
 1548TIP3   OH226134   6.750   4.365   2.535  0.6081 -0.7833 -0.7570
 1548TIP3    H126135   6.731   4.282   2.580 -0.8541  0.5610  1.2821
 1548TIP3    H226136   6.674   4.379   2.479  0.8273 -0.7776 -1.0565
 1549TIP3   OH226137   3.194   0.695  15.458 -0.1204  0.4160 -0.0871
 1549TIP3    H126138   3.165   0.619  15.509  0.4511  2.1239  3.0115
 1549TIP3    H226139   3.282   0.715  15.491 -1.0150  3.5775  0.7727
 1550TIP3   OH226140   5.767   0.673   1.540  0.2718 -0.5233  0.8920
 1550TIP3    H126141   5.809   0.588   1.532 -0.2252 -0.6899 -0.0038
 1550TIP3    H226142   5.790   0.719   1.460 -0.2247 -0.1571  0.9553
 1551TIP3   OH226143   0.279   4.415  11.584  0.5483  0.0270  0.0576
 1551TIP3    H126144   0.369   4.406  11.616  0.7230 -1.5224 -0.7591
 1551TIP3    H226145   0.232   4.343  11.625 -0.4571  1.0670  0.8080
 1552TIP3   OH226146   3.802   2.123  12.603  0.5534  0.3110  0.2612
 1552TIP3    H126147   3.714   2.099  12.632  1.5093 -1.1673  2.2036
 1552TIP3    H226148   3.854   2.043  12.615  2.3650  1.3964  0.0594
 1553TIP3   OH226149   4.231   1.381   3.326 -0.4594 -0.0959  0.0387
 1553TIP3    H126150   4.259   1.344   3.410 -1.8855  0.9900  1.0574
 1553TIP3    H226151   4.313   1.406   3.283  0.3321 -1.1238  0.8884
 1554TIP3   OH226152   1.775   4.227  13.449  0.3115 -0.1811 -0.0807
 1554TIP3    H126153   1.806   4.318  13.452  0.7614 -0.2417 -1.8121
 1554TIP3    H226154   1.774   4.199  13.541  0.7848  1.3596  0.4281
 1555TIP3   OH226155   5.522   6.570  14.580  0.0014  0.7391  1.0990
 1555TIP3    H126156   5.522   6.539  14.670  0.5657  0.1339  0.8979
 1555TIP3    H226157   5.614   6.587  14.560 -0.2018  1.6810  0.9037
 1556TIP3   OH226158   2.223   5.024  11.567 -0.1585  0.0698  0.3039
 1556TIP3    H126159   2.280   4.958  11.606  0.5754  0.8008  0.4962
 1556TIP3    H226160   2.207   5.087  11.637  1.1220  1.3596 -0.5082
 1557TIP3   OH226161   0.553   2.418  14.054 -0.0719 -0.0583  0.4685
 1557TIP3    H126162   0.459   2.409  14.039 -0.2597  0.3581  1.3588
 1557TIP3    H226163   0.561   2.484  14.123  0.9584  1.4857 -1.0220
 1558TIP3   OH226164   2.207   0.139   1.595  0.4001 -0.4536 -0.2338
 1558TIP3    H126165   2.144   0.110   1.530 -1.2354  0.9836  0.6423
 1558TIP3    H226166   2.284   0.165   1.544 -1.3620  2.0775 -1.8029
 1559TIP3   OH226167   0.196   6.523  17.072 -0.0496  0.7657 -0.0877
 1559TIP3    H126168   0.154   6.608  17.087  0.3867  0.7955  1.1266
 1559TIP3    H226169   0.262   6.517  17.141  0.2836 -0.3357 -0.4782
 1560TIP3   OH226170   0.981   6.464  15.175  0.7677  0.2707  0.2651
 1560TIP3    H126171   0.925   6.513  15.235 -1.0921 -0.3558 -0.8594
 1560TIP3    H226172   0.975   6.373  15.206 -1.7084 -0.3986 -1.7646
 1561TIP3   OH226173   1.599   3.921  13.029  0.1508  0.1966  0.6078
 1561TIP3    H126174   1.576   3.895  13.119 -1.8473  1.0973  0.4150
 1561TIP3    H226175   1.595   3.839  12.979 -1.3064  0.0484  0.9020
 1562TIP3   OH226176   3.118   5.896   1.763  0.0286  0.6124 -0.5565
 1562TIP3    H126177   3.092   5.983   1.794  0.1849  0.7588 -0.8286
 1562TIP3    H226178   3.136   5.909   1.670  2.0116  0.7364 -0.1913
 1563TIP3   OH226179   5.388   1.428   4.673  0.6440 -0.0912  0.6497
 1563TIP3    H126180   5.462   1.486   4.656 -1.2985  2.8848  1.5732
 1563TIP3    H226181   5.356   1.404   4.587  2.0332 -0.5877  0.2476
 1564TIP3   OH226182   3.827   4.529   4.784 -0.6222  0.3522  0.1075
 1564TIP3    H126183   3.830   4.481   4.701  3.7358 -1.9097  1.2829
 1564TIP3    H226184   3.785   4.468   4.845 -1.4736  0.9903  0.1870
 1565TIP3   OH226185   4.909   1.498   3.800  0.1533 -0.1750 -0.3674
 1565TIP3    H126186   4.865   1.428   3.848 -0.9958  0.7537 -0.0084
 1565TIP3    H226187   4.885   1.483   3.709 -0.3836 -0.0508 -0.2490
 1566TIP3   OH226188   3.834   0.219  15.060  0.1288 -0.0428  0.0137
 1566TIP3    H126189   3.860   0.265  15.140 -0.6205 -0.5948  0.5889
 1566TIP3    H226190   3.739   0.233  15.054  0.4507  2.0517 -2.1043
 1567TIP3   OH226191   4.803   3.226   2.022 -0.9557  0.4842  0.7688
 1567TIP3    H126192   4.839   3.209   2.109  1.2041  0.4585 -0.0639
 1567TIP3    H226193   4.848   3.164   1.965 -0.8549  1.8027 -0.6536
 1568TIP3   OH226194   0.977   5.812   2.318 -0.0548  0.0558  0.0222
 1568TIP3    H126195   1.012   5.891   2.275  2.1004 -1.4225 -1.1296
 1568TIP3    H226196   0.990   5.829   2.411 -0.1148  1.2815 -0.1732
 1569TIP3   OH226197   1.243   6.175  12.574 -0.1185  0.2183  0.0774
 1569TIP3    H126198   1.182   6.134  12.512  0.5715 -3.0745  1.3442
 1569TIP3    H226199   1.188   6.225  12.634 -1.2198 -0.0555 -0.6853
 1570TIP3   OH226200   4.683   0.709  12.164 -0.3865 -0.3598  0.3129
 1570TIP3    H126201   4.701   0.674  12.077 -1.1985 -1.0769  0.4203
 1570TIP3    H226202   4.626   0.784  12.149 -1.4897 -1.1887  0.2886
 1571TIP3   OH226203   0.951   3.335  12.661 -0.0672  0.1667 -0.5724
 1571TIP3    H126204   0.968   3.424  12.692  0.6907  0.6340 -2.1878
 1571TIP3    H226205   0.927   3.286  12.740  2.1543  1.1545  0.8286
 1572TIP3   OH226206   4.154   6.636  12.586 -0.0599 -0.5496  0.3321
 1572TIP3    H126207   4.093   6.606  12.654  0.4061  1.7289  1.8792
 1572TIP3    H226208   4.232   6.583  12.600 -1.3365 -3.0173 -1.2264
 1573TIP3   OH226209   3.030   0.985  16.868 -0.0201  0.6919 -0.0961
 1573TIP3    H126210   3.093   1.057  16.876 -0.7766  1.3378  0.1348
 1573TIP3    H226211   3.029   0.945  16.955  0.8345  0.0220 -0.3829
 1574TIP3   OH226212   6.181   6.213  15.274 -0.0422  0.2387  0.0903
 1574TIP3    H126213   6.252   6.161  15.237  0.3096  1.4589 -0.9981
 1574TIP3    H226214   6.111   6.149  15.290  0.2914 -0.5543 -1.4374
 1575TIP3   OH226215   1.218   5.927  14.997 -0.3317  0.5874  0.4180
 1575TIP3    H126216   1.236   6.002  15.053  0.5096 -0.3034  1.3668
 1575TIP3    H226217   1.245   5.851  15.048 -2.4506 -0.4935  0.0377
 1576TIP3   OH226218   4.822   2.618  12.433 -0.5349  0.2014 -0.2334
 1576TIP3    H126219   4.911   2.611  12.467 -0.8251  1.2238  0.7835
 1576TIP3    H226220   4.821   2.560  12.357  1.3984  1.2510 -1.1155
 1577TIP3   OH226221   2.730   4.816   4.687  0.1430  0.4402 -0.2618
 1577TIP3    H126222   2.754   4.817   4.779 -0.0944 -1.5795 -0.1324
 1577TIP3    H226223   2.643   4.778   4.685  1.1318 -1.9719 -1.4553
 1578TIP3   OH226224   2.460   1.244  11.448  0.1282 -0.6832 -0.5514
 1578TIP3    H126225   2.481   1.151  11.444 -1.0987 -1.0758  0.9493
 1578TIP3    H226226   2.397   1.251  11.521 -0.5276  1.1687 -1.2346
 1579TIP3   OH226227   3.895   3.848   0.435  0.1446  0.2306 -0.3324
 1579TIP3    H126228   3.977   3.896   0.437 -0.5194  1.4152 -0.5487
 1579TIP3    H226229   3.834   3.902   0.486 -0.4481 -0.7332  0.0140
 1580TIP3   OH226230   2.600   6.205   3.249  0.7509  0.0951  0.0562
 1580TIP3    H126231   2.512   6.237   3.227  0.6027  0.5409  1.2310
 1580TIP3    H226232   2.652   6.224   3.171 -0.3040 -0.6782 -0.8734
 1581TIP3   OH226233   2.916   1.906   5.366 -0.0192  0.2933 -0.1790
 1581TIP3    H126234   2.843   1.879   5.309 -0.1312  2.2126 -1.0129
 1581TIP3    H226235   2.994   1.890   5.313 -0.0132  0.6277 -0.2698
 1582TIP3   OH226236   4.280   3.669  15.485  0.0275  0.6182  0.1828
 1582TIP3    H126237   4.193   3.708  15.497  0.0947  0.8901 -0.1674
 1582TIP3    H226238   4.264   3.575  15.481 -0.2960  0.6887 -0.2561
 1583TIP3   OH226239   2.018   5.135   6.130 -0.0072  0.1110 -0.7160
 1583TIP3    H126240   2.076   5.199   6.089 -0.3067 -0.3318 -1.8652
 1583TIP3    H226241   2.047   5.131   6.221  0.6945  1.1007 -0.8832
 1584TIP3   OH226242   1.424   1.847  16.708 -0.2420  0.5609 -0.1479
 1584TIP3    H126243   1.372   1.767  16.706 -2.1384  1.6203  1.7686
 1584TIP3    H226244   1.497   1.826  16.766 -0.6931  0.1870  0.3004
 1585TIP3   OH226245   4.750   2.840   0.155 -0.0004  0.2954  0.1865
 1585TIP3    H126246   4.678   2.786   0.124 -0.5451  1.6895 -1.1004
 1585TIP3    H226247   4.801   2.860   0.076  2.7845 -1.9479  1.2371
 1586TIP3   OH226248   5.474   0.023   0.663 -0.2928 -0.8247  0.3186
 1586TIP3    H126249   5.464   0.050   0.572  0.8214  0.4476  0.5438
 1586TIP3    H226250   5.395   0.055   0.707 -0.2334 -0.3040  0.0518
 1587TIP3   OH226251   1.981   0.450   2.516  0.7230  0.3125  0.1383
 1587TIP3    H126252   2.053   0.417   2.569 -0.7725 -1.6278  1.0892
 1587TIP3    H226253   1.949   0.527   2.563  0.6759 -0.2244  1.0075
 1588TIP3   OH226254   3.120   1.509  12.586  0.2986  0.1557  0.1807
 1588TIP3    H126255   3.180   1.511  12.661  0.8611 -0.6352 -0.2369
 1588TIP3    H226256   3.035   1.533  12.623  0.5818 -0.1470  1.0613
 1589TIP3   OH226257   0.950   2.143   2.741  0.0312  0.0398 -0.4745
 1589TIP3    H126258   0.856   2.155   2.727 -0.0189  1.2045  0.6947
 1589TIP3    H226259   0.969   2.056   2.704 -1.4600 -0.1413 -0.8679
 1590TIP3   OH226260   6.349   0.882  11.607 -0.1253  0.1188  0.3145
 1590TIP3    H126261   6.299   0.801  11.597 -0.3976  0.2408  0.6612
 1590TIP3    H226262   6.304   0.929  11.677 -0.6252  1.0742 -0.6223
 1591TIP3   OH226263   5.217   6.331   5.334  0.2299  0.2260  0.0236
 1591TIP3    H126264   5.271   6.367   5.264 -0.4474 -0.6974 -0.9938
 1591TIP3    H226265   5.131   6.316   5.294  0.2415 -1.7098  0.6295
 1592TIP3   OH226266   1.679   0.201  14.337 -0.0041  0.3272 -0.6704
 1592TIP3    H126267   1.659   0.292  14.360 -1.9310 -0.1059 -0.4592
 1592TIP3    H226268   1.753   0.208  14.276  1.1118  1.8876  0.7751
 1593TIP3   OH226269   4.666   0.820  10.415 -0.3197  0.0843  0.2873
 1593TIP3    H126270   4.676   0.914  10.427 -0.3731  0.0033  1.0775
 1593TIP3    H226271   4.590   0.810  10.358 -0.4061  0.5209  0.3247
 1594TIP3   OH226272   6.396   0.118   0.544  0.2448 -0.2207  0.5585
 1594TIP3    H126273   6.354   0.187   0.596  2.7195  1.3700  0.6079
 1594TIP3    H226274   6.437   0.061   0.608  2.0974  0.9416  0.4765
 1595TIP3   OH226275   5.342   3.575   1.674 -0.7354 -0.6143  0.6694
 1595TIP3    H126276   5.268   3.545   1.727  1.0272 -1.1815  2.9604
 1595TIP3    H226277   5.413   3.514   1.695  0.4843  0.0570 -1.2671
 1596TIP3   OH226278   6.802   1.351   3.870  0.2430  0.5236 -0.0169
 1596TIP3    H126279   6.804   1.444   3.893 -1.2775  0.6315 -0.1911
 1596TIP3    H226280   6.843   1.307   3.944  0.1901  1.2724  0.4682
 1597TIP3   OH226281   6.751   5.455   3.258  0.1483 -0.3011 -0.1200
 1597TIP3    H126282   6.747   5.361   3.275 -2.4253 -0.4172 -0.9127
 1597TIP3    H226283   6.738   5.463   3.163  1.8178  0.8251 -0.2943
 1598TIP3   OH226284   5.880   1.521  17.101  0.5548 -0.3767 -0.4477
 1598TIP3    H126285   5.878   1.509  17.006  0.6813 -1.0944 -0.3679
 1598TIP3    H226286   5.789   1.510  17.129  0.2112  1.6157 -0.6730
 1599TIP3   OH226287   5.084   4.029  15.822  0.4311 -0.2549 -0.0292
 1599TIP3    H126288   5.038   3.971  15.762  0.5956 -1.1904  0.7206
 1599TIP3    H226289   5.038   4.019  15.905  1.8261 -1.0806  0.6888
 1600TIP3   OH226290   3.496   4.434  12.586 -0.0189 -0.3555 -0.0026
 1600TIP3    H126291   3.465   4.418  12.497 -1.2045 -0.1643  0.3608
 1600TIP3    H226292   3.433   4.496  12.623 -1.1582 -2.5070  1.8857
 1601TIP3   OH226293   0.283   5.712   2.704 -0.0613 -0.0898 -0.1242
 1601TIP3    H126294   0.376   5.691   2.696  0.0278  0.2061  0.1189
 1601TIP3    H226295   0.266   5.774   2.633 -0.4872 -1.4939 -1.2897
 1602TIP3   OH226296   5.488   5.797  12.745  0.0068 -0.1403 -0.1306
 1602TIP3    H126297   5.397   5.825  12.735 -0.4986 -0.6101  2.5497
 1602TIP3    H226298   5.539   5.871  12.712 -1.3323  0.9540  0.1482
 1603TIP3   OH226299   0.540   2.281   4.250  0.5594 -0.2134 -0.3354
 1603TIP3    H126300   0.612   2.327   4.209 -0.5569  0.6438 -1.4145
 1603TIP3    H226301   0.525   2.205   4.194  0.1744 -0.0083 -0.5119
 1604TIP3   OH226302   6.224   0.813  12.375  0.4124  0.1205  0.3425
 1604TIP3    H126303   6.186   0.853  12.453  0.2233  0.1156  0.2543
 1604TIP3    H226304   6.205   0.720  12.384  1.5275 -0.0686  0.9269
 1605TIP3   OH226305   2.839   4.043  12.398 -0.5032  0.6715 -0.2834
 1605TIP3    H126306   2.825   4.050  12.303 -1.1531  0.2862 -0.2213
 1605TIP3    H226307   2.914   4.099  12.415 -0.8740  1.3785 -0.9125
 1606TIP3   OH226308   6.567   3.702  13.724 -0.1792 -0.2043 -0.4423
 1606TIP3    H126309   6.584   3.633  13.660  0.1352 -3.0114  2.4683
 1606TIP3    H226310   6.484   3.677  13.765 -0.6283  1.7865 -0.0063
 1607TIP3   OH226311   5.840   0.380   5.066 -0.2445  0.2018 -0.3759
 1607TIP3    H126312   5.904   0.412   5.002  1.0913 -1.5610  0.0213
 1607TIP3    H226313   5.805   0.300   5.027 -0.8810  0.1730  0.2351
 1608TIP3   OH226314   5.487   6.603  11.734  0.0481  0.3442  0.3197
 1608TIP3    H126315   5.415   6.596  11.798 -0.5531  0.0137 -0.3726
 1608TIP3    H226316   5.509   6.696  11.734 -0.5487  0.4954  0.3739
 1609TIP3   OH226317   2.137   2.984   3.611 -0.1700 -0.1785  0.1908
 1609TIP3    H126318   2.049   2.952   3.626  0.2612 -1.1824  0.6406
 1609TIP3    H226319   2.182   2.972   3.695  0.7423 -0.8327 -0.3751
 1610TIP3   OH226320   3.075   4.054   6.253 -0.3958 -0.2765 -0.0894
 1610TIP3    H126321   3.066   3.988   6.184 -0.4677 -1.4633  1.0124
 1610TIP3    H226322   3.141   4.115   6.220 -0.3847 -0.8651 -1.1775
 1611TIP3   OH226323   2.811   0.304   2.100  0.3676  0.2704 -0.2586
 1611TIP3    H126324   2.826   0.372   2.034 -0.3987  0.8042  0.1039
 1611TIP3    H226325   2.767   0.233   2.053  0.4038  0.3766 -0.4508
 1612TIP3   OH226326   4.888   3.552   2.246 -0.5573 -0.4163 -0.1624
 1612TIP3    H126327   4.891   3.461   2.273  0.7624 -0.8104 -1.4948
 1612TIP3    H226328   4.939   3.555   2.165  0.9333  1.8020  0.7407
 1613TIP3   OH226329   2.474   0.837  10.669  0.0942  0.0392 -0.2412
 1613TIP3    H126330   2.443   0.927  10.679  1.0478  0.2897  0.6171
 1613TIP3    H226331   2.569   0.843  10.683  0.2150 -1.0532 -0.5045
 1614TIP3   OH226332   5.026   1.737   3.797  0.4322 -0.0199 -0.1380
 1614TIP3    H126333   4.974   1.657   3.792 -0.0314  0.1225  1.6519
 1614TIP3    H226334   5.111   1.709   3.830  0.2710  0.2004  0.4846
 1615TIP3   OH226335   3.745   3.547  15.153 -0.1683  0.1829  0.1579
 1615TIP3    H126336   3.663   3.542  15.202 -0.3334 -2.1941 -0.2350
 1615TIP3    H226337   3.792   3.467  15.176  2.6476  1.9796  1.2675
 1616TIP3   OH226338   4.631   5.100   5.801 -0.0928 -0.5684  0.4784
 1616TIP3    H126339   4.688   5.131   5.872  0.1438 -1.0338  0.4973
 1616TIP3    H226340   4.653   5.157   5.727  1.3941 -1.5899  0.0851
 1617TIP3   OH226341   4.009   2.740  12.404 -0.0854 -0.0202 -0.5538
 1617TIP3    H126342   4.033   2.716  12.493 -0.1776  0.9058 -0.2707
 1617TIP3    H226343   4.079   2.799  12.375 -0.2142 -0.0727 -0.9776
 1618TIP3   OH226344   1.863   4.152   2.453  0.2868  1.1976  0.3993
 1618TIP3    H126345   1.817   4.236   2.450  0.0023  1.0668  1.1043
 1618TIP3    H226346   1.803   4.090   2.411 -0.5040  0.8826  1.9459
 1619TIP3   OH226347   1.735   2.884  13.367  0.3467 -0.1493 -0.1000
 1619TIP3    H126348   1.778   2.821  13.424  1.3961  1.2420  0.7299
 1619TIP3    H226349   1.806   2.938  13.332 -0.2424 -1.0289 -2.8962
 1620TIP3   OH226350   2.043   3.195  16.806  0.2732 -0.1964 -0.1344
 1620TIP3    H126351   2.034   3.267  16.868  2.0631 -1.0430  1.1832
 1620TIP3    H226352   1.963   3.198  16.753 -0.3589  1.8061  0.8660
 1621TIP3   OH226353   0.808   1.524   3.473  0.6859  0.8868  0.5321
 1621TIP3    H126354   0.775   1.516   3.384  2.8183  0.7523 -0.3153
 1621TIP3    H226355   0.734   1.502   3.529 -0.5916  0.5904 -1.2166
 1622TIP3   OH226356   4.308   5.120  13.074 -0.7136  0.3114  0.3427
 1622TIP3    H126357   4.366   5.194  13.090 -1.7510  1.2176  0.0573
 1622TIP3    H226358   4.317   5.064  13.151  2.1138 -0.6974 -0.5966
 1623TIP3   OH226359   4.062   1.102  14.929 -0.3737 -0.0101  0.2213
 1623TIP3    H126360   4.141   1.144  14.964  0.8358 -1.3682 -0.7946
 1623TIP3    H226361   4.009   1.084  15.007  0.3031  0.9201  0.9277
 1624TIP3   OH226362   0.601   1.602   1.148  0.0091  0.1880 -0.2507
 1624TIP3    H126363   0.629   1.541   1.080 -1.6215  0.8981 -1.6478
 1624TIP3    H226364   0.575   1.681   1.100 -1.6865  0.5316  1.1324
 1625TIP3   OH226365   3.454   5.620  11.781 -0.4331  0.3903 -0.0512
 1625TIP3    H126366   3.418   5.666  11.856 -0.4583 -0.5909  0.5570
 1625TIP3    H226367   3.511   5.553  11.819  0.4764  0.6367 -0.9417
 1626TIP3   OH226368   4.046   1.666   4.711 -0.2748 -0.1326 -0.2218
 1626TIP3    H126369   4.074   1.713   4.789 -1.8346 -0.4103  0.5383
 1626TIP3    H226370   3.971   1.716   4.679 -0.9649 -1.2172 -0.3149
 1627TIP3   OH226371   2.101   5.924  10.911 -0.0519  0.4274  0.9768
 1627TIP3    H126372   2.088   5.914  10.817  0.6242  0.2541  0.8979
 1627TIP3    H226373   2.108   6.019  10.924 -1.1864  0.5204  1.0039
 1628TIP3   OH226374   2.624   1.570  11.571  0.3101 -0.8213 -0.4466
 1628TIP3    H126375   2.693   1.633  11.589  2.2706 -1.3665 -4.6455
 1628TIP3    H226376   2.664   1.484  11.586 -0.7757 -1.1495  0.7399
 1629TIP3   OH226377   6.679   5.216   0.480  0.0163 -0.1394  0.4940
 1629TIP3    H126378   6.647   5.137   0.524 -0.5563 -0.8601 -1.1487
 1629TIP3    H226379   6.627   5.222   0.400  1.1681  1.0143 -0.1998
 1630TIP3   OH226380   0.029   4.584   3.522 -0.3127 -0.1292 -0.0500
 1630TIP3    H126381  -0.011   4.566   3.607 -0.2368 -0.6966 -0.1299
 1630TIP3    H226382   0.005   4.509   3.468  1.5023 -0.8781  0.1212
 1631TIP3   OH226383   0.433   1.292   1.489 -0.5082  0.0269  0.1200
 1631TIP3    H126384   0.358   1.236   1.508 -0.3931 -0.0231  0.4319
 1631TIP3    H226385   0.407   1.379   1.519 -0.1683 -0.1355  0.9002
 1632TIP3   OH226386   1.190   0.657  15.600 -0.5219  0.2034 -0.3134
 1632TIP3    H126387   1.110   0.710  15.591 -0.2803  1.1690  2.4691
 1632TIP3    H226388   1.167   0.587  15.660  0.6632  0.3611  0.3481
 1633TIP3   OH226389   5.724   6.266  11.440 -0.0467 -0.3298 -0.4219
 1633TIP3    H126390   5.774   6.348  11.436  0.4522 -0.6510 -0.8127
 1633TIP3    H226391   5.650   6.287  11.496  0.3667  0.2365 -0.0734
 1634TIP3   OH226392   2.043   3.910   0.179 -0.8911  0.5887  0.0052
 1634TIP3    H126393   2.114   3.855   0.144 -1.9835 -1.7564  1.2724
 1634TIP3    H226394   2.008   3.955   0.102  0.6935  0.2937 -0.9381
 1635TIP3   OH226395   1.145   3.141  16.426  0.4936 -0.2190  0.0630
 1635TIP3    H126396   1.129   3.163  16.334  1.7163 -0.7950 -0.3093
 1635TIP3    H226397   1.131   3.047  16.431  1.1561 -0.3055  0.3028
 1636TIP3   OH226398   2.139   1.688   3.737 -0.6100 -0.7941  0.2797
 1636TIP3    H126399   2.211   1.738   3.775  0.5441 -1.9904 -0.2499
 1636TIP3    H226400   2.091   1.752   3.685  0.3873 -0.0648  0.2204
 1637TIP3   OH226401   4.899   1.688  16.282 -0.2268 -0.4974  1.2508
 1637TIP3    H126402   4.956   1.743  16.227 -1.0845  0.0950  0.9259
 1637TIP3    H226403   4.944   1.604  16.286  0.6854 -0.0359  1.0275
 1638TIP3   OH226404   4.515   5.454  12.915 -0.4777  0.2791 -0.4213
 1638TIP3    H126405   4.457   5.386  12.880 -0.6794  0.1862  0.0826
 1638TIP3    H226406   4.559   5.490  12.838  0.8669 -1.5409 -0.5694
 1639TIP3   OH226407   6.481   3.808   3.270  0.0434  0.2997 -0.0384
 1639TIP3    H126408   6.401   3.842   3.231 -0.0115  1.3795  0.9726
 1639TIP3    H226409   6.462   3.716   3.288 -0.6279  0.3084 -0.6565
 1640TIP3   OH226410   4.115   4.205  15.277  0.0968  0.2381 -0.1474
 1640TIP3    H126411   4.152   4.124  15.312 -0.8045 -0.0731  0.1178
 1640TIP3    H226412   4.044   4.175  15.220  0.0950  0.8285 -0.4567
 1641TIP3   OH226413   5.700   3.370  13.257 -0.2919  0.3048  0.0508
 1641TIP3    H126414   5.626   3.309  13.258 -0.5339  0.6005  1.0312
 1641TIP3    H226415   5.663   3.450  13.220  0.0492 -0.1520 -1.3247
 1642TIP3   OH226416   2.801   5.121   6.026  0.4978 -0.6805 -0.0422
 1642TIP3    H126417   2.894   5.143   6.016 -0.3386  2.9917 -1.1643
 1642TIP3    H226418   2.771   5.177   6.097 -1.5363  1.0669 -2.1085
 1643TIP3   OH226419   0.537   6.778   1.526  0.6013 -0.0665  0.0911
 1643TIP3    H126420   0.518   6.709   1.463  0.1820 -1.0273  1.2368
 1643TIP3    H226421   0.625   6.759   1.558 -0.4102 -1.5823  2.2127
 1644TIP3   OH226422   4.644   6.213   6.467  0.2618  0.0256  0.7385
 1644TIP3    H126423   4.677   6.281   6.408 -1.1704  0.1419  0.0196
 1644TIP3    H226424   4.552   6.235   6.481 -0.3099 -1.8543  0.3189
 1645TIP3   OH226425   3.279   3.583  16.496 -0.7300 -0.1674  1.1547
 1645TIP3    H126426   3.363   3.614  16.463  0.4310 -1.9970  2.1787
 1645TIP3    H226427   3.248   3.653  16.553  0.4225  0.2853  1.2510
 1646TIP3   OH226428   1.368   2.207  14.572 -0.8102  0.3262 -0.4387
 1646TIP3    H126429   1.340   2.291  14.607 -2.1697 -0.0210 -0.6244
 1646TIP3    H226430   1.369   2.219  14.478 -1.3758  0.0450 -0.4878
 1647TIP3   OH226431   1.263   3.338  15.041  0.6759 -0.3190 -0.0499
 1647TIP3    H126432   1.175   3.358  15.070  0.4027 -1.4993 -0.0299
 1647TIP3    H226433   1.314   3.416  15.064  0.2633 -0.7396  2.5581
 1648TIP3   OH226434   1.227   0.236  12.316 -0.0156  0.5636  0.0492
 1648TIP3    H126435   1.178   0.309  12.353  0.0881  0.9203 -0.5098
 1648TIP3    H226436   1.304   0.277  12.275  0.2014  0.1137 -0.0010
 1649TIP3   OH226437   4.680   1.068  10.938  0.0517 -0.3720  0.5944
 1649TIP3    H126438   4.599   1.052  10.987  1.2016 -1.0537  2.3846
 1649TIP3    H226439   4.713   0.980  10.919 -0.1078 -0.1027 -1.0150
 1650TIP3   OH226440   3.280   5.849   4.412  0.3301 -0.0347  0.1974
 1650TIP3    H126441   3.364   5.806   4.426  0.1606 -0.3586  0.2459
 1650TIP3    H226442   3.218   5.797   4.463  0.2670  0.8141  1.0058
 1651TIP3   OH226443   1.193   2.189  15.516 -0.2060 -0.0969 -0.4079
 1651TIP3    H126444   1.131   2.166  15.585 -1.1165  0.9086 -0.8710
 1651TIP3    H226445   1.272   2.217  15.563 -0.3147 -0.7836  0.1936
 1652TIP3   OH226446   6.593   2.246  16.154 -0.5514  0.7592  0.5004
 1652TIP3    H126447   6.594   2.167  16.100  2.5635  0.5744  0.6462
 1652TIP3    H226448   6.571   2.316  16.093 -0.3675  0.1419 -0.2992
 1653TIP3   OH226449   5.439   4.427  13.587 -0.1278 -0.6517 -0.8404
 1653TIP3    H126450   5.392   4.493  13.536 -1.6117 -0.5941  0.5182
 1653TIP3    H226451   5.398   4.344  13.563 -1.1622 -0.5754  0.5311
 1654TIP3   OH226452   6.474   0.970   4.793  0.8642  0.0047 -0.2032
 1654TIP3    H126453   6.502   1.002   4.879  0.0875  3.0360 -0.9622
 1654TIP3    H226454   6.382   0.944   4.805  0.9251 -0.1274 -0.0158
 1655TIP3   OH226455   5.955   1.111   2.826 -0.0826  0.1578 -0.0016
 1655TIP3    H126456   5.891   1.165   2.871  0.0354  0.5594 -0.3120
 1655TIP3    H226457   5.981   1.045   2.891 -1.6669 -0.7457 -0.2131
 1656TIP3   OH226458   6.850   1.120  15.995 -0.0054 -0.0517  0.6123
 1656TIP3    H126459   6.896   1.189  15.948  1.0538  0.6279  2.5601
 1656TIP3    H226460   6.917   1.076  16.046  0.3191 -5.4567 -3.5238
 1657TIP3   OH226461   5.436   4.665   4.077 -0.1024  0.5532 -0.4948
 1657TIP3    H126462   5.347   4.644   4.104  0.2225 -0.7170 -0.3600
 1657TIP3    H226463   5.440   4.760   4.079 -1.3722  0.6148 -0.2421
 1658TIP3   OH226464   0.814   6.765  15.686 -0.1130 -0.0755 -0.1421
 1658TIP3    H126465   0.891   6.816  15.660 -0.0901 -0.9051 -1.8688
 1658TIP3    H226466   0.849   6.679  15.709 -0.2810  0.2871  1.6016
 1659TIP3   OH226467   6.551   2.894  13.990  0.8461 -0.4227 -0.0716
 1659TIP3    H126468   6.464   2.923  13.963  1.1925  1.5721  0.7827
 1659TIP3    H226469   6.568   2.815  13.938 -0.9238 -0.1055 -1.1895
 1660TIP3   OH226470   3.806   6.534  14.569  0.3881  0.4262 -0.6540
 1660TIP3    H126471   3.719   6.529  14.607  0.8776 -2.2878  0.2973
 1660TIP3    H226472   3.861   6.569  14.639  0.6113 -0.9181 -0.1465
 1661TIP3   OH226473   4.997   0.550  14.577 -0.2106 -0.1292 -0.1312
 1661TIP3    H126474   5.053   0.501  14.517  1.7340  0.5729  1.0179
 1661TIP3    H226475   4.909   0.514  14.563  0.4487 -1.0573 -2.2219
 1662TIP3   OH226476   6.777   4.987   5.737  0.1743 -0.6257  0.0467
 1662TIP3    H126477   6.856   5.039   5.722 -0.7661  1.0545  0.6221
 1662TIP3    H226478   6.742   5.019   5.820 -1.8541 -0.2889 -0.8640
 1663TIP3   OH226479   0.079   1.152  12.904  0.0807  0.6104 -0.2521
 1663TIP3    H126480   0.002   1.208  12.901 -0.5511 -0.2280  0.0762
 1663TIP3    H226481   0.129   1.183  12.979 -0.7660  0.0968  0.5322
 1664TIP3   OH226482   0.527   0.273   6.574  0.3525 -0.2808 -0.2600
 1664TIP3    H126483   0.509   0.360   6.538 -0.5111 -0.0246  0.7751
 1664TIP3    H226484   0.472   0.214   6.522 -1.1435  0.1260  0.8180
 1665TIP3   OH226485   1.334   1.133   1.237 -0.3792 -0.1639  0.0353
 1665TIP3    H126486   1.341   1.222   1.203  0.0183 -0.1012  0.2812
 1665TIP3    H226487   1.283   1.142   1.317  0.4941 -0.0165  0.5873
 1666TIP3   OH226488   5.216   2.738  16.274 -0.2536  0.4209  0.7116
 1666TIP3    H126489   5.130   2.780  16.263 -0.7744 -0.7652  0.0116
 1666TIP3    H226490   5.223   2.725  16.368 -1.0303  0.1776  0.7495
 1667TIP3   OH226491   1.546   4.258  11.327 -0.2747 -0.7175  0.0193
 1667TIP3    H126492   1.470   4.297  11.284 -0.4131 -1.1333 -0.1162
 1667TIP3    H226493   1.606   4.236  11.255  0.4029  0.4810  0.1818
 1668TIP3   OH226494   1.480   6.427  14.634  0.3134  0.0028 -0.5686
 1668TIP3    H126495   1.394   6.469  14.632 -0.0525 -0.6672  0.2281
 1668TIP3    H226496   1.479   6.376  14.715  1.7243  0.5230 -0.2068
 1669TIP3   OH226497   0.448   1.039  16.962 -0.9085 -0.5267  0.0268
 1669TIP3    H126498   0.499   1.108  17.005  0.1126  0.3183 -2.3515
 1669TIP3    H226499   0.404   1.084  16.890 -0.7178 -2.2241 -1.2118
 1670TIP3   OH226500   2.295   3.450  11.946  0.5026 -0.3488  0.2472
 1670TIP3    H126501   2.324   3.452  11.855  2.0207  1.8987  0.7017
 1670TIP3    H226502   2.199   3.443  11.941  0.4243  1.4032 -1.5750
 1671TIP3   OH226503   3.125   1.624   3.781 -0.4907 -0.3233  0.3417
 1671TIP3    H126504   3.092   1.712   3.800  0.9397  0.0871  1.0768
 1671TIP3    H226505   3.126   1.619   3.686 -0.6478  0.4460  0.2902
 1672TIP3   OH226506   0.308   4.307  10.245 -0.1675  0.2157 -0.1291
 1672TIP3    H126507   0.263   4.278  10.325 -0.0912 -0.7665 -0.4329
 1672TIP3    H226508   0.398   4.275  10.256  0.2204  1.3094  0.0229
 1673TIP3   OH226509   0.420   5.310  13.410 -0.9395 -0.1172  0.3345
 1673TIP3    H126510   0.358   5.370  13.451 -1.5563 -1.0059  0.7484
 1673TIP3    H226511   0.433   5.241  13.476 -1.3889 -1.1978 -0.6685
 1674TIP3   OH226512   0.007   3.062  13.537 -0.1024  0.6326 -0.1329
 1674TIP3    H126513  -0.074   3.071  13.486  0.2048  3.2121 -0.2657
 1674TIP3    H226514   0.072   3.113  13.489  2.4817 -3.4357 -1.4968
 1675TIP3   OH226515   1.818   6.772  12.439  0.3122  0.0278 -0.0172
 1675TIP3    H126516   1.747   6.715  12.410 -0.3407  0.5323  0.5571
 1675TIP3    H226517   1.878   6.714  12.485 -0.3560 -0.2057  0.5735
 1676TIP3   OH226518   5.020   3.823   3.681  0.1791  0.2792  0.1434
 1676TIP3    H126519   5.112   3.844   3.667  0.3897 -1.0963 -0.7470
 1676TIP3    H226520   4.990   3.886   3.746  2.1011 -0.1227  1.4915
 1677TIP3   OH226521   4.900   0.791  15.854 -0.5483  0.2504 -0.0277
 1677TIP3    H126522   4.850   0.712  15.873 -1.7921  0.3342 -2.6174
 1677TIP3    H226523   4.838   0.863  15.864  0.1115  0.7585  0.5717
 1678TIP3   OH226524   0.097   4.013  11.994 -0.3749  0.1040 -0.1789
 1678TIP3    H126525   0.081   4.091  12.047 -2.6826 -1.5893  1.8133
 1678TIP3    H226526   0.158   3.961  12.046 -1.5666 -0.9534  0.1939
 1679TIP3   OH226527   4.933   3.759   5.458 -0.0563  0.1184  0.2631
 1679TIP3    H126528   4.933   3.664   5.448  0.3671  0.1216  0.2244
 1679TIP3    H226529   4.943   3.793   5.369 -0.4322  0.2032  0.2515
 1680TIP3   OH226530   0.166   2.206   5.190  0.6223  0.3082  0.1738
 1680TIP3    H126531   0.223   2.178   5.262 -0.1992 -0.7383  0.4489
 1680TIP3    H226532   0.199   2.158   5.113  0.2500 -0.1524  0.2940
 1681TIP3   OH226533   3.329   2.433  14.241 -0.4322 -0.1903  0.0561
 1681TIP3    H126534   3.310   2.524  14.217 -0.1604  0.2490  1.4146
 1681TIP3    H226535   3.254   2.383  14.208  0.0955  0.2938 -1.9830
 1682TIP3   OH226536   0.662   3.407   4.521  0.7375  0.0078  0.7618
 1682TIP3    H126537   0.640   3.497   4.497 -1.3607 -0.7051 -0.2389
 1682TIP3    H226538   0.725   3.379   4.454 -0.4333  0.0002 -0.3793
 1683TIP3   OH226539   4.204   4.907  15.911 -0.4716  0.4515  0.1522
 1683TIP3    H126540   4.117   4.940  15.887 -0.5092  0.2301 -0.0137
 1683TIP3    H226541   4.233   4.856  15.835 -0.3729  0.1817  0.3681
 1684TIP3   OH226542   1.114   5.578   4.411 -0.0332  0.6214 -0.0723
 1684TIP3    H126543   1.131   5.568   4.504 -1.1395 -1.1110 -0.0059
 1684TIP3    H226544   1.022   5.552   4.401 -0.3223  2.0103 -1.4779
 1685TIP3   OH226545   1.403   4.566   5.213  0.2282 -0.1981 -0.3671
 1685TIP3    H126546   1.331   4.588   5.153  0.8421  3.1234 -0.0674
 1685TIP3    H226547   1.364   4.565   5.300  0.1103 -0.9652 -0.4178
 1686TIP3   OH226548   5.479   6.149   4.030  0.0487  0.2791  0.0454
 1686TIP3    H126549   5.472   6.177   4.121 -0.1199 -0.0492  0.1390
 1686TIP3    H226550   5.390   6.121   4.008 -0.2747  1.8478 -0.7267
 1687TIP3   OH226551   3.257   6.676  10.767  0.2316 -0.4676  0.0496
 1687TIP3    H126552   3.235   6.705  10.678  0.6460  1.5449  0.5484
 1687TIP3    H226553   3.228   6.748  10.823  0.7442 -1.3327  1.4736
 1688TIP3   OH226554   4.004   4.579  10.901  0.4001  0.2283  0.2275
 1688TIP3    H126555   3.998   4.501  10.957  1.1521  0.8430  1.2092
 1688TIP3    H226556   4.076   4.560  10.840  0.7122  0.2156  0.5938
 1689TIP3   OH226557   6.498   3.103  13.685 -0.4163 -0.1327  0.2001
 1689TIP3    H126558   6.579   3.101  13.738 -0.2616  1.2564  0.0536
 1689TIP3    H226559   6.442   3.165  13.731 -1.7523 -1.6850  0.7449
 1690TIP3   OH226560   2.530   1.399  14.587 -0.0723 -0.0935  0.3255
 1690TIP3    H126561   2.510   1.329  14.649  0.3314  1.9642  2.9779
 1690TIP3    H226562   2.621   1.422  14.604  0.8048 -0.8783 -2.6699
 1691TIP3   OH226563   3.686   6.568   1.474 -0.4483 -0.1214 -1.2958
 1691TIP3    H126564   3.599   6.529   1.476 -0.5590  0.1300  1.1912
 1691TIP3    H226565   3.671   6.659   1.450 -0.7054 -0.3769 -2.1481
 1692TIP3   OH226566   4.779   1.871   4.092  0.3643 -0.0273  0.4940
 1692TIP3    H126567   4.851   1.933   4.106  0.7794 -0.0062 -1.4424
 1692TIP3    H226568   4.804   1.794   4.143  1.2223  0.3858  0.7220
 1693TIP3   OH226569   3.749   5.757  12.812 -0.6570  0.4051  0.5270
 1693TIP3    H126570   3.664   5.713  12.810 -1.2357  1.5245 -0.2275
 1693TIP3    H226571   3.747   5.819  12.740  2.5862 -2.6628 -2.6446
 1694TIP3   OH226572   6.164   6.095  16.440  0.4617  0.1669  0.6139
 1694TIP3    H126573   6.197   6.175  16.482  1.2886  1.2572 -1.9014
 1694TIP3    H226574   6.101   6.126  16.375  1.4521 -1.1035 -1.0357
 1695TIP3   OH226575   0.330   3.779  14.419 -0.0978 -0.3268  0.0305
 1695TIP3    H126576   0.245   3.742  14.442  0.5925 -0.8009  2.0718
 1695TIP3    H226577   0.316   3.874  14.421 -1.3011 -0.3618 -2.8631
 1696TIP3   OH226578   3.931   0.948   1.062 -0.1809  0.2797  0.4458
 1696TIP3    H126579   3.920   0.945   1.157  0.4119 -2.3114  0.5071
 1696TIP3    H226580   4.018   0.910   1.047 -0.2810  0.6127 -1.1451
 1697TIP3   OH226581   1.117   3.681  13.064 -0.4623  0.2425 -0.1010
 1697TIP3    H126582   1.198   3.717  13.100  0.0924 -0.4536 -0.6080
 1697TIP3    H226583   1.136   3.587  13.053 -2.0102 -0.3369  1.6400
 1698TIP3   OH226584   6.591   4.583  13.709 -0.1943 -0.6638 -0.8949
 1698TIP3    H126585   6.606   4.675  13.733  0.4888 -1.2425  1.0196
 1698TIP3    H226586   6.496   4.576  13.698 -0.2427  0.2852 -1.1967
 1699TIP3   OH226587   5.679   3.265  14.015  0.3402  0.7616  0.4453
 1699TIP3    H126588   5.677   3.285  13.922 -0.3999 -0.1220  0.2653
 1699TIP3    H226589   5.766   3.294  14.044  0.5828  1.0125 -0.5185
 1700TIP3   OH226590   5.951   4.560  11.542 -0.0181  0.0864  0.2499
 1700TIP3    H126591   5.875   4.596  11.589 -0.8829  0.3487 -1.2761
 1700TIP3    H226592   6.027   4.599  11.586 -0.8400  1.6213  0.3820
 1701TIP3   OH226593   4.050   4.236  16.830  0.0496  0.1615 -0.0841
 1701TIP3    H126594   4.130   4.270  16.788  0.1234  0.1229  0.0228
 1701TIP3    H226595   4.045   4.284  16.913 -0.6025  0.9116 -0.5476
 1702TIP3   OH226596   6.244   0.846  14.680 -0.1745 -0.0680 -0.4964
 1702TIP3    H126597   6.240   0.781  14.610 -0.1109 -0.1483 -0.4259
 1702TIP3    H226598   6.330   0.833  14.720 -0.7792 -1.0128  0.5419
 1703TIP3   OH226599   4.291   5.876  11.792  0.0608 -0.6027  0.5554
 1703TIP3    H126600   4.327   5.833  11.870  1.0942 -0.2247  0.3144
 1703TIP3    H226601   4.233   5.943  11.826 -1.9971 -2.4695  0.9350
 1704TIP3   OH226602   4.659   0.334   3.088  0.7053  0.1653  0.3948
 1704TIP3    H126603   4.744   0.298   3.065  0.2646 -1.4786  1.1763
 1704TIP3    H226604   4.675   0.427   3.100  2.5227 -0.1872  1.0600
 1705TIP3   OH226605   2.462   4.232  13.018  0.0518  0.7476 -0.0025
 1705TIP3    H126606   2.378   4.251  13.060  0.4341 -0.7671  1.5255
 1705TIP3    H226607   2.452   4.143  12.983  0.6970  0.9310 -0.6849
 1706TIP3   OH226608   5.776   2.897  13.186 -0.3358 -0.1345  0.3550
 1706TIP3    H126609   5.711   2.934  13.245 -0.7590 -0.9108  0.3823
 1706TIP3    H226610   5.860   2.931  13.219 -0.7299  1.0299  0.1968
 1707TIP3   OH226611   4.001   6.088   0.756  0.4010  0.6524  0.9848
 1707TIP3    H126612   3.963   6.042   0.831  1.2207  0.2499  1.1665
 1707TIP3    H226613   4.045   6.164   0.795  0.7055  0.5223  0.8951
 1708TIP3   OH226614   3.317   4.455   2.413  0.2036  0.0386  0.0923
 1708TIP3    H126615   3.266   4.535   2.422 -0.4964 -0.5250  1.6022
 1708TIP3    H226616   3.322   4.420   2.502  1.4585 -1.0111 -0.3536
 1709TIP3   OH226617   2.194   6.393  14.032  0.5286  0.2818 -0.6270
 1709TIP3    H126618   2.222   6.469  14.083  0.9330 -1.0276  1.1834
 1709TIP3    H226619   2.099   6.398  14.032  0.5067  0.1777  0.5060
 1710TIP3   OH226620   4.762   6.196   0.695  0.2140 -0.1793  0.2770
 1710TIP3    H126621   4.683   6.155   0.658  0.2565 -0.2519  0.2649
 1710TIP3    H226622   4.729   6.271   0.744  0.1557 -0.0934  0.1056
 1711TIP3   OH226623   3.456   0.662  15.868  0.6843 -0.2372 -0.2755
 1711TIP3    H126624   3.412   0.680  15.950  1.0185 -1.1224  0.1152
 1711TIP3    H226625   3.527   0.601  15.891  0.5881 -0.7522 -1.2526
 1712TIP3   OH226626   0.556   1.246   2.289  0.5058 -0.4550 -0.2267
 1712TIP3    H126627   0.490   1.187   2.325 -0.0548 -0.1067 -0.6623
 1712TIP3    H226628   0.543   1.242   2.194 -1.9443  2.9962 -0.2148
 1713TIP3   OH226629   2.440   4.570  15.177  0.2280 -0.1429 -0.2705
 1713TIP3    H126630   2.514   4.509  15.177 -0.2840 -0.8845 -3.2211
 1713TIP3    H226631   2.477   4.654  15.151  0.1046 -0.4882 -1.6309
 1714TIP3   OH226632   1.501   1.726   0.064 -0.5449 -0.0300 -0.3015
 1714TIP3    H126633   1.462   1.802   0.108 -0.5617 -0.4430  0.4103
 1714TIP3    H226634   1.426   1.669   0.045 -0.3825 -0.5002  0.4283
 1715TIP3   OH226635   3.286   2.787   0.884  0.0877  0.3605  0.1901
 1715TIP3    H126636   3.372   2.767   0.922  0.4881 -0.8657 -1.2682
 1715TIP3    H226637   3.291   2.880   0.861 -0.2081  1.1893  3.1157
 1716TIP3   OH226638   5.115   4.490  15.014  0.7618  0.3968 -0.1359
 1716TIP3    H126639   5.199   4.536  15.021  1.1185 -0.2077 -0.3363
 1716TIP3    H226640   5.137   4.398  15.030  0.0819  0.2776  0.1320
 1717TIP3   OH226641   5.666   5.654   3.445 -0.1993  0.4427 -0.2388
 1717TIP3    H126642   5.631   5.723   3.502  1.7440  0.7351  0.6989
 1717TIP3    H226643   5.687   5.582   3.505 -4.9406 -2.4175 -1.4602
 1718TIP3   OH226644   2.120   6.447  17.083 -0.2905 -0.1326 -0.2655
 1718TIP3    H126645   2.159   6.441  17.171 -0.2997  2.0429 -0.0575
 1718TIP3    H226646   2.192   6.477  17.028 -0.4584 -0.8501 -0.8873
 1719TIP3   OH226647   4.861   2.745  16.586  0.0063 -0.3649 -0.5528
 1719TIP3    H126648   4.798   2.714  16.521 -0.6369 -1.9388  0.7696
 1719TIP3    H226649   4.810   2.806  16.640  0.0707 -0.3674 -0.4900
 1720TIP3   OH226650   1.670   5.565  16.649 -0.4535  0.0511 -0.8770
 1720TIP3    H126651   1.699   5.607  16.568 -1.6918 -0.0824 -1.4183
 1720TIP3    H226652   1.623   5.487  16.620  0.5143 -0.9070  0.0554
 1721TIP3   OH226653   6.286   2.938   2.504 -0.8967 -0.1455 -0.0941
 1721TIP3    H126654   6.349   3.009   2.514 -0.9715  0.0690 -1.0417
 1721TIP3    H226655   6.256   2.920   2.593  1.2532 -0.9528  0.5519
 1722TIP3   OH226656   2.596   2.821   1.517  0.5512  0.6090 -0.4724
 1722TIP3    H126657   2.603   2.790   1.607 -1.8070  1.1626 -0.0145
 1722TIP3    H226658   2.571   2.743   1.467 -0.1648  0.6983 -0.2641
 1723TIP3   OH226659   4.638   1.559   1.835  0.5050 -0.1423  0.7841
 1723TIP3    H126660   4.555   1.545   1.882 -0.2261 -0.5880 -0.5915
 1723TIP3    H226661   4.700   1.500   1.878 -0.2885 -0.9455  0.8539
 1724TIP3   OH226662   4.180   6.521   1.083 -0.5509 -0.6168 -0.1088
 1724TIP3    H126663   4.124   6.534   1.160 -1.2338 -0.6644 -0.5822
 1724TIP3    H226664   4.225   6.605   1.072 -0.6626 -0.5171  0.1733
 1725TIP3   OH226665   0.467   0.760   2.198 -0.0627 -0.1664  0.1011
 1725TIP3    H126666   0.483   0.702   2.272  0.9060 -0.0195  0.0142
 1725TIP3    H226667   0.436   0.703   2.128  0.2794 -0.4864  0.2114
 1726TIP3   OH226668   1.762   4.065  17.028  0.2497 -0.2010  0.0494
 1726TIP3    H126669   1.709   4.144  17.036  0.0232 -0.3058 -0.4295
 1726TIP3    H226670   1.699   3.993  17.031  0.3506 -0.3224 -0.6378
 1727TIP3   OH226671   1.668   2.323   1.214 -0.0307 -0.2337 -0.0203
 1727TIP3    H126672   1.734   2.384   1.249 -0.2132  1.3730 -2.2095
 1727TIP3    H226673   1.706   2.294   1.131 -1.8531  0.4097 -1.1345
 1728TIP3   OH226674   1.263   0.059  11.369  0.1077  0.2461  0.0556
 1728TIP3    H126675   1.259   0.145  11.412  2.3090  0.2044  0.4816
 1728TIP3    H226676   1.308   0.003  11.433 -1.5254 -1.3350 -0.0978
 1729TIP3   OH226677   3.848   1.436   2.138 -0.9381  0.1841 -0.4849
 1729TIP3    H126678   3.927   1.405   2.092  0.1046  1.0465  0.6504
 1729TIP3    H226679   3.828   1.366   2.200 -1.4666 -0.3295 -1.2296
 1730TIP3   OH226680   2.817   2.509   4.003  1.0148 -0.1936 -0.6021
 1730TIP3    H126681   2.836   2.436   4.061  2.5699  1.1917  0.7032
 1730TIP3    H226682   2.756   2.472   3.938 -0.5538 -1.8786  1.6697
 1731TIP3   OH226683   2.210   2.379  12.454  0.4564  0.2397  0.1137
 1731TIP3    H126684   2.115   2.393  12.449  0.4015  0.0936  0.6581
 1731TIP3    H226685   2.246   2.439  12.389  0.0620  1.1418  0.6962
 1732TIP3   OH226686   3.523   2.686   4.738  0.4917 -0.7817 -0.2140
 1732TIP3    H126687   3.612   2.652   4.748  0.2201 -1.1895  0.9703
 1732TIP3    H226688   3.510   2.742   4.814 -0.2844 -0.7690 -0.3490
 1733TIP3   OH226689   6.658   4.658  15.678 -0.2550  0.5169  0.0336
 1733TIP3    H126690   6.654   4.592  15.609  1.1401  0.1952  0.2411
 1733TIP3    H226691   6.717   4.622  15.744  0.9716  2.1593 -0.0848
 1734TIP3   OH226692   5.069   4.310   5.443 -0.1728  0.1893  0.5832
 1734TIP3    H126693   4.998   4.341   5.500  0.0890 -0.6115  1.3625
 1734TIP3    H226694   5.023   4.262   5.373 -0.4084 -0.2395  1.0275
 1735TIP3   OH226695   0.876   3.490   0.615  0.8394  0.2005  0.3083
 1735TIP3    H126696   0.831   3.567   0.582  1.2776  0.1345 -0.4507
 1735TIP3    H226697   0.901   3.441   0.537  3.7932  1.0987  0.5861
 1736TIP3   OH226698   2.815   3.091  10.559  0.0740 -0.3258  0.2191
 1736TIP3    H126699   2.743   3.057  10.506 -0.8417 -1.2048  1.9345
 1736TIP3    H226700   2.836   3.019  10.619 -0.0343  1.1832  2.1294
 1737TIP3   OH226701   5.993   0.057   4.270  0.1041 -0.0590  0.5140
 1737TIP3    H126702   5.922   0.093   4.323 -0.5894 -0.1567 -0.3143
 1737TIP3    H226703   6.023  -0.021   4.317 -1.1369 -0.6867  0.2984
 1738TIP3   OH226704   1.148   2.431  12.479 -0.3343  0.2032  0.3195
 1738TIP3    H126705   1.156   2.508  12.535 -0.0683 -1.9300  3.4798
 1738TIP3    H226706   1.055   2.425  12.459 -0.2907  1.5732 -0.3776
 1739TIP3   OH226707   2.421   1.923   1.245 -0.0361  0.4602 -0.5812
 1739TIP3    H126708   2.353   1.855   1.242 -0.3347  0.7788 -1.1929
 1739TIP3    H226709   2.400   1.975   1.323 -0.1796  0.2406 -0.4703
 1740TIP3   OH226710   6.338   1.322   1.890  0.0594 -0.4988  0.2464
 1740TIP3    H126711   6.301   1.243   1.851 -0.6831  0.0674 -0.2241
 1740TIP3    H226712   6.351   1.300   1.982  2.2276 -2.0018 -0.3434
 1741TIP3   OH226713   6.080   5.886  15.019  0.5139  0.3263  0.9835
 1741TIP3    H126714   6.097   5.793  15.003  0.8367  0.3828  0.9911
 1741TIP3    H226715   5.991   5.888  15.053 -0.1086  0.1796 -0.5575
 1742TIP3   OH226716   0.076   0.978   3.692 -0.5213 -0.3557  0.2886
 1742TIP3    H126717   0.167   0.981   3.723 -0.2572 -1.3289 -0.3360
 1742TIP3    H226718   0.074   0.903   3.633 -1.4704  0.3353 -0.5756
 1743TIP3   OH226719   2.777   3.817   5.220 -0.1307 -0.0322 -0.1297
 1743TIP3    H126720   2.809   3.873   5.290  0.7614  0.2723 -0.7697
 1743TIP3    H226721   2.782   3.871   5.141  0.1511 -0.8033 -0.6506
 1744TIP3   OH226722   4.659   3.464  13.262  0.0024  0.3279 -0.2993
 1744TIP3    H126723   4.708   3.507  13.191 -0.3388  0.0335 -0.7164
 1744TIP3    H226724   4.571   3.453  13.227  0.3849 -1.9452 -0.7515
 1745TIP3   OH226725   3.724   2.769   6.004 -0.0686  0.0938 -0.2747
 1745TIP3    H126726   3.815   2.751   6.027 -0.7592 -3.5224  0.1921
 1745TIP3    H226727   3.683   2.792   6.087  0.1708  0.6972 -0.3154
 1746TIP3   OH226728   2.371   5.813   4.093  0.4011 -0.0214  0.0857
 1746TIP3    H126729   2.321   5.791   4.171  2.1376  2.0481  1.9240
 1746TIP3    H226730   2.314   5.788   4.020 -2.5685  0.7105  1.9883
 1747TIP3   OH226731   3.869   2.542  15.854 -0.3213 -0.2558 -0.0239
 1747TIP3    H126732   3.930   2.616  15.861 -0.6001 -0.0513  0.2812
 1747TIP3    H226733   3.875   2.499  15.939  1.7258 -2.0964 -0.9728
 1748TIP3   OH226734   5.224   5.879  14.554 -0.1674  0.4004  0.3434
 1748TIP3    H126735   5.227   5.858  14.460 -2.0155  0.7173  0.1795
 1748TIP3    H226736   5.242   5.796  14.597 -0.0105  0.0939 -0.2966
 1749TIP3   OH226737   2.347   2.748   2.679  0.2367 -0.7623  0.2061
 1749TIP3    H126738   2.275   2.773   2.737  0.1551 -2.3908  0.8750
 1749TIP3    H226739   2.312   2.674   2.629  0.3630  0.4930 -1.8502
 1750TIP3   OH226740   6.831   3.721  15.880 -0.3820  0.1988 -0.0058
 1750TIP3    H126741   6.746   3.752  15.912 -0.0590  1.5121 -0.3265
 1750TIP3    H226742   6.816   3.631  15.854 -2.1086  0.8594 -1.5075
 1751TIP3   OH226743   0.447   0.079  12.208 -0.2596 -0.1370 -0.0411
 1751TIP3    H126744   0.513   0.044  12.148 -0.8571  0.0105 -0.8054
 1751TIP3    H226745   0.396   0.002  12.235  1.3776 -0.5713  2.0926
 1752TIP3   OH226746   5.328   5.569   5.782  0.1415  0.0858  0.6305
 1752TIP3    H126747   5.302   5.585   5.691  1.0175  0.7176  0.4763
 1752TIP3    H226748   5.248   5.538   5.824 -0.1006 -0.9738 -0.5298
 1753TIP3   OH226749   1.816   2.433  15.219  0.4886  0.3983  0.6397
 1753TIP3    H126750   1.858   2.509  15.178 -0.5901  0.8476  0.3401
 1753TIP3    H226751   1.725   2.459  15.231 -0.2630 -1.3524 -0.8002
 1754TIP3   OH226752   5.687   0.843  14.295 -0.0813 -0.2157 -0.4175
 1754TIP3    H126753   5.667   0.849  14.201 -2.3326  0.0707  0.0236
 1754TIP3    H226754   5.756   0.908  14.309 -0.6660  0.7107 -1.6428
 1755TIP3   OH226755   2.195   5.672  10.985  0.2753  0.2528 -0.1184
 1755TIP3    H126756   2.276   5.679  10.934  0.1522  2.3000 -0.1258
 1755TIP3    H226757   2.153   5.758  10.975 -1.3171 -0.3743  0.8522
 1756TIP3   OH226758   3.924   6.400   0.649  0.5620  0.1991 -0.4227
 1756TIP3    H126759   4.007   6.369   0.687 -0.1440 -0.3921  0.7104
 1756TIP3    H226760   3.914   6.489   0.683  0.6492  0.2139 -0.4334
 1757TIP3   OH226761   2.225   3.864  12.856 -0.6651 -0.0384 -0.3771
 1757TIP3    H126762   2.198   3.791  12.800 -1.3551  0.5131 -0.7872
 1757TIP3    H226763   2.307   3.895  12.818 -0.8031 -0.0723 -0.7086
 1758TIP3   OH226764   3.348   1.436   0.231 -0.2709 -0.0052 -0.4643
 1758TIP3    H126765   3.423   1.429   0.171 -0.8971  1.0955 -1.3997
 1758TIP3    H226766   3.388   1.444   0.318  0.6499 -2.4398 -0.5720
 1759TIP3   OH226767   3.112   2.614  10.695  0.4190 -0.1597  0.1548
 1759TIP3    H126768   3.073   2.699  10.675  2.0843  1.4227  2.9446
 1759TIP3    H226769   3.196   2.615  10.649 -0.1218 -0.9442 -0.9018
 1760TIP3   OH226770   5.769   2.934  14.174 -0.1887 -0.3211 -0.4586
 1760TIP3    H126771   5.780   2.845  14.139 -1.4887 -0.4735 -0.5375
 1760TIP3    H226772   5.765   2.922  14.269  1.2017 -0.1557 -0.3705
 1761TIP3   OH226773   4.634   4.684  14.209  0.0794 -0.3777  0.6227
 1761TIP3    H126774   4.599   4.598  14.186  0.5484 -0.3320 -0.3152
 1761TIP3    H226775   4.649   4.679  14.304  1.6597 -1.9232  0.3463
 1762TIP3   OH226776   1.025   2.592  11.942  0.3674 -0.0788  0.4747
 1762TIP3    H126777   1.036   2.500  11.919  1.8253 -0.7826  3.4895
 1762TIP3    H226778   0.930   2.606  11.940  0.0046 -2.0830  1.4048
 1763TIP3   OH226779   4.602   4.569   3.899 -0.2055  0.0462  0.4331
 1763TIP3    H126780   4.673   4.506   3.883  0.4960  0.6062  1.2539
 1763TIP3    H226781   4.525   4.514   3.912  0.5206 -0.7200  1.8206
 1764TIP3   OH226782   1.513   3.130   3.431  0.0988 -0.2043 -0.1596
 1764TIP3    H126783   1.448   3.195   3.404 -1.1422 -1.5775 -0.5921
 1764TIP3    H226784   1.596   3.178   3.433 -0.9837  1.7478  0.9755
 1765TIP3   OH226785   0.971   4.690   0.700 -0.2341  0.0262  0.3682
 1765TIP3    H126786   0.889   4.709   0.654 -0.1704 -0.2750  0.1321
 1765TIP3    H226787   1.019   4.772   0.698 -0.9687  0.5036  1.4086
 1766TIP3   OH226788   3.364   2.344   4.365  0.2232 -0.0195  0.4782
 1766TIP3    H126789   3.456   2.343   4.340  0.7364 -1.4298  2.1916
 1766TIP3    H226790   3.353   2.424   4.417  0.5985 -0.0788  0.6472
 1767TIP3   OH226791   0.618   4.516   6.070  0.5177  0.3132  0.4167
 1767TIP3    H126792   0.527   4.544   6.056  0.5115 -0.5786 -1.8712
 1767TIP3    H226793   0.669   4.596   6.060  0.0047  0.9017  2.1336
 1768TIP3   OH226794   4.765   0.593  16.072 -0.2558  0.8345 -0.0016
 1768TIP3    H126795   4.763   0.520  16.133  2.7051 -0.3077 -1.0494
 1768TIP3    H226796   4.754   0.671  16.127  2.0965 -0.1399  2.0367
 1769TIP3   OH226797   4.762   6.501  13.351 -0.4908 -0.1136 -0.1308
 1769TIP3    H126798   4.751   6.406  13.355 -1.6838 -0.0092 -0.5714
 1769TIP3    H226799   4.778   6.520  13.259  0.2915  0.0649  0.0383
 1770TIP3   OH226800   2.677   6.115  16.509 -0.1067  0.2804  0.3778
 1770TIP3    H126801   2.587   6.120  16.543 -0.1187 -0.3886  0.4519
 1770TIP3    H226802   2.669   6.134  16.416 -0.5746 -1.4351  0.0248
 1771TIP3   OH226803   4.264   3.637   4.013  0.3690  0.2654  0.3890
 1771TIP3    H126804   4.229   3.666   4.098  3.7980  0.3861  1.9178
 1771TIP3    H226805   4.291   3.546   4.029  1.3788  0.4037 -0.4318
 1772TIP3   OH226806   0.188   5.169   4.208 -0.4216  0.5184  0.0041
 1772TIP3    H126807   0.178   5.217   4.126 -0.6281  1.9524  0.8452
 1772TIP3    H226808   0.279   5.140   4.208 -0.7308 -0.5980 -1.2841
 1773TIP3   OH226809   3.357   5.196  15.789  0.2458  0.3068 -0.1621
 1773TIP3    H126810   3.390   5.164  15.873  0.4369 -0.1798 -0.4183
 1773TIP3    H226811   3.374   5.124  15.728 -0.3884  0.4412 -0.5020
 1774TIP3   OH226812   3.076   3.353  15.549 -0.0774  0.4171 -0.2763
 1774TIP3    H126813   3.077   3.313  15.636  0.3414  0.5315 -0.2294
 1774TIP3    H226814   3.152   3.411  15.547 -1.1293  1.8622 -0.0561
 1775TIP3   OH226815   3.051   4.404   1.691 -0.1613 -0.0774  0.1999
 1775TIP3    H126816   3.041   4.417   1.785  0.7570  0.2186  0.2708
 1775TIP3    H226817   3.119   4.467   1.665  0.6843 -1.1903 -0.3808
 1776TIP3   OH226818   2.522   0.884   3.030  0.2228 -0.0887 -0.2883
 1776TIP3    H126819   2.467   0.900   3.107  1.4901 -2.5336  1.2467
 1776TIP3    H226820   2.579   0.961   3.025 -0.1060  0.2597  1.0244
 1777TIP3   OH226821   1.112   5.343   5.887 -0.2314 -0.1054 -0.1091
 1777TIP3    H126822   1.103   5.286   5.964 -0.5382 -0.1224 -0.1545
 1777TIP3    H226823   1.154   5.422   5.921  0.6220 -0.5384 -0.1351
 1778TIP3   OH226824   6.739   0.002   4.292 -0.2812 -0.1800  0.1348
 1778TIP3    H126825   6.797   0.037   4.359 -0.2526  0.7283 -0.3572
 1778TIP3    H226826   6.718   0.077   4.236 -3.0915 -0.1069  1.1136
 1779TIP3   OH226827   6.500   2.044   3.903  0.2631  0.0768  0.0619
 1779TIP3    H126828   6.471   2.135   3.903  0.3624  0.1260 -1.1984
 1779TIP3    H226829   6.441   2.000   3.964  0.2329  0.9882  0.7047
 1780TIP3   OH226830   6.176   6.851  15.373  0.3373 -0.0512  0.0781
 1780TIP3    H126831   6.097   6.799  15.387  0.2136  0.2921  0.6813
 1780TIP3    H226832   6.149   6.919  15.310  0.4269 -0.5341 -0.4952
 1781TIP3   OH226833   5.620   6.002  12.599 -0.4750 -0.3193 -0.2021
 1781TIP3    H126834   5.697   6.057  12.609  0.7540 -1.8330 -0.8424
 1781TIP3    H226835   5.555   6.058  12.557  0.0177  1.1865  0.9665
 1782TIP3   OH226836   6.515   6.554   2.560 -0.1691 -0.9686  0.8824
 1782TIP3    H126837   6.420   6.564   2.572 -0.3974 -0.7202 -0.7819
 1782TIP3    H226838   6.551   6.557   2.648 -1.6160  0.0032  1.4859
 1783TIP3   OH226839   0.157   0.969  13.232  0.3981 -0.3130  0.3782
 1783TIP3    H126840   0.076   0.925  13.205  0.2738  0.4502 -0.5521
 1783TIP3    H226841   0.151   0.974  13.328 -1.3863  1.0313  0.2613
 1784TIP3   OH226842   0.318   2.072  16.127 -0.7101 -0.7194 -0.2705
 1784TIP3    H126843   0.224   2.090  16.132 -0.4833  0.5662 -0.1982
 1784TIP3    H226844   0.339   2.029  16.210 -0.8168  1.1942  0.8016
 1785TIP3   OH226845   3.184   0.073  16.995 -0.1316 -0.4190 -0.1353
 1785TIP3    H126846   3.242  -0.001  16.981 -0.5693 -0.5228 -1.5828
 1785TIP3    H226847   3.185   0.121  16.913  2.4411  2.9391  1.6129
 1786TIP3   OH226848   2.930   1.679  13.747 -0.4433 -0.6332 -0.0114
 1786TIP3    H126849   2.915   1.586  13.728  0.7451 -0.8060 -0.2093
 1786TIP3    H226850   3.016   1.697  13.708 -0.6927  0.5671 -0.0295
 1787TIP3   OH226851   1.346   2.729  11.680  0.0530  0.0245  0.7267
 1787TIP3    H126852   1.436   2.762  11.674 -0.7744  2.6652  1.1690
 1787TIP3    H226853   1.354   2.634  11.688  2.6509 -0.2476 -2.9809
 1788TIP3   OH226854   1.288   1.724   2.459 -0.5670  0.6048  0.2501
 1788TIP3    H126855   1.333   1.733   2.375 -0.3546 -1.2756  0.1132
 1788TIP3    H226856   1.195   1.731   2.437 -0.5946 -1.3554 -0.4136
 1789TIP3   OH226857   1.409   1.578   5.605  0.4996 -0.0215 -0.0194
 1789TIP3    H126858   1.415   1.635   5.528 -0.7457 -0.3318 -0.3704
 1789TIP3    H226859   1.498   1.543   5.615  0.6362 -0.1907 -1.4893
 1790TIP3   OH226860   3.758   3.160  11.975 -0.1700 -0.5258 -0.0723
 1790TIP3    H126861   3.695   3.210  12.026  1.5503  0.6714  0.9955
 1790TIP3    H226862   3.773   3.080  12.026  1.0567  0.3739  1.0628
 1791TIP3   OH226863   0.078   0.434  15.848  0.3114 -0.4937 -0.0653
 1791TIP3    H126864  -0.002   0.439  15.899 -0.0309 -0.1226 -0.6314
 1791TIP3    H226865   0.054   0.383  15.770  0.3672  0.4066 -0.6891
 1792TIP3   OH226866   4.177   6.368   0.746 -0.4119 -0.2603  0.5446
 1792TIP3    H126867   4.237   6.293   0.739 -0.7506 -0.6664  1.7655
 1792TIP3    H226868   4.228   6.442   0.715 -0.0899 -0.9955 -0.7654
 1793TIP3   OH226869   3.758   4.977  12.554 -0.3446 -0.0509 -0.4809
 1793TIP3    H126870   3.707   4.898  12.538 -0.0546 -1.2360  3.3486
 1793TIP3    H226871   3.843   4.960  12.514 -0.0091 -2.1364  0.9692
 1794TIP3   OH226872   4.619   3.643   1.576  0.0593 -0.4270 -0.6249
 1794TIP3    H126873   4.563   3.577   1.535  0.1332 -0.3104 -0.9127
 1794TIP3    H226874   4.690   3.657   1.514 -0.1957  0.2533 -0.7738
 1795TIP3   OH226875   4.336   0.868   1.972 -0.4287  0.0718 -0.4718
 1795TIP3    H126876   4.296   0.818   1.901 -0.0299 -2.2678  0.8707
 1795TIP3    H226877   4.377   0.803   2.028 -1.2773  1.7437  2.2879
 1796TIP3   OH226878   3.708   5.942   1.126 -0.4820 -0.0799  0.0827
 1796TIP3    H126879   3.631   5.886   1.115  0.0977 -0.9102  0.1802
 1796TIP3    H226880   3.679   6.028   1.095 -1.5582 -0.2841  0.4718
 1797TIP3   OH226881   4.935   6.391  13.137  0.1260 -0.0614  0.0800
 1797TIP3    H126882   4.946   6.408  13.043 -1.3655 -1.2630 -0.3509
 1797TIP3    H226883   5.007   6.439  13.178  0.4645  0.9918 -1.6177
 1798TIP3   OH226884   5.473   0.977   4.469  0.1387 -0.3083 -0.6661
 1798TIP3    H126885   5.548   1.018   4.513 -0.1994 -0.7890  0.4023
 1798TIP3    H226886   5.454   1.034   4.394  2.7511 -1.1672 -2.1100
 1799TIP3   OH226887   3.367   5.561  14.250  0.2978  0.3618  0.5779
 1799TIP3    H126888   3.358   5.656  14.257 -0.6580  0.2867  0.5533
 1799TIP3    H226889   3.322   5.527  14.327  2.3501 -0.0333  1.6612
 1800TIP3   OH226890   3.836   2.841   0.151  0.0161  0.3941  0.1755
 1800TIP3    H126891   3.803   2.902   0.217 -2.1839  0.0613 -0.5141
 1800TIP3    H226892   3.781   2.857   0.074  0.7137 -1.0815 -0.6745
 1801TIP3   OH226893   1.935   3.342  11.292 -0.4113 -0.3292  0.3390
 1801TIP3    H126894   1.925   3.348  11.197 -0.5194  2.5798  0.4278
 1801TIP3    H226895   1.854   3.303  11.323 -1.1287  0.3156 -0.6627
 1802TIP3   OH226896   1.156   6.594  17.114 -0.1889  0.1282  0.3669
 1802TIP3    H126897   1.134   6.677  17.070  0.6784  1.7769  2.8100
 1802TIP3    H226898   1.072   6.562  17.147 -0.3522  0.8615  0.6996
 1803TIP3   OH226899   5.018   2.211  12.135  0.4574 -0.2112 -0.7312
 1803TIP3    H126900   5.064   2.229  12.217 -2.0362  0.9517  0.5123
 1803TIP3    H226901   5.024   2.116  12.125  2.2220 -0.2060 -0.1300
 1804TIP3   OH226902   2.384   0.204   2.050  0.1430 -0.0849 -0.4860
 1804TIP3    H126903   2.317   0.245   2.105  0.5893  0.8717 -0.6450
 1804TIP3    H226904   2.333   0.154   1.985 -0.4228  0.6319 -0.6066
 1805TIP3   OH226905   0.280   0.865  17.118 -0.0329 -0.1715 -0.0602
 1805TIP3    H126906   0.224   0.856  17.040  1.0256 -0.8541 -0.7619
 1805TIP3    H226907   0.362   0.900  17.084  0.3165 -0.1293  0.8117
 1806TIP3   OH226908   1.499   5.197  11.650  0.2201 -0.2420  0.0880
 1806TIP3    H126909   1.440   5.272  11.646  0.4157 -0.1311 -1.3251
 1806TIP3    H226910   1.587   5.235  11.654  0.2559 -0.4077  1.0680
 1807TIP3   OH226911   1.238   3.615  14.061  0.1490  0.2492  0.2859
 1807TIP3    H126912   1.286   3.553  14.116 -0.4052  0.0569  0.5669
 1807TIP3    H226913   1.279   3.700  14.078  2.1605 -0.2787 -1.5168
 1808TIP3   OH226914   2.803   3.960   4.673 -0.9907 -0.3361 -0.4833
 1808TIP3    H126915   2.895   3.960   4.698 -1.3801 -0.5164  1.0718
 1808TIP3    H226916   2.758   4.000   4.747 -2.1598 -0.1308 -1.2720
 1809TIP3   OH226917   3.507   2.108  12.589 -0.0147  0.2374  0.1907
 1809TIP3    H126918   3.518   2.197  12.555 -0.5372  0.3864  0.4101
 1809TIP3    H226919   3.432   2.074  12.541 -0.8522  0.4970  1.2808
 1810TIP3   OH226920   0.913   2.194   3.423  0.1948 -0.5854 -0.0359
 1810TIP3    H126921   0.963   2.119   3.457  1.2601  0.6816  1.3433
 1810TIP3    H226922   0.875   2.235   3.501 -0.1495  0.4504 -0.7280
 1811TIP3   OH226923   1.204   0.765  11.485  0.1485 -0.2101  0.4941
 1811TIP3    H126924   1.175   0.807  11.566 -0.1484 -0.8199  0.7094
 1811TIP3    H226925   1.229   0.677  11.512  0.0216 -0.4255 -0.0827
 1812TIP3   OH226926   3.451   1.263  15.624 -0.5457 -0.1150  0.0874
 1812TIP3    H126927   3.408   1.186  15.586  0.2569  0.2751 -1.7065
 1812TIP3    H226928   3.495   1.229  15.702 -3.8040 -0.5762  1.9306
 1813TIP3   OH226929   6.075   5.890  13.879 -0.2792 -0.2336  0.1591
 1813TIP3    H126930   6.033   5.824  13.933 -0.0470 -0.6983 -0.2202
 1813TIP3    H226931   6.025   5.970  13.895 -1.0281 -0.6727  0.0433
 1814TIP3   OH226932   4.351   2.022  15.425 -0.1906 -0.1955 -0.6277
 1814TIP3    H126933   4.370   2.072  15.346  0.4381  0.8406  0.1557
 1814TIP3    H226934   4.262   2.050  15.449  0.1606  0.5746 -0.1883
 1815TIP3   OH226935   2.232   5.797   5.277  0.2845  0.0991  0.2775
 1815TIP3    H126936   2.251   5.712   5.316 -0.2633  0.0227  0.3742
 1815TIP3    H226937   2.243   5.784   5.183  1.1987  0.1787  0.3646
 1816TIP3   OH226938   4.781   0.252   1.589  0.4969 -0.0966  0.4120
 1816TIP3    H126939   4.687   0.242   1.575  0.7221 -0.1818 -1.1632
 1816TIP3    H226940   4.789   0.338   1.631 -0.1028  1.3431 -2.1751
 1817TIP3   OH226941   5.629   0.123  13.568 -0.2304 -0.1925  0.7880
 1817TIP3    H126942   5.568   0.050  13.576 -0.0398 -0.4688 -0.2125
 1817TIP3    H226943   5.691   0.110  13.641 -0.1777 -1.0489  0.6006
 1818TIP3   OH226944   1.726   1.429  16.178  0.1701  0.0646 -0.0520
 1818TIP3    H126945   1.704   1.522  16.190  2.9099  0.8161 -0.1272
 1818TIP3    H226946   1.787   1.429  16.104  1.2883 -1.6137  0.8099
 1819TIP3   OH226947   4.628   0.524   0.791 -0.3322  0.3045  0.2028
 1819TIP3    H126948   4.580   0.494   0.869 -3.0714 -0.0313 -1.4507
 1819TIP3    H226949   4.642   0.617   0.806 -2.8853  0.7671  0.2189
 1820TIP3   OH226950   4.065   0.586   4.560 -0.5089 -0.0607  0.4585
 1820TIP3    H126951   4.096   0.668   4.521  0.8132  0.0065  1.5602
 1820TIP3    H226952   4.076   0.521   4.491 -0.1676  0.4217  0.0516
 1821TIP3   OH226953   5.231   3.074   1.922 -0.2410 -0.5759 -0.2519
 1821TIP3    H126954   5.232   2.999   1.980  1.0555  1.2606  2.2529
 1821TIP3    H226955   5.322   3.086   1.895 -0.4658  0.0074 -0.7972
 1822TIP3   OH226956   5.998   4.265  16.383 -0.3413  0.0551 -0.2593
 1822TIP3    H126957   5.995   4.352  16.344 -1.5137  0.4443  0.6223
 1822TIP3    H226958   5.914   4.225  16.358 -0.3764 -0.3110  0.4278
 1823TIP3   OH226959   3.956   5.447   4.869 -0.3729 -0.1453  0.0585
 1823TIP3    H126960   3.906   5.387   4.814 -1.1931  0.9468 -0.4282
 1823TIP3    H226961   3.974   5.398   4.948 -0.8992 -1.0812 -0.3867
 1824TIP3   OH226962   2.404   1.983   2.774  0.1628  0.2067  0.3252
 1824TIP3    H126963   2.319   1.972   2.817  0.3430 -1.7901  0.2828
 1824TIP3    H226964   2.382   2.006   2.684 -0.3643 -0.3321  0.3033
 1825TIP3   OH226965   0.156   4.581  13.432  0.1485  0.2385 -0.1107
 1825TIP3    H126966   0.177   4.633  13.510  3.1225  2.2461 -2.0183
 1825TIP3    H226967   0.117   4.645  13.371  2.3327 -0.0181 -1.9149
 1826TIP3   OH226968   2.393   5.585   0.376  0.1852  0.2931  0.2734
 1826TIP3    H126969   2.431   5.498   0.394  1.5436  1.1099  1.5943
 1826TIP3    H226970   2.330   5.599   0.446 -0.2782  0.2421 -0.1312
 1827TIP3   OH226971   2.975   5.675  13.822  0.2917 -0.3192  0.0257
 1827TIP3    H126972   2.956   5.599  13.767  0.9846  0.8950 -2.0395
 1827TIP3    H226973   3.040   5.645  13.885 -0.4279 -1.7510  0.1101
 1828TIP3   OH226974   2.223   5.200  11.775 -0.6734  1.0689 -0.0927
 1828TIP3    H126975   2.275   5.238  11.846  1.0280  1.4661 -1.4781
 1828TIP3    H226976   2.139   5.245  11.781 -1.2373 -0.1529  2.7093
 1829TIP3   OH226977   5.670   2.882   1.342  0.3231  0.3290 -0.0992
 1829TIP3    H126978   5.596   2.935   1.371  0.8830  1.1034 -0.0333
 1829TIP3    H226979   5.728   2.879   1.419  0.4673 -0.0636 -0.2234
 1830TIP3   OH226980   6.253   3.078  16.246  0.0096  0.1052  0.1788
 1830TIP3    H126981   6.293   2.993  16.227  2.4172  0.3798  3.1696
 1830TIP3    H226982   6.185   3.058  16.310  1.6593  0.4594  2.1458
 1831TIP3   OH226983   2.154   3.993  13.843  0.0101  0.2299 -0.1877
 1831TIP3    H126984   2.172   3.924  13.780 -0.0921  1.6968 -1.9006
 1831TIP3    H226985   2.068   3.971  13.879  0.1948 -0.7656 -0.3364
 1832TIP3   OH226986   6.525   0.413   5.755 -0.3451  0.4660  0.1063
 1832TIP3    H126987   6.436   0.403   5.789 -0.0474  0.1102  0.8097
 1832TIP3    H226988   6.569   0.331   5.780  0.6146  1.2691  1.1640
 1833TIP3   OH226989   1.618   1.384  12.160 -0.2262 -0.2746  0.1189
 1833TIP3    H126990   1.615   1.289  12.152  1.6294 -0.3466 -0.0384
 1833TIP3    H226991   1.673   1.400  12.237  3.7687  0.6292 -2.6233
 1834TIP3   OH226992   4.431   4.448   3.013 -0.1730  0.3464  0.3919
 1834TIP3    H126993   4.497   4.381   2.993 -1.3070 -0.8747  0.5916
 1834TIP3    H226994   4.377   4.409   3.082 -1.8885  0.7713 -0.6531
 1835TIP3   OH226995   3.795   2.452   2.737 -0.4597 -0.3857  0.0451
 1835TIP3    H126996   3.844   2.459   2.654 -0.1522 -1.4911  0.1164
 1835TIP3    H226997   3.707   2.483   2.715 -1.0232 -2.6767 -1.3069
 1836TIP3   OH226998   2.403   2.305  15.016  0.3632  0.1652 -0.0603
 1836TIP3    H126999   2.439   2.378  14.967 -1.8364  1.2581 -0.1559
 1836TIP3    H227000   2.388   2.237  14.951 -0.5491  0.8202 -0.5498
 1837TIP3   OH227001   4.859   0.765   0.946 -0.2102 -0.2365 -0.4262
 1837TIP3    H127002   4.774   0.785   0.906  0.0574 -0.1811 -0.9811
 1837TIP3    H227003   4.837   0.725   1.030 -0.7838 -0.0383 -0.4762
 1838TIP3   OH227004   0.563   6.020  12.093 -0.1002  0.1206  0.2144
 1838TIP3    H127005   0.618   6.090  12.129  0.2381 -0.3010  0.5313
 1838TIP3    H227006   0.479   6.063  12.075 -0.4574  0.2542  2.0122
 1839TIP3   OH227007   4.772   5.980   4.981  0.9016 -0.2540  0.0917
 1839TIP3    H127008   4.757   5.908   4.920 -1.1561  0.6346 -0.5045
 1839TIP3    H227009   4.758   5.941   5.068 -0.6054 -0.5185 -0.2451
 1840TIP3   OH227010   0.957   5.518   3.283 -0.6941  0.2214  0.2435
 1840TIP3    H127011   1.047   5.549   3.294 -1.6116  2.6874  1.4661
 1840TIP3    H227012   0.957   5.477   3.196  1.2240  1.5848 -0.4677
 1841TIP3   OH227013   6.263   0.242   3.259  0.6599 -0.4214  0.4882
 1841TIP3    H127014   6.244   0.242   3.353 -0.4857 -0.0336  0.2679
 1841TIP3    H227015   6.294   0.331   3.240  0.2947 -0.3174  0.3823
 1842TIP3   OH227016   4.901   0.051   3.511 -0.1945  0.1065  0.4177
 1842TIP3    H127017   4.886   0.038   3.604 -0.1636  0.9688  0.5550
 1842TIP3    H227018   4.849  -0.016   3.468  0.5188 -0.8955  1.0844
 1843TIP3   OH227019   3.974   1.417   1.271 -0.3582  0.2124 -0.1534
 1843TIP3    H127020   3.981   1.389   1.363  0.4206 -2.0591 -0.8553
 1843TIP3    H227021   4.020   1.501   1.269 -1.3603  0.8859  1.7279
 1844TIP3   OH227022   0.692   6.746  11.779  0.1999  0.4728 -0.0919
 1844TIP3    H127023   0.630   6.675  11.795  0.1895  0.6048  0.4772
 1844TIP3    H227024   0.708   6.743  11.684 -0.7793  0.5274 -0.2672
 1845TIP3   OH227025   0.049   3.489   3.325 -0.4938  0.4304  0.0845
 1845TIP3    H127026   0.096   3.423   3.274 -1.4144 -0.3743  0.2558
 1845TIP3    H227027  -0.020   3.440   3.370 -0.2375  1.2695  1.4320
 1846TIP3   OH227028   1.397   4.851   2.306  0.1295  0.4981  0.5013
 1846TIP3    H127029   1.359   4.771   2.342  0.0801 -0.3712 -1.4102
 1846TIP3    H227030   1.323   4.913   2.305 -0.4093 -0.1368 -0.0767
 1847TIP3   OH227031   5.694   3.251  16.909  0.5100  0.4896 -0.2127
 1847TIP3    H127032   5.723   3.174  16.860  1.4701  1.3608 -1.0612
 1847TIP3    H227033   5.697   3.224  17.001  0.7870 -0.4987 -0.5016
 1848TIP3   OH227034   2.481   5.622  14.892 -0.4420 -0.1647  0.2823
 1848TIP3    H127035   2.433   5.545  14.860  0.8175 -0.6193 -0.5987
 1848TIP3    H227036   2.424   5.696  14.874 -0.6157 -0.6391 -1.2206
 1849TIP3   OH227037   5.824   6.524  11.876 -0.3815 -0.0256  0.4236
 1849TIP3    H127038   5.789   6.436  11.888  1.5286 -1.1630 -1.6222
 1849TIP3    H227039   5.849   6.552  11.964  0.4636 -2.2208  0.9475
 1850TIP3   OH227040   1.492   3.631   3.343 -0.7846  0.3515  0.0906
 1850TIP3    H127041   1.484   3.681   3.424  1.1404  1.0390 -0.0882
 1850TIP3    H227042   1.582   3.647   3.314 -0.8731 -1.3210 -1.2415
 1851TIP3   OH227043   5.174   4.583   1.248  0.0769  0.5733 -0.3238
 1851TIP3    H127044   5.206   4.497   1.219  1.4090  0.8555  0.2075
 1851TIP3    H227045   5.118   4.613   1.177 -1.2056 -1.1276 -0.1100
 1852TIP3   OH227046   6.083   3.253  11.745 -0.1796  0.7832 -0.3507
 1852TIP3    H127047   5.998   3.223  11.713 -0.3433 -0.2282  0.9712
 1852TIP3    H227048   6.145   3.188  11.715 -0.0482  0.8817 -0.2952
 1853TIP3   OH227049   2.367   1.308   4.890  0.3376  0.4282  0.3576
 1853TIP3    H127050   2.443   1.361   4.914  1.7435 -2.0208  1.6881
 1853TIP3    H227051   2.324   1.289   4.973  0.0319 -0.7115 -0.0438
 1854TIP3   OH227052   3.783   0.778   1.807  0.1491  0.4240 -0.3580
 1854TIP3    H127053   3.701   0.810   1.770 -0.4899 -1.0121 -0.2500
 1854TIP3    H227054   3.808   0.844   1.872  0.0996  1.8326 -1.7354
 1855TIP3   OH227055   3.908   4.438  16.642 -0.1432  0.9476  0.0131
 1855TIP3    H127056   3.827   4.410  16.685  0.7187  0.2021  1.2073
 1855TIP3    H227057   3.954   4.489  16.709  0.6104  0.9314 -0.4810
 1856TIP3   OH227058   2.307   1.372   1.402  0.6791  0.1686 -0.4260
 1856TIP3    H127059   2.348   1.316   1.468  2.8842  0.6748 -1.2975
 1856TIP3    H227060   2.213   1.361   1.417  1.0511  0.2531  2.7892
 1857TIP3   OH227061   4.006   1.101   0.199 -0.2046 -0.5721  0.3729
 1857TIP3    H127062   4.080   1.162   0.207 -0.1843 -0.8358  2.5923
 1857TIP3    H227063   4.020   1.058   0.114 -0.0556  2.2370 -1.1623
 1858TIP3   OH227064   3.850   3.521   0.815  0.5887  0.0173  0.4458
 1858TIP3    H127065   3.847   3.427   0.832  0.2458  0.1102  0.9189
 1858TIP3    H227066   3.841   3.529   0.720  1.3037 -0.4569  0.3323
 1859TIP3   OH227067   3.874   0.177  14.078 -1.1654 -0.3203 -0.2342
 1859TIP3    H127068   3.918   0.130  14.148 -0.8988 -1.4244 -1.1204
 1859TIP3    H227069   3.836   0.254  14.121  0.4999 -0.0155  0.7912
 1860TIP3   OH227070   5.119   0.252   6.845  0.0869  0.1200  0.0444
 1860TIP3    H127071   5.146   0.339   6.874  0.4029  0.3191 -0.8146
 1860TIP3    H227072   5.163   0.240   6.761  0.1152 -0.9080  0.1937
 1861TIP3   OH227073   2.026   5.691   2.795  0.3218 -0.0069  0.4336
 1861TIP3    H127074   2.084   5.656   2.862  0.6484 -0.1030  0.1085
 1861TIP3    H227075   1.941   5.653   2.814  0.5316 -0.4548  0.4721
 1862TIP3   OH227076   4.201   1.966  10.508 -0.1255 -0.1878  0.2415
 1862TIP3    H127077   4.172   2.057  10.502 -2.1326 -0.8602 -1.0075
 1862TIP3    H227078   4.263   1.956  10.435  0.5565  0.3215  0.7444
 1863TIP3   OH227079   3.716   4.757   4.893 -0.4522  0.1189  0.1805
 1863TIP3    H127080   3.752   4.682   4.845  0.7228  1.0154 -0.3714
 1863TIP3    H227081   3.629   4.727   4.921 -0.4674 -1.0417 -0.9996
 1864TIP3   OH227082   3.824   0.221   4.931  0.0843 -0.6504 -0.6496
 1864TIP3    H127083   3.756   0.289   4.934  1.1042  0.3639 -0.0929
 1864TIP3    H227084   3.775   0.139   4.938 -1.2903 -0.0758 -2.5349
 1865TIP3   OH227085   4.031   6.136  15.790  0.1056  0.3162 -0.2167
 1865TIP3    H127086   4.024   6.216  15.842  1.4445  0.6435 -0.4988
 1865TIP3    H227087   3.998   6.067  15.847  1.0254  0.7517  0.8804
 1866TIP3   OH227088   0.911   3.382  10.903 -0.0274 -0.2745 -0.5737
 1866TIP3    H127089   0.823   3.372  10.940 -0.4432 -1.1903 -1.7257
 1866TIP3    H227090   0.945   3.292  10.900  1.0330  0.0991  0.0509
 1867TIP3   OH227091   5.943   4.073  13.913 -0.3781 -0.6093 -0.1263
 1867TIP3    H127092   5.949   4.021  13.832  0.1944  1.6538 -1.6500
 1867TIP3    H227093   5.857   4.113  13.910  0.1472  0.5538 -0.3612
 1868TIP3   OH227094   5.699   6.677  11.041  0.2368 -0.2524  0.0676
 1868TIP3    H127095   5.738   6.604  10.993  2.2761  0.4993  0.4556
 1868TIP3    H227096   5.706   6.650  11.133 -0.9645 -0.4477  0.1130
 1869TIP3   OH227097   6.054   6.208   1.894  0.4010  0.6611 -0.1267
 1869TIP3    H127098   6.116   6.163   1.835  0.2749  0.8888 -0.4376
 1869TIP3    H227099   6.102   6.215   1.976  0.7457  0.7221 -0.3267
 1870TIP3   OH227100   6.253   5.267  12.399 -0.0295  0.0515  0.2192
 1870TIP3    H127101   6.228   5.272  12.491 -1.7040  2.4890 -0.2754
 1870TIP3    H227102   6.173   5.239  12.354  0.2448  0.6814 -0.6770
 1871TIP3   OH227103   1.745   2.470   5.075 -0.3076 -0.5048  0.0160
 1871TIP3    H127104   1.673   2.436   5.128 -1.2890  1.5971  0.1353
 1871TIP3    H227105   1.726   2.563   5.067  1.5042 -0.2163 -1.4210
 1872TIP3   OH227106   6.425   1.817  13.204  0.8445  0.4731  0.1055
 1872TIP3    H127107   6.334   1.810  13.178  0.9618  0.3068 -0.2759
 1872TIP3    H227108   6.424   1.870  13.283  0.4677  0.9494 -0.2148
 1873TIP3   OH227109   5.361   6.277   4.920  0.2853 -0.6729  0.0160
 1873TIP3    H127110   5.334   6.305   5.008 -1.1718  0.1707 -0.6729
 1873TIP3    H227111   5.310   6.197   4.904  0.5920 -0.8572 -0.0470
 1874TIP3   OH227112   5.988   1.134  10.747 -0.4286  0.3990  0.0422
 1874TIP3    H127113   5.926   1.089  10.805  0.5542  0.2674  1.0124
 1874TIP3    H227114   5.934   1.162  10.673 -1.4151 -0.7617  0.2855
 1875TIP3   OH227115   2.469   6.279  14.098 -0.0904 -0.3369  0.1790
 1875TIP3    H127116   2.529   6.218  14.055  0.9409  0.3694  0.5874
 1875TIP3    H227117   2.457   6.351  14.036  1.1948  0.5571  0.9292
 1876TIP3   OH227118   0.339   1.080  11.700 -0.3777 -0.3279  0.0113
 1876TIP3    H127119   0.276   1.149  11.721  0.1095 -0.0304  0.5241
 1876TIP3    H227120   0.329   1.066  11.606  0.1929  1.1295 -0.3019
 1877TIP3   OH227121   3.379   3.916  14.862  0.3627 -0.1354  0.1339
 1877TIP3    H127122   3.365   3.827  14.896 -2.0735  0.0993 -0.1093
 1877TIP3    H227123   3.317   3.924  14.790  1.0073  1.5534 -0.2765
 1878TIP3   OH227124   0.874   4.875  14.011 -0.1067  0.0633 -0.5032
 1878TIP3    H127125   0.798   4.901  13.961  1.2987  3.0653 -1.2546
 1878TIP3    H227126   0.926   4.821  13.951 -0.2300  0.4871 -0.9894
 1879TIP3   OH227127   5.583   4.395   0.811 -0.4361  0.3504  0.2222
 1879TIP3    H127128   5.546   4.467   0.863  0.3661  0.2059  1.0119
 1879TIP3    H227129   5.634   4.439   0.743  0.7891  0.5636  1.2349
 1880TIP3   OH227130   2.013   5.069   1.701  0.1489  0.4160  0.3075
 1880TIP3    H127131   2.089   5.028   1.660 -0.7934  1.0476 -2.2275
 1880TIP3    H227132   2.041   5.158   1.722  0.9120 -0.1789  1.9812
 1881TIP3   OH227133   1.538   4.099   3.514 -0.4555  0.4717 -0.0178
 1881TIP3    H127134   1.498   4.017   3.484  2.0691 -1.4256  1.4170
 1881TIP3    H227135   1.593   4.127   3.441 -0.4080  0.2065 -0.0867
 1882TIP3   OH227136   0.476   2.500   6.032 -0.5941  0.5260  0.4519
 1882TIP3    H127137   0.468   2.425   6.091 -0.4986 -0.6274 -0.9582
 1882TIP3    H227138   0.386   2.518   6.005 -0.4751 -0.0224 -0.3327
 1883TIP3   OH227139   6.622   4.736  14.093 -0.0503  0.6006 -0.8091
 1883TIP3    H127140   6.668   4.756  14.175 -0.2112 -0.7072 -0.3649
 1883TIP3    H227141   6.541   4.693  14.121 -0.9019  1.6090 -1.6252
 1884TIP3   OH227142   0.487   3.597   4.203 -0.4920 -0.1156 -0.3401
 1884TIP3    H127143   0.492   3.514   4.155  1.6452 -0.7350  0.7755
 1884TIP3    H227144   0.434   3.577   4.280 -1.9019  0.2214 -1.1939
 1885TIP3   OH227145   0.806   2.794  11.226 -0.2753 -0.6395  0.7092
 1885TIP3    H127146   0.742   2.774  11.295 -0.0559 -3.5004  0.2249
 1885TIP3    H227147   0.783   2.735  11.155  0.3617  1.2668 -1.1733
 1886TIP3   OH227148   5.312   0.808  13.594 -0.1681 -0.0759 -0.4545
 1886TIP3    H127149   5.339   0.740  13.656 -0.0334 -0.7937 -1.2651
 1886TIP3    H227150   5.391   0.860  13.579 -0.0790 -0.1866 -0.3688
 1887TIP3   OH227151   4.038   0.808   6.333 -1.2472  0.1341 -0.3774
 1887TIP3    H127152   4.096   0.884   6.347 -0.7244 -0.4037  0.4801
 1887TIP3    H227153   4.041   0.761   6.416 -1.7303 -0.7196 -0.8386
 1888TIP3   OH227154   3.111   0.103   5.810 -0.6021 -0.2130 -0.3689
 1888TIP3    H127155   3.098   0.031   5.747  1.5888 -0.5508 -0.5204
 1888TIP3    H227156   3.101   0.061   5.896  2.1191 -1.1573 -0.4045
 1889TIP3   OH227157   1.859   0.580   3.287 -0.1324 -0.0071 -0.5953
 1889TIP3    H127158   1.824   0.497   3.253 -0.3627  0.0691 -0.5421
 1889TIP3    H227159   1.805   0.648   3.246 -2.5510  0.0090  2.2757
 1890TIP3   OH227160   0.699   2.917   1.539 -0.4194 -0.2586 -0.1580
 1890TIP3    H127161   0.723   3.004   1.570 -0.7896 -0.9538  2.3538
 1890TIP3    H227162   0.778   2.884   1.497  0.5116  0.4179  0.9902
 1891TIP3   OH227163   1.954   6.220  14.101  0.2920  0.2564 -0.0944
 1891TIP3    H127164   1.970   6.225  14.195  0.8189  0.3719 -0.1908
 1891TIP3    H227165   1.884   6.155  14.092  0.1276  0.3649  0.3876
 1892TIP3   OH227166   2.779   1.617  15.531 -0.7181 -0.3980 -0.5523
 1892TIP3    H127167   2.862   1.662  15.516  0.0111 -1.5187 -0.0149
 1892TIP3    H227168   2.731   1.628  15.449 -0.7090  1.5951 -0.3382
 1893TIP3   OH227169   5.340   6.384   0.095 -0.8382 -0.0065 -0.1121
 1893TIP3    H127170   5.368   6.293   0.095 -0.8895 -0.0538  1.4209
 1893TIP3    H227171   5.256   6.383   0.142  0.0966  1.0480  1.7223
 1894TIP3   OH227172   5.873   2.950  11.025  0.1306  0.0999 -0.1597
 1894TIP3    H127173   5.917   3.008  10.963 -0.2756  0.7376  0.1376
 1894TIP3    H227174   5.832   3.009  11.088 -2.1494 -0.3720 -1.0709
 1895TIP3   OH227175   5.197   3.341   3.438 -0.2529 -0.8742  0.1075
 1895TIP3    H127176   5.193   3.316   3.346 -2.2227 -0.4550  0.0168
 1895TIP3    H227177   5.134   3.413   3.445  0.0043 -0.7768  1.7520
 1896TIP3   OH227178   1.222   3.118   5.709 -0.6618 -0.3316 -0.2793
 1896TIP3    H127179   1.273   3.107   5.628  0.8561  0.2555  0.5581
 1896TIP3    H227180   1.210   3.213   5.717 -0.6301 -0.3731  0.2911
 1897TIP3   OH227181   2.443   4.289  14.746 -0.2221 -0.1690  0.0565
 1897TIP3    H127182   2.360   4.260  14.783 -0.1491 -2.2611 -1.2650
 1897TIP3    H227183   2.504   4.289  14.820 -0.4732 -2.5625  0.3349
 1898TIP3   OH227184   5.238   4.045   6.286  0.3522  0.4645 -0.0625
 1898TIP3    H127185   5.184   4.048   6.365  0.1157  1.8802 -0.2411
 1898TIP3    H227186   5.304   4.113   6.300  1.2603 -0.3190 -0.4349
 1899TIP3   OH227187   5.910   5.902   1.303  0.3765 -0.4180 -0.3834
 1899TIP3    H127188   5.829   5.887   1.353 -0.0131  1.0685 -0.5432
 1899TIP3    H227189   5.956   5.818   1.308 -0.4056 -0.7962  1.1110
 1900TIP3   OH227190   1.741   1.727   4.192 -0.1860 -0.0943  0.4726
 1900TIP3    H127191   1.694   1.762   4.116 -0.0441 -1.1937 -0.1443
 1900TIP3    H227192   1.821   1.691   4.156  1.3564  2.0338  1.5574
 1901TIP3   OH227193   4.972   1.415  14.156  0.1053  0.4120 -0.2006
 1901TIP3    H127194   4.894   1.437  14.206 -1.0849 -1.8630 -0.9132
 1901TIP3    H227195   4.983   1.487  14.094 -1.5256  0.7225 -0.1583
 1902TIP3   OH227196   4.444   0.776   0.177  0.2339  0.4706  0.2641
 1902TIP3    H127197   4.532   0.755   0.145  0.2819 -0.5770  1.0320
 1902TIP3    H227198   4.438   0.871   0.169  1.0432  0.4526 -0.7851
 1903TIP3   OH227199   6.570   0.623   6.361 -0.4213 -0.0527  0.0473
 1903TIP3    H127200   6.504   0.686   6.331 -0.5510  0.2277  0.9050
 1903TIP3    H227201   6.621   0.671   6.426  2.1403  0.4955 -2.1842
 1904TIP3   OH227202   4.583   6.549   1.380  0.0975 -0.2303 -0.1254
 1904TIP3    H127203   4.657   6.591   1.425 -0.1796 -1.3286  1.4306
 1904TIP3    H227204   4.624   6.497   1.311  0.5709  1.0965 -0.8836
 1905TIP3   OH227205   6.411   2.540   1.957 -0.1004 -0.0206  0.3215
 1905TIP3    H127206   6.505   2.545   1.936  0.2293 -1.3207  1.3986
 1905TIP3    H227207   6.370   2.507   1.877  0.0423  2.3528 -0.8357
 1906TIP3   OH227208   0.843   2.058  16.095 -0.1792  0.0819 -0.2912
 1906TIP3    H127209   0.787   1.992  16.053  0.6149 -0.9906  0.2910
 1906TIP3    H227210   0.924   2.058  16.044 -0.9411  2.2354 -1.6513
 1907TIP3   OH227211   6.753   5.541  16.180  0.2118  0.1018  0.1557
 1907TIP3    H127212   6.735   5.484  16.105  1.8056  0.7019 -0.7296
 1907TIP3    H227213   6.668   5.581  16.199 -0.8403 -2.1655  0.5151
 1908TIP3   OH227214   0.256   4.115  16.003  0.1211 -0.1853 -0.1006
 1908TIP3    H127215   0.221   4.055  16.070  1.9946 -0.6221  0.5440
 1908TIP3    H227216   0.258   4.063  15.923 -0.4101 -0.2399 -0.0839
 1909TIP3   OH227217   1.184   4.037   3.045 -0.2418  0.5932 -0.1168
 1909TIP3    H127218   1.160   4.021   3.137  2.2497 -3.2032  0.0574
 1909TIP3    H227219   1.249   4.107   3.049  1.6304 -1.1395  1.3859
 1910TIP3   OH227220   5.743   0.907   0.691  0.2160 -0.1759 -0.0447
 1910TIP3    H127221   5.719   0.991   0.730  1.2849  0.3982 -0.5876
 1910TIP3    H227222   5.831   0.920   0.656  0.0483 -1.2531 -0.9432
 1911TIP3   OH227223   0.099   5.710  16.240  0.5916 -0.0484  0.6504
 1911TIP3    H127224   0.022   5.653  16.238  0.7507 -0.2782 -1.8498
 1911TIP3    H227225   0.158   5.669  16.304 -0.8543 -0.5115  1.7400
 1912TIP3   OH227226   4.261   1.140   0.941  0.5318  0.1350  0.2218
 1912TIP3    H127227   4.246   1.225   0.899  0.8244  0.0772 -0.0031
 1912TIP3    H227228   4.216   1.147   1.025 -0.6692  0.0049 -0.3921
 1913TIP3   OH227229   2.197   0.008  11.083 -0.1667 -0.0512  0.7585
 1913TIP3    H127230   2.133   0.045  11.144 -1.4178  0.1670 -0.6138
 1913TIP3    H227231   2.235   0.084  11.039 -1.1176 -0.2615 -0.4895
 1914TIP3   OH227232   1.427   5.157   4.335  0.6295 -0.2032  0.5542
 1914TIP3    H127233   1.487   5.222   4.372 -0.5188  0.8052  0.6905
 1914TIP3    H227234   1.379   5.123   4.410 -1.4720  1.6096  0.1223
 1915TIP3   OH227235   3.972   2.396  11.538 -0.3375  0.1099 -0.1253
 1915TIP3    H127236   3.926   2.349  11.468 -1.1329 -0.2390  0.6124
 1915TIP3    H227237   3.904   2.413  11.603  0.2697  0.9515  0.2996
 1916TIP3   OH227238   0.948   0.789  14.188  0.0255  0.0713 -0.3725
 1916TIP3    H127239   0.858   0.802  14.158 -0.8322 -0.9912  1.5476
 1916TIP3    H227240   0.989   0.874  14.179 -0.3907  0.0417 -3.6025
 1917TIP3   OH227241   0.262   0.136  15.687  0.3283  0.1373  0.0994
 1917TIP3    H127242   0.347   0.139  15.732  0.7215  1.2846 -0.6762
 1917TIP3    H227243   0.200   0.108  15.754  1.3858 -1.2740  0.5560
 1918TIP3   OH227244   1.607   0.542  12.517 -0.1665 -0.1330 -0.2051
 1918TIP3    H127245   1.640   0.507  12.434 -1.6313 -1.2756 -0.3384
 1918TIP3    H227246   1.683   0.584  12.557  1.6776 -3.2677 -0.1295
 1919TIP3   OH227247   5.502   2.948  12.687  0.1384 -0.2168 -0.0761
 1919TIP3    H127248   5.444   2.988  12.752  0.9682  0.5904  0.1939
 1919TIP3    H227249   5.580   2.924  12.737  1.4262  1.7918 -1.0028
 1920TIP3   OH227250   2.381   3.850  13.360 -0.0504 -0.1230 -0.3022
 1920TIP3    H127251   2.405   3.846  13.267 -1.3291 -0.3238 -0.6401
 1920TIP3    H227252   2.412   3.766  13.396  0.8707  0.1532 -0.4246
 1921TIP3   OH227253   0.172   6.054  14.735  0.1994 -0.1030 -0.6595
 1921TIP3    H127254   0.157   6.087  14.824  0.7244  0.0010 -0.6029
 1921TIP3    H227255   0.233   5.981  14.748  0.5050  0.0999 -0.9638
 1922TIP3   OH227256   2.183   3.284  11.410 -0.1099  0.0353 -0.0833
 1922TIP3    H127257   2.099   3.300  11.367 -0.2112 -0.7798 -0.2187
 1922TIP3    H227258   2.159   3.253  11.498 -0.0525 -2.2542 -0.8118
 1923TIP3   OH227259   6.203   4.229   2.478  0.5393 -0.4548  0.0378
 1923TIP3    H127260   6.205   4.198   2.568  2.3401 -1.6374 -0.3496
 1923TIP3    H227261   6.223   4.152   2.425 -2.0418 -0.1635 -1.5542
 1924TIP3   OH227262   1.787   1.316  15.757 -0.3630  0.4149  0.3061
 1924TIP3    H127263   1.762   1.401  15.793 -2.2213 -0.8101  2.1975
 1924TIP3    H227264   1.764   1.254  15.826 -1.6514 -1.9046 -2.0437
 1925TIP3   OH227265   4.290   3.703  14.949  0.5859  0.3737  0.2587
 1925TIP3    H127266   4.315   3.694  15.040  0.3827  0.5589  0.3367
 1925TIP3    H227267   4.297   3.797  14.932 -0.1325  0.4444  0.3129
 1926TIP3   OH227268   4.176   3.279  16.455  0.2376 -0.1825  0.5589
 1926TIP3    H127269   4.254   3.321  16.421  0.0047 -1.1481 -1.3441
 1926TIP3    H227270   4.208   3.205  16.506  0.6158 -1.0124 -0.8199
 1927TIP3   OH227271   4.836   1.698   1.451 -0.1882 -0.0645 -0.5696
 1927TIP3    H127272   4.795   1.612   1.456 -0.6299  0.2128  1.1849
 1927TIP3    H227273   4.929   1.680   1.439 -0.2068 -0.8203  0.2936
 1928TIP3   OH227274   2.582   6.077  13.938  0.1576 -0.0548 -0.8140
 1928TIP3    H127275   2.578   6.042  13.849 -1.7173 -0.7478 -0.5102
 1928TIP3    H227276   2.622   6.007  13.989 -1.5400 -0.9455 -0.6144
 1929TIP3   OH227277   5.519   1.171  14.581 -0.1778 -0.1887 -0.1361
 1929TIP3    H127278   5.467   1.237  14.627 -2.3536 -2.2156  0.4833
 1929TIP3    H227279   5.464   1.143  14.508  0.3379 -1.8756  0.0756
 1930TIP3   OH227280   3.624   1.870  11.931  0.0290 -0.2867 -0.0702
 1930TIP3    H127281   3.719   1.881  11.936  0.0748 -0.2676 -0.8523
 1930TIP3    H227282   3.602   1.811  12.004  0.5589  0.1660  0.4674
 1931TIP3   OH227283   5.248   5.518  14.948  0.4277 -0.0846 -0.3743
 1931TIP3    H127284   5.213   5.522  15.037  2.3784  2.3511  0.4012
 1931TIP3    H227285   5.322   5.458  14.955 -1.4286 -2.6499 -1.2641
 1932TIP3   OH227286   2.022   2.978  14.596  0.3637 -0.4194 -0.3329
 1932TIP3    H127287   2.009   3.049  14.659  0.0432 -1.8311  1.2840
 1932TIP3    H227288   1.960   2.996  14.526  0.7507  1.2184 -0.2960
 1933TIP3   OH227289   0.415   4.468   2.395 -0.0581 -0.0668  0.3728
 1933TIP3    H127290   0.376   4.454   2.308 -0.6559  1.1309  0.4234
 1933TIP3    H227291   0.509   4.464   2.380 -0.1585 -0.3632 -0.2362
 1934TIP3   OH227292   2.937   4.052  16.384 -0.4916  0.4622 -0.2881
 1934TIP3    H127293   2.986   4.102  16.449 -0.8497  2.0289 -1.1764
 1934TIP3    H227294   2.989   4.061  16.304 -0.2488 -1.1373 -0.3485
 1935TIP3   OH227295   2.090   1.267   2.875 -0.3290 -0.1479 -0.0950
 1935TIP3    H127296   2.173   1.310   2.896  0.7616 -2.3737  0.3944
 1935TIP3    H227297   2.070   1.297   2.786 -0.1186  1.9972  0.5030
 1936TIP3   OH227298   2.742   4.050  12.821  0.1917  0.0491 -0.8237
 1936TIP3    H127299   2.696   3.996  12.757 -0.5596 -0.5460  0.1957
 1936TIP3    H227300   2.693   4.039  12.902 -0.0511  2.3578 -0.6019
 1937TIP3   OH227301   5.627   6.459  13.799  0.4896 -0.7076 -0.1337
 1937TIP3    H127302   5.607   6.445  13.706 -0.2223 -1.3201  0.1094
 1937TIP3    H227303   5.543   6.480  13.839  1.2204  3.0972 -0.1982
 1938TIP3   OH227304   3.707   1.007   4.410 -0.1680  0.4277 -0.0045
 1938TIP3    H127305   3.756   1.077   4.366 -0.6638  0.0318 -1.2283
 1938TIP3    H227306   3.771   0.966   4.468  1.4407 -0.9943 -2.5790
 1939TIP3   OH227307   6.224   6.829  14.169 -0.1415  0.0358  0.3296
 1939TIP3    H127308   6.306   6.878  14.163  1.2563 -2.2567 -0.1774
 1939TIP3    H227309   6.181   6.844  14.085  0.3083  0.2985  0.1412
 1940TIP3   OH227310   0.304   2.818   4.882 -0.3307 -0.7721 -0.1246
 1940TIP3    H127311   0.305   2.845   4.974 -1.3820  1.3574 -0.6606
 1940TIP3    H227312   0.346   2.732   4.881 -0.9168 -1.1590  2.4190
 1941TIP3   OH227313   1.686   4.887  15.756 -0.1720  0.0854 -0.2207
 1941TIP3    H127314   1.677   4.794  15.736  0.2918  0.6891 -3.8691
 1941TIP3    H227315   1.753   4.891  15.825 -1.8729 -2.3100  1.7334
 1942TIP3   OH227316   5.944   4.984  14.857 -0.2591 -0.7013  0.3577
 1942TIP3    H127317   5.960   5.069  14.817  0.1524 -0.9582 -0.0407
 1942TIP3    H227318   5.872   4.999  14.919  0.1505  0.0306  0.6577
 1943TIP3   OH227319   0.768   4.547   2.824  0.2565  0.2069 -0.4699
 1943TIP3    H127320   0.816   4.566   2.744 -2.7604  1.4533 -2.1615
 1943TIP3    H227321   0.676   4.553   2.798 -0.8843 -2.0660  2.4886
 1944TIP3   OH227322   4.249   5.828   3.428  0.6017  0.6304  0.4952
 1944TIP3    H127323   4.303   5.766   3.477  0.7944  0.9236  0.6501
 1944TIP3    H227324   4.171   5.840   3.483  1.2369  1.6862  1.1854
 1945TIP3   OH227325   2.967   4.910   5.205 -0.1015  0.2988  0.4408
 1945TIP3    H127326   3.021   4.990   5.206 -1.3667  1.2365 -1.5742
 1945TIP3    H227327   3.025   4.843   5.170  0.5724  0.6281  0.8921
 1946TIP3   OH227328   5.197   1.590  16.522 -0.0174 -0.2098  1.0073
 1946TIP3    H127329   5.188   1.565  16.431  0.7820 -0.6126  1.0278
 1946TIP3    H227330   5.109   1.580  16.559 -0.0286 -1.6013  0.6654
 1947TIP3   OH227331   3.103   2.889   2.004  0.3872  0.4625  0.2149
 1947TIP3    H127332   3.044   2.964   1.998  0.8670  0.7775 -0.6956
 1947TIP3    H227333   3.160   2.910   2.078 -1.1135 -0.2109  1.6287
 1948TIP3   OH227334   0.275   6.093  10.820 -0.4245  0.2202  0.6138
 1948TIP3    H127335   0.281   6.091  10.916  0.0557  2.0256  0.6529
 1948TIP3    H227336   0.185   6.121  10.803 -1.7301 -3.5944  0.4119
 1949TIP3   OH227337   1.807   5.040  13.729  0.4023  0.2980  0.5456
 1949TIP3    H127338   1.751   5.063  13.655 -1.2412 -0.4339  1.4844
 1949TIP3    H227339   1.876   4.986  13.692 -0.8375 -0.7175 -0.3687
 1950TIP3   OH227340   0.760   4.103  11.418  0.2397  0.4224 -0.2123
 1950TIP3    H127341   0.704   4.119  11.494 -0.2849  0.7007 -0.6531
 1950TIP3    H227342   0.759   4.008  11.407  1.0582  0.2959  0.6777
 1951TIP3   OH227343   2.738   0.942  11.651 -0.2652 -0.6101  0.8116
 1951TIP3    H127344   2.809   0.978  11.704 -0.2007  0.0537  0.2818
 1951TIP3    H227345   2.783   0.882  11.590  0.4933  2.7906 -2.3069
 1952TIP3   OH227346   3.108   2.563   6.550 -0.4401 -0.2746  0.2498
 1952TIP3    H127347   3.125   2.497   6.616 -1.1372 -0.6978  0.0195
 1952TIP3    H227348   3.016   2.551   6.527 -0.7150  1.0783  0.5395
 1953TIP3   OH227349   6.311   2.791   2.049 -0.2582  0.3324  0.1140
 1953TIP3    H127350   6.221   2.791   2.019 -0.5640 -0.3077  1.0009
 1953TIP3    H227351   6.344   2.704   2.026  0.0309  0.4470  0.0881
 1954TIP3   OH227352   2.156   5.272  15.164 -0.1601  0.5910  0.4214
 1954TIP3    H127353   2.121   5.340  15.106  0.7334 -0.1071 -0.9961
 1954TIP3    H227354   2.247   5.262  15.137 -0.1057 -0.7403  1.0108
 1955TIP3   OH227355   4.222   0.674   2.753  0.4276 -0.4948 -0.2228
 1955TIP3    H127356   4.260   0.722   2.680 -0.4731  1.0605  0.2569
 1955TIP3    H227357   4.150   0.624   2.714  1.5284 -1.6990 -0.7712
 1956TIP3   OH227358   6.707   1.255   0.199  0.1455  0.4465 -0.2369
 1956TIP3    H127359   6.661   1.229   0.119  1.1729  1.4313 -1.1786
 1956TIP3    H227360   6.749   1.175   0.230 -1.1625 -0.1998 -0.0226
 1957TIP3   OH227361   2.290   6.132  11.509 -0.0749 -0.2216  0.3668
 1957TIP3    H127362   2.321   6.084  11.433 -1.2819  0.3123 -0.4842
 1957TIP3    H227363   2.355   6.113  11.577  0.7768 -1.0664 -0.6478
 1958TIP3   OH227364   4.355   1.681   4.301  0.3814  0.1986  0.3804
 1958TIP3    H127365   4.382   1.770   4.326 -0.8603  0.9800 -0.8514
 1958TIP3    H227366   4.319   1.692   4.213  2.1539 -1.9269 -0.6894
 1959TIP3   OH227367   3.731   6.010   2.656  0.5243  0.3917 -0.1091
 1959TIP3    H127368   3.698   5.950   2.724 -0.7401  2.0586  0.8080
 1959TIP3    H227369   3.788   6.071   2.703 -1.0576  2.1142 -0.3250
 1960TIP3   OH227370   6.445   3.152  14.134 -0.4766 -0.3307  0.0292
 1960TIP3    H127371   6.444   3.066  14.176 -3.3279 -0.0185  0.8060
 1960TIP3    H227372   6.353   3.176  14.125  0.1941  3.0061  0.6060
 1961TIP3   OH227373   4.775   5.479   4.642  0.5776 -0.1158  0.1211
 1961TIP3    H127374   4.775   5.554   4.583 -0.3623  0.3167  0.6503
 1961TIP3    H227375   4.719   5.505   4.715 -0.4053 -1.5944 -0.0473
 1962TIP3   OH227376   2.199   1.427   3.735  0.8536  0.3134  0.0382
 1962TIP3    H127377   2.169   1.406   3.647  1.6908 -3.4158  0.4891
 1962TIP3    H227378   2.172   1.518   3.748 -1.8608  0.1121 -2.9294
 1963TIP3   OH227379   3.469   6.359  17.005 -0.5368 -0.2155  0.1009
 1963TIP3    H127380   3.499   6.426  16.943 -0.7455 -0.9640 -0.8365
 1963TIP3    H227381   3.547   6.339  17.057 -0.7220  1.4837  1.1243
 1964TIP3   OH227382   1.536   5.084   5.047 -0.5212  0.3647 -0.1559
 1964TIP3    H127383   1.529   5.036   4.964  1.6902 -2.2309  0.9658
 1964TIP3    H227384   1.620   5.129   5.041  0.1169 -0.6164  0.9604
 1965TIP3   OH227385   2.171   5.760   1.262 -0.3136  0.6019 -0.6877
 1965TIP3    H127386   2.180   5.806   1.346  0.3409 -1.9605  0.7332
 1965TIP3    H227387   2.117   5.684   1.282  2.9992 -2.2298 -1.5692
 1966TIP3   OH227388   1.326   3.535  10.128  0.1484  0.3561 -0.5168
 1966TIP3    H127389   1.350   3.627  10.138 -1.2888  0.5458  1.9078
 1966TIP3    H227390   1.287   3.511  10.212 -0.3208 -2.2412 -1.3872
 1967TIP3   OH227391   6.157   5.606   6.112  0.0977 -0.0246  0.4377
 1967TIP3    H127392   6.212   5.684   6.115 -0.2635  0.2226  0.7930
 1967TIP3    H227393   6.164   5.575   6.021  1.5120 -0.5139  0.7019
 1968TIP3   OH227394   6.511   3.818  11.819 -0.1663 -0.2298  0.0197
 1968TIP3    H127395   6.456   3.842  11.745 -0.9637 -0.8739  0.3805
 1968TIP3    H227396   6.472   3.737  11.852  0.8028 -0.5148  0.4985
 1969TIP3   OH227397   3.586   5.111  11.297  0.5023  0.1475 -0.3290
 1969TIP3    H127398   3.645   5.098  11.223 -1.2273  0.8725 -1.9134
 1969TIP3    H227399   3.558   5.202  11.289 -2.6346 -0.7750 -1.0731
 1970TIP3   OH227400   3.515   0.953   4.941  0.2381  0.0782 -0.2781
 1970TIP3    H127401   3.439   0.991   4.897 -0.1614 -0.1300  0.2234
 1970TIP3    H227402   3.576   1.026   4.950 -0.0217  0.3153 -0.4180
 1971TIP3   OH227403   5.302   3.520  14.187 -0.2054 -0.1974  1.0354
 1971TIP3    H127404   5.235   3.573  14.143 -0.5419  1.2224  3.1082
 1971TIP3    H227405   5.302   3.437  14.139  0.5519  1.6652 -2.5623
 1972TIP3   OH227406   4.254   2.930   5.405  0.1144  0.2944 -0.5879
 1972TIP3    H127407   4.328   2.884   5.446 -0.5680 -1.8563 -1.6638
 1972TIP3    H227408   4.263   3.021   5.436  1.6574 -0.4671  1.4346
 1973TIP3   OH227409   3.669   2.164   4.483 -0.2569  0.1065  0.9068
 1973TIP3    H127410   3.636   2.100   4.546 -0.2430  0.7718  1.6149
 1973TIP3    H227411   3.746   2.123   4.445 -0.3228 -0.3497  1.2568
 1974TIP3   OH227412   0.273   2.815  14.232 -0.6965  0.0165 -0.9404
 1974TIP3    H127413   0.346   2.768  14.192  0.7128  1.0996  0.2460
 1974TIP3    H227414   0.236   2.752  14.294 -0.4404 -0.3664 -1.1717
 1975TIP3   OH227415   5.640   4.281  15.710  0.1910  0.6199  0.5366
 1975TIP3    H127416   5.567   4.304  15.767 -1.5069 -1.9565 -0.4021
 1975TIP3    H227417   5.605   4.291  15.621  1.5595  0.9564  0.0114
 1976TIP3   OH227418   4.416   5.517   4.760  0.2045  0.1133 -0.0852
 1976TIP3    H127419   4.335   5.498   4.806 -0.6391  0.5483 -1.3276
 1976TIP3    H227420   4.481   5.459   4.800 -0.8757 -0.7719  0.4350
 1977TIP3   OH227421   4.011   2.308  15.975  0.6784 -0.0022 -0.0968
 1977TIP3    H127422   3.975   2.236  15.923  0.4750  1.5386 -2.2383
 1977TIP3    H227423   4.083   2.269  16.025  0.6285 -1.6626 -1.2474
 1978TIP3   OH227424   3.121   4.771  10.861 -0.2822  0.2253  0.3897
 1978TIP3    H127425   3.201   4.783  10.910  0.1901 -0.0505 -0.2988
 1978TIP3    H227426   3.064   4.720  10.919 -0.6879  1.9541  1.6219
 1979TIP3   OH227427   3.388   0.393   2.789  0.0405 -0.4919  0.3788
 1979TIP3    H127428   3.319   0.334   2.757  0.7541 -1.5094  0.6517
 1979TIP3    H227429   3.409   0.360   2.876  0.3878  0.2349  0.5749
 1980TIP3   OH227430   2.337   2.396   3.338 -0.3985  0.1969  0.3995
 1980TIP3    H127431   2.422   2.377   3.297 -0.3049 -0.2818  0.7978
 1980TIP3    H227432   2.281   2.423   3.266  0.1585  0.7489  0.1604
 1981TIP3   OH227433   3.875   2.826  13.596 -0.3197 -0.0374 -0.0810
 1981TIP3    H127434   3.916   2.742  13.617 -2.3974 -1.2819 -0.6981
 1981TIP3    H227435   3.875   2.874  13.679  1.4670 -0.3450  0.1312
 1982TIP3   OH227436   3.655   2.036   2.684  0.6529  0.0472  0.3975
 1982TIP3    H127437   3.713   1.964   2.659 -0.9886 -0.2838 -2.9169
 1982TIP3    H227438   3.584   1.994   2.732  1.3542  0.0125  1.4633
 1983TIP3   OH227439   5.729   3.189   1.583  0.4972 -0.0641 -0.8853
 1983TIP3    H127440   5.766   3.204   1.495  1.2024 -1.3940 -0.8396
 1983TIP3    H227441   5.804   3.163   1.636  0.2193  1.4636  0.3469
 1984TIP3   OH227442   5.990   3.185   3.245 -0.3647 -0.5282 -0.1185
 1984TIP3    H127443   5.960   3.116   3.303 -2.7851  0.7086  0.2185
 1984TIP3    H227444   5.929   3.183   3.171  2.0149 -1.3848 -2.1959
 1985TIP3   OH227445   0.474   2.951   0.331  0.1424  0.2089 -0.4246
 1985TIP3    H127446   0.526   2.894   0.274 -2.5961 -3.1955  0.1101
 1985TIP3    H227447   0.398   2.974   0.279  0.2404  1.7456  0.0735
 1986TIP3   OH227448   0.400   5.217   3.008  0.1958  1.0192  0.5499
 1986TIP3    H127449   0.477   5.211   3.065 -0.3115  1.9649  1.3654
 1986TIP3    H227450   0.329   5.243   3.067 -0.9101 -0.4557 -0.0542
 1987TIP3   OH227451   5.595   5.127  14.025 -0.0569 -0.6016 -0.1044
 1987TIP3    H127452   5.665   5.187  14.048 -1.2010  0.6414  0.2719
 1987TIP3    H227453   5.555   5.165  13.947  0.3203 -1.8587 -0.9461
 1988TIP3   OH227454   6.545   2.695   1.023 -0.1405 -0.7825 -0.0939
 1988TIP3    H127455   6.531   2.618   0.969  0.4032 -0.9562  0.0058
 1988TIP3    H227456   6.457   2.726   1.044 -0.3749 -0.3380 -1.5939
 1989TIP3   OH227457   6.479   2.070   0.245 -0.1056  0.0925 -0.5672
 1989TIP3    H127458   6.439   2.136   0.302  1.0318 -0.1684  0.5757
 1989TIP3    H227459   6.470   2.107   0.157 -0.2252  1.4021 -0.0378
 1990TIP3   OH227460   2.426   6.272  11.849  0.6650 -0.2747  0.2658
 1990TIP3    H127461   2.332   6.286  11.841  0.8222  1.5241  1.0396
 1990TIP3    H227462   2.460   6.285  11.760  0.3026  0.0531  0.1750
 1991TIP3   OH227463   5.067   1.967  16.418  0.5215  0.1405  0.4094
 1991TIP3    H127464   5.049   2.041  16.360 -0.1960  0.1343  0.6193
 1991TIP3    H227465   4.998   1.903  16.399  1.5337 -0.7821 -0.2601
 1992TIP3   OH227466   3.417   2.875  13.625  0.5501  0.1357 -0.2437
 1992TIP3    H127467   3.476   2.853  13.552  1.5658  1.1795  0.2387
 1992TIP3    H227468   3.466   2.851  13.703 -0.3560 -0.5536  0.1309
 1993TIP3   OH227469   5.661   4.429  17.047  0.8365  0.0131  0.1383
 1993TIP3    H127470   5.648   4.408  16.954  1.5044 -0.8906  0.2378
 1993TIP3    H227471   5.703   4.351  17.084  0.7905  0.4534  1.1533
 1994TIP3   OH227472   6.643   4.043   0.337 -1.4290 -0.1173  0.1438
 1994TIP3    H127473   6.710   3.978   0.319  0.0280  1.2974  0.1968
 1994TIP3    H227474   6.689   4.111   0.386 -2.2108  2.1827 -2.1024
 1995TIP3   OH227475   4.207   4.344  11.678  0.1437 -0.2730  0.1809
 1995TIP3    H127476   4.184   4.427  11.719  0.6486 -0.4212  0.7710
 1995TIP3    H227477   4.274   4.307  11.735 -0.8151 -1.5763  0.4929
 1996TIP3   OH227478   0.896   2.483  14.933 -0.2142 -0.7462  0.3117
 1996TIP3    H127479   0.952   2.457  15.006  0.0344 -0.5290  0.1988
 1996TIP3    H227480   0.937   2.444  14.856  0.3113  0.1807  0.1020
 1997TIP3   OH227481   4.878   2.968   1.119 -0.5213 -0.3297 -0.0441
 1997TIP3    H127482   4.914   2.998   1.036  2.0967  0.1127  1.1385
 1997TIP3    H227483   4.910   2.878   1.128  1.1922  0.3608  1.4389
 1998TIP3   OH227484   3.528   4.259  15.298 -0.0376  0.4843  0.4469
 1998TIP3    H127485   3.531   4.308  15.216  2.7159 -1.1289 -0.5644
 1998TIP3    H227486   3.463   4.191  15.282  1.1158 -0.3827 -0.8314
 1999TIP3   OH227487   3.672   5.719   3.892  0.1210  0.3376  0.0593
 1999TIP3    H127488   3.720   5.701   3.811  0.3941  0.2234  0.2477
 1999TIP3    H227489   3.587   5.751   3.862 -0.3829 -1.2616 -0.2820
 2000TIP3   OH227490   6.834   3.790   0.019 -0.0642  0.7148  0.4697
 2000TIP3    H127491   6.752   3.741   0.024 -0.0454  0.7402  1.2014
 2000TIP3    H227492   6.859   3.787  -0.073  0.1272 -0.9754  0.5410
 2001TIP3   OH227493   1.387   3.215  12.760 -0.0376 -0.5631 -0.0926
 2001TIP3    H127494   1.481   3.200  12.769 -0.2990 -1.3726  1.7476
 2001TIP3    H227495   1.363   3.169  12.679  1.5375  1.9818 -2.2017
 2002TIP3   OH227496   3.328   3.083   2.470 -0.1175 -0.2336 -0.0108
 2002TIP3    H127497   3.358   3.162   2.515  1.2546 -0.6377 -0.1730
 2002TIP3    H227498   3.345   3.012   2.532 -4.1480 -0.1731  1.4069
 2003TIP3   OH227499   5.411   6.547  13.508  0.1516  0.4252 -0.1454
 2003TIP3    H127500   5.363   6.622  13.472 -0.6260  0.6717  1.3243
 2003TIP3    H227501   5.386   6.474  13.452 -2.2161  0.4947  0.7078
 2004TIP3   OH227502   3.985   4.326  15.496 -0.0293 -0.1467 -0.4137
 2004TIP3    H127503   3.999   4.410  15.451 -0.2486 -0.0757 -0.3473
 2004TIP3    H227504   4.038   4.264  15.446 -0.9175 -0.2333 -1.2806
 2005TIP3   OH227505   4.692   4.250   2.956 -0.5201  0.6398  0.4659
 2005TIP3    H127506   4.788   4.247   2.958 -0.4268  1.9907 -0.6348
 2005TIP3    H227507   4.666   4.158   2.943  0.6685  0.3709 -0.2204
 2006TIP3   OH227508   5.394   4.094   2.167 -0.2560 -0.5361  0.5173
 2006TIP3    H127509   5.364   4.164   2.225 -1.5149  0.6934 -1.4903
 2006TIP3    H227510   5.448   4.038   2.222  2.6134  3.1277  1.7830
 2007TIP3   OH227511   4.969   4.647   4.882  0.0746 -0.3188 -0.1334
 2007TIP3    H127512   4.980   4.554   4.863 -0.1100 -0.5487  0.8503
 2007TIP3    H227513   5.046   4.670   4.934 -1.0589 -0.5422  1.7652
 2008TIP3   OH227514   6.256   2.494  10.158  0.4151  0.1205 -0.0639
 2008TIP3    H127515   6.343   2.530  10.142 -0.2004  0.7369 -2.4578
 2008TIP3    H227516   6.231   2.454  10.075 -0.2889 -3.0795  1.5101
 2009TIP3   OH227517   0.677   5.630   4.479 -0.2577 -0.7778  0.4745
 2009TIP3    H127518   0.684   5.624   4.384  0.9968 -2.4401  0.6253
 2009TIP3    H227519   0.742   5.696   4.504 -1.1847  0.2784  0.1289
 2010TIP3   OH227520   1.229   3.874  12.001 -0.3656  0.2920  0.4076
 2010TIP3    H127521   1.233   3.969  11.996  1.6796  0.3141  1.5838
 2010TIP3    H227522   1.278   3.843  11.925 -0.4381  0.1914  0.4010
 2011TIP3   OH227523   3.138   2.494  13.669  0.2365  0.2488 -0.4197
 2011TIP3    H127524   3.057   2.540  13.647 -0.3071  0.0380  0.9851
 2011TIP3    H227525   3.111   2.402  13.678  0.8449  0.0122 -0.9489
 2012TIP3   OH227526   1.875   5.000   3.117  0.8517  0.7410  0.1345
 2012TIP3    H127527   1.929   4.924   3.095 -0.0974  0.0961  0.0142
 2012TIP3    H227528   1.920   5.073   3.074  1.7989  0.2629  0.2925
 2013TIP3   OH227529   2.143   1.466   3.189 -0.1269  0.3329  0.5456
 2013TIP3    H127530   2.095   1.384   3.177 -0.1694  0.4013  0.2460
 2013TIP3    H227531   2.122   1.518   3.112  1.7820 -0.3210 -0.4724
 2014TIP3   OH227532   3.401   1.353   0.509  0.1630 -0.0782 -0.1000
 2014TIP3    H127533   3.449   1.311   0.581  0.8322  1.0660  0.1451
 2014TIP3    H227534   3.420   1.446   0.519 -0.1653  0.1500 -1.4514
 2015TIP3   OH227535   0.010   2.614  11.671 -0.5029  0.4975 -0.2992
 2015TIP3    H127536   0.102   2.614  11.695 -0.3263  0.9852 -0.9329
 2015TIP3    H227537  -0.034   2.659  11.743 -0.4812 -1.1071  0.7680
 2016TIP3   OH227538   1.011   2.109   1.503 -1.0206  0.4620  0.1712
 2016TIP3    H127539   1.065   2.187   1.509 -0.1490 -0.2051  1.7259
 2016TIP3    H227540   1.072   2.039   1.480 -1.8585  0.2629 -1.6227
 2017TIP3   OH227541   0.142   6.102  15.410 -0.3896 -0.7678  0.7133
 2017TIP3    H127542   0.219   6.141  15.452  0.8718 -0.3067 -1.8200
 2017TIP3    H227543   0.067   6.140  15.457  0.8146  2.5726  0.2429
 2018TIP3   OH227544   3.403   0.484  10.684  0.0339  0.5364  0.2203
 2018TIP3    H127545   3.348   0.559  10.662  1.1194  1.1394 -0.5111
 2018TIP3    H227546   3.492   0.516  10.677  0.5419 -0.9151 -0.4555
 2019TIP3   OH227547   1.923   5.185   2.026  0.0513 -0.1566 -0.0736
 2019TIP3    H127548   1.948   5.163   2.116  0.0929  0.5747  0.1022
 2019TIP3    H227549   1.978   5.130   1.971  0.8626  0.2340  0.3371
 2020TIP3   OH227550   6.702   6.601   2.335 -0.2285 -0.2108 -0.3568
 2020TIP3    H127551   6.655   6.612   2.418  0.8715  0.2537  0.2185
 2020TIP3    H227552   6.767   6.533   2.353 -1.5754 -1.8925 -1.5599
 2021TIP3   OH227553   5.582   0.825   2.879 -0.0314 -0.1051 -0.4583
 2021TIP3    H127554   5.656   0.823   2.939 -0.5530  1.8011  0.3337
 2021TIP3    H227555   5.517   0.880   2.923 -0.3176  1.6490 -2.8677
 2022TIP3   OH227556   4.490   3.151   5.817  0.5575  0.7958 -0.6274
 2022TIP3    H127557   4.446   3.106   5.889 -0.3536  1.1436 -0.9505
 2022TIP3    H227558   4.533   3.226   5.858 -1.2426  1.8735 -0.6362
 2023TIP3   OH227559   0.434   2.297  16.294 -0.5813  0.5833  0.1101
 2023TIP3    H127560   0.508   2.301  16.233  0.1600 -0.3664  0.9133
 2023TIP3    H227561   0.395   2.211  16.278 -2.0757  1.4130 -0.9116
 2024TIP3   OH227562   1.745   6.827   2.863  0.4350  0.0511  0.1202
 2024TIP3    H127563   1.724   6.793   2.776 -0.6934 -1.2940  0.8714
 2024TIP3    H227564   1.716   6.919   2.860 -1.9433 -0.6419 -0.1933
 2025TIP3   OH227565   0.272   6.301   0.693  0.3169 -0.3733 -0.1866
 2025TIP3    H127566   0.292   6.285   0.600  0.8705 -0.2924 -0.0843
 2025TIP3    H227567   0.307   6.388   0.710 -0.3290 -0.1335 -0.0512
 2026TIP3   OH227568   5.960   0.940   5.495 -0.0983 -0.2930  0.3716
 2026TIP3    H127569   5.958   0.976   5.406 -0.9687  2.4056  1.3897
 2026TIP3    H227570   6.053   0.937   5.517  0.0204  1.1350  0.1414
 2027TIP3   OH227571   5.195   1.233  15.535  0.2448 -0.0004  0.3057
 2027TIP3    H127572   5.241   1.312  15.563 -0.6129 -0.3605  3.0682
 2027TIP3    H227573   5.264   1.167  15.526  0.6239  0.1870  1.6070
 2028TIP3   OH227574   0.776   4.249  14.965  0.4265  0.4358  0.2077
 2028TIP3    H127575   0.862   4.257  15.008  0.4565 -0.6388  0.3691
 2028TIP3    H227576   0.782   4.306  14.889  1.5137 -0.1007 -0.1280
 2029TIP3   OH227577   3.272   6.006  12.075 -0.0756 -0.5226  0.6041
 2029TIP3    H127578   3.295   6.053  11.995  2.8467 -3.1637 -0.2729
 2029TIP3    H227579   3.202   6.059  12.115 -0.7430  1.5716 -2.9771
 2030TIP3   OH227580   2.412   1.696  13.640  0.1658  0.0313  0.5713
 2030TIP3    H127581   2.488   1.752  13.658  0.7062 -0.9064  1.2872
 2030TIP3    H227582   2.352   1.752  13.591  0.9440  1.0550  0.7578
 2031TIP3   OH227583   3.657   4.969   2.182 -0.7320  0.2792 -0.0050
 2031TIP3    H127584   3.668   5.059   2.150 -2.3242  0.9415  1.2053
 2031TIP3    H227585   3.746   4.941   2.204 -0.1877  1.4958 -0.5399
 2032TIP3   OH227586   3.805   0.757   6.560 -0.1371  0.1140 -0.1860
 2032TIP3    H127587   3.757   0.724   6.636  1.9420 -2.6483  0.0645
 2032TIP3    H227588   3.790   0.692   6.492  1.7151  0.0911 -0.6376
 2033TIP3   OH227589   5.883   4.525  16.215 -0.6680 -0.3928 -0.0964
 2033TIP3    H127590   5.942   4.526  16.140  0.0751 -1.5971  0.4500
 2033TIP3    H227591   5.864   4.617  16.232  1.5048  0.0718  0.0457
 2034TIP3   OH227592   2.441   3.132   5.456  0.5199  0.5245  0.5937
 2034TIP3    H127593   2.417   3.098   5.542  0.3331  2.6176  1.4246
 2034TIP3    H227594   2.486   3.215   5.475 -1.0705  1.9271 -1.3622
 2035TIP3   OH227595   6.487   0.219  13.408 -0.2942 -0.7456 -0.2473
 2035TIP3    H127596   6.481   0.222  13.312 -0.4018  0.3213 -0.2125
 2035TIP3    H227597   6.566   0.268  13.429 -2.5334  2.9713  0.4049
 2036TIP3   OH227598   6.730   1.870  13.012  0.5685  0.4352  0.3939
 2036TIP3    H127599   6.636   1.851  13.013  1.0932 -2.8280  0.8031
 2036TIP3    H227600   6.764   1.818  12.938  2.3331 -0.4613  1.7568
 2037TIP3   OH227601   6.687   2.491  15.278 -0.3315 -0.3132  0.2704
 2037TIP3    H127602   6.755   2.438  15.320  1.1369  0.6046 -0.8378
 2037TIP3    H227603   6.615   2.430  15.262  0.9535 -1.7803 -0.1698
 2038TIP3   OH227604   0.592   2.059   3.488 -0.7075 -0.0846 -0.0937
 2038TIP3    H127605   0.502   2.043   3.460 -0.7752  1.0033 -0.5277
 2038TIP3    H227606   0.627   2.120   3.423  0.3693 -0.5423  0.0287
 2039TIP3   OH227607   0.554   6.248  15.680  0.3190  0.2452 -0.5708
 2039TIP3    H127608   0.576   6.181  15.744  0.4396 -1.3027 -2.1736
 2039TIP3    H227609   0.587   6.330  15.719  1.5943 -0.8265  0.7178
 2040TIP3   OH227610   6.083   2.062   0.361 -0.4608  0.7505  0.0356
 2040TIP3    H127611   6.014   2.124   0.385  0.4362  1.6761  0.3609
 2040TIP3    H227612   6.136   2.110   0.297 -0.2380 -0.0177 -0.3592
 2041TIP3   OH227613   4.478   6.066   1.093 -0.6560 -0.4296 -0.1231
 2041TIP3    H127614   4.456   6.159   1.083 -0.9055 -0.2619  1.6499
 2041TIP3    H227615   4.572   6.062   1.078 -0.0136  0.6999  2.8467
 2042TIP3   OH227616   1.613   1.698   4.452 -0.1401  0.3736  0.3997
 2042TIP3    H127617   1.629   1.764   4.519  0.9457  1.9291 -1.3000
 2042TIP3    H227618   1.689   1.704   4.394 -0.9189 -1.0948 -0.8411
 2043TIP3   OH227619   1.735   3.832  11.579  0.0953  0.0673  0.0676
 2043TIP3    H127620   1.787   3.912  11.579  0.5423 -0.2061 -0.8486
 2043TIP3    H227621   1.669   3.846  11.647  2.3553 -0.2393  2.4524
 2044TIP3   OH227622   0.889   4.556   5.413 -0.7274  0.0736 -0.4649
 2044TIP3    H127623   0.971   4.509   5.423 -0.4556  0.5739 -0.3422
 2044TIP3    H227624   0.829   4.491   5.377 -0.0692 -0.0814 -1.3037
 2045TIP3   OH227625   2.076   1.553   1.745  0.0789 -0.0722  0.0547
 2045TIP3    H127626   1.998   1.518   1.703  0.7156 -0.7583 -0.5980
 2045TIP3    H227627   2.107   1.482   1.802  0.2836  0.1612  0.2397
 2046TIP3   OH227628   3.606   1.773  17.115 -0.4953  0.1514 -0.1838
 2046TIP3    H127629   3.624   1.866  17.098 -1.9601  0.4879  0.0010
 2046TIP3    H227630   3.673   1.748  17.178  2.2107  0.0672 -2.8511
 2047TIP3   OH227631   0.641   1.370   0.978  0.0700 -0.0089 -0.7289
 2047TIP3    H127632   0.631   1.414   0.894 -0.0380 -0.7932 -1.1373
 2047TIP3    H227633   0.562   1.316   0.986  0.3720 -0.4120 -0.4179
 2048TIP3   OH227634   5.803   2.861  15.437  0.4562  0.0440 -0.6269
 2048TIP3    H127635   5.789   2.931  15.374  0.7500  1.4582  0.8068
 2048TIP3    H227636   5.855   2.796  15.390  0.9742  1.2108 -1.7303
 2049TIP3   OH227637   1.424   4.074   5.344 -0.0406  0.2848  0.5364
 2049TIP3    H127638   1.341   4.038   5.377 -0.1840 -0.3949 -0.5098
 2049TIP3    H227639   1.451   4.137   5.410 -0.4390 -0.8469  1.8236
 2050TIP3   OH227640   0.053   5.673   0.931  0.0388 -0.4318  0.4141
 2050TIP3    H127641   0.113   5.650   0.860 -0.3838 -5.2159  1.2646
 2050TIP3    H227642  -0.013   5.728   0.889  0.6363 -1.7595 -2.5820
 2051TIP3   OH227643   0.096   5.157   0.934 -0.4222 -0.7294 -0.3166
 2051TIP3    H127644   0.099   5.061   0.934  0.2963 -0.7185  0.5814
 2051TIP3    H227645   0.165   5.183   0.873 -0.2415 -0.7735 -0.1298
 2052TIP3   OH227646   3.313   1.211  14.660  0.2483 -0.3090  0.0508
 2052TIP3    H127647   3.289   1.211  14.567 -0.1502  0.8780  0.1322
 2052TIP3    H227648   3.408   1.197  14.660  0.3407  0.2152 -0.5840
 2053TIP3   OH227649   4.418   2.916  16.793  0.0846  0.4542  0.3059
 2053TIP3    H127650   4.480   2.886  16.859  0.5098  0.3481 -0.1413
 2053TIP3    H227651   4.356   2.844  16.784  0.7268 -0.0369 -0.2884
 2054TIP3   OH227652   4.496   5.193  13.422  0.4296  0.4706  0.1125
 2054TIP3    H127653   4.458   5.268  13.376 -1.5090  0.4913  1.6048
 2054TIP3    H227654   4.457   5.116  13.380  1.5097  0.3179 -0.6463
 2055TIP3   OH227655   2.708   2.793   2.397 -0.2035 -0.0429  0.3571
 2055TIP3    H127656   2.636   2.838   2.441 -0.5959 -0.5679  0.2487
 2055TIP3    H227657   2.785   2.816   2.450 -0.1877  1.7384 -0.3736
 2056TIP3   OH227658   2.871   5.894  16.872 -0.0628  0.1578 -0.7000
 2056TIP3    H127659   2.842   5.845  16.795  2.5201 -1.7937 -0.5568
 2056TIP3    H227660   2.806   5.873  16.940 -0.1117 -1.4926 -1.2170
 2057TIP3   OH227661   6.056   4.154  16.674 -0.0170  0.4342  0.4548
 2057TIP3    H127662   6.024   4.151  16.583  1.3383 -2.2695 -0.0348
 2057TIP3    H227663   5.977   4.150  16.727 -0.7568 -0.3312 -0.6502
 2058TIP3   OH227664   0.470   4.428   5.776 -0.2445  0.7168  0.0685
 2058TIP3    H127665   0.487   4.513   5.816 -0.8258  0.5162  0.7556
 2058TIP3    H227666   0.473   4.366   5.848 -0.2651  0.2141 -0.3575
 2059TIP3   OH227667   0.529   3.742  16.047 -0.5785 -0.1401  0.4301
 2059TIP3    H127668   0.461   3.716  15.986  0.6873 -0.7749 -0.7557
 2059TIP3    H227669   0.527   3.838  16.047 -1.8009 -0.1514  0.8297
 2060TIP3   OH227670   2.517   3.502  11.740  0.2368  0.3158 -0.1090
 2060TIP3    H127671   2.560   3.427  11.698 -1.2361 -0.0329 -1.0859
 2060TIP3    H227672   2.586   3.568  11.746  1.7448 -1.2900  1.3541
 2061TIP3   OH227673   1.716   4.631  12.463  0.0056  0.3565 -0.1514
 2061TIP3    H127674   1.621   4.639  12.467  0.0453  0.3952  1.5242
 2061TIP3    H227675   1.732   4.567  12.394 -1.2756 -0.2935  0.1194
 2062TIP3   OH227676   3.320   4.002  13.647 -0.0268 -0.3846  0.0963
 2062TIP3    H127677   3.252   3.936  13.632 -1.7508  0.9238  1.6810
 2062TIP3    H227678   3.310   4.026  13.739  0.3352  2.2617 -0.4759
 2063TIP3   OH227679   4.002   3.521  15.006  0.0023 -0.5161  0.4835
 2063TIP3    H127680   3.982   3.594  15.065 -0.4803 -0.1771 -0.0855
 2063TIP3    H227681   4.094   3.500  15.024  0.8016  1.5875 -0.7571
 2064TIP3   OH227682   2.634   6.092  15.567  0.5738  0.3965 -0.0216
 2064TIP3    H127683   2.720   6.098  15.524  0.4536  0.0443 -0.3190
 2064TIP3    H227684   2.579   6.049  15.502  0.4370 -0.3209  0.5648
 2065TIP3   OH227685   6.586   2.554   4.334 -0.2758 -0.1593  0.5729
 2065TIP3    H127686   6.612   2.646   4.344 -2.0599  0.2900  1.4864
 2065TIP3    H227687   6.554   2.528   4.421 -0.2061 -1.5226  0.2193
 2066TIP3   OH227688   3.584   0.684  13.168 -0.2323  0.4300 -0.6239
 2066TIP3    H127689   3.596   0.739  13.091 -0.5099  1.6607  0.1760
 2066TIP3    H227690   3.591   0.745  13.242  0.4887 -0.7764  0.3513
 2067TIP3   OH227691   3.653   3.841   4.752  0.4893  0.4889  0.7234
 2067TIP3    H127692   3.571   3.810   4.790 -0.5028 -0.0699 -1.7074
 2067TIP3    H227693   3.699   3.761   4.726  1.3230  0.8342  1.1138
 2068TIP3   OH227694   6.397   0.228  16.896 -0.1899  0.3322  0.0634
 2068TIP3    H127695   6.382   0.323  16.893  1.4505  0.6097 -0.0399
 2068TIP3    H227696   6.457   0.215  16.969 -2.6941 -1.0272  2.0744
 2069TIP3   OH227697   5.289   4.259  12.167  0.0533  0.1839  0.5566
 2069TIP3    H127698   5.332   4.344  12.177  1.3684 -0.4094  0.1644
 2069TIP3    H227699   5.289   4.221  12.255  0.6705  0.0408  0.4982
 2070TIP3   OH227700   2.214   2.247  14.666  0.2466 -0.1734  0.0356
 2070TIP3    H127701   2.183   2.191  14.596  0.5031  0.6423 -0.7539
 2070TIP3    H227702   2.287   2.295  14.628  0.5526  0.1010  0.9434
 2071TIP3   OH227703   6.673   1.058   3.730  0.2219  0.0417  0.4089
 2071TIP3    H127704   6.685   1.147   3.696 -0.3411 -1.0383 -3.0204
 2071TIP3    H227705   6.753   1.012   3.705 -0.0880 -0.7686  0.8810
 2072TIP3   OH227706   5.695   5.394  14.716 -0.6622 -0.3467 -0.0920
 2072TIP3    H127707   5.784   5.393  14.750 -0.3907 -0.5143 -0.7950
 2072TIP3    H227708   5.689   5.476  14.667 -0.3284 -1.1331 -1.4980
 2073TIP3   OH227709   0.630   3.995   2.531  0.0151 -0.4478  0.0884
 2073TIP3    H127710   0.608   4.087   2.548  2.6701  0.7099 -2.0206
 2073TIP3    H227711   0.657   3.961   2.616 -1.8467  0.3886  1.0904
 2074TIP3   OH227712   2.298   2.815  16.935 -0.0973 -0.2295 -0.5505
 2074TIP3    H127713   2.237   2.863  16.878 -0.1409  1.1348  0.6049
 2074TIP3    H227714   2.348   2.883  16.979 -0.6856 -1.1883  1.7363
 2075TIP3   OH227715   6.296   1.953   1.574 -0.1878 -0.0562  0.2455
 2075TIP3    H127716   6.374   1.987   1.618 -0.9865  0.9195  0.9396
 2075TIP3    H227717   6.226   2.011   1.601 -1.3902 -1.6011  0.5475
 2076TIP3   OH227718   2.385   0.991   0.412  0.1158  0.4915  0.1590
 2076TIP3    H127719   2.416   0.929   0.345  0.6652 -1.2021  1.8906
 2076TIP3    H227720   2.464   1.029   0.448 -0.1401  0.7880  0.4123
 2077TIP3   OH227721   3.902   0.004  16.892  0.4238 -0.9976  0.4370
 2077TIP3    H127722   3.954   0.058  16.832  0.1066  0.9118  1.7865
 2077TIP3    H227723   3.966  -0.038  16.948  0.6734 -2.0725 -0.6087
 2078TIP3   OH227724   3.220   2.177   4.843 -0.1281 -0.0350  0.0451
 2078TIP3    H127725   3.280   2.172   4.916 -0.8529  2.2345  0.8846
 2078TIP3    H227726   3.271   2.148   4.767  1.1319 -0.8358  1.1696
 2079TIP3   OH227727   3.405   6.064  13.933  0.2485  0.3306 -0.2306
 2079TIP3    H127728   3.375   6.154  13.947 -1.3358 -0.3559  1.1418
 2079TIP3    H227729   3.432   6.034  14.020  0.1929 -0.7099 -0.5613
 2080TIP3   OH227730   0.945   5.723   0.481 -0.0688 -0.5100  0.4044
 2080TIP3    H127731   0.937   5.681   0.567 -0.6239 -0.3378  0.4393
 2080TIP3    H227732   0.996   5.661   0.429 -1.8238 -1.7628  0.1138
 2081TIP3   OH227733   5.205   4.603   6.153 -0.6707 -0.0867  0.0096
 2081TIP3    H127734   5.189   4.519   6.197 -0.2725 -0.5465 -0.7074
 2081TIP3    H227735   5.268   4.648   6.209 -1.5108  0.0993  0.8344
 2082TIP3   OH227736   1.830   0.408   0.902 -0.1504 -0.1127 -0.6337
 2082TIP3    H127737   1.785   0.463   0.966  0.0751 -0.5391 -0.1108
 2082TIP3    H227738   1.777   0.417   0.822 -0.7065  0.0282 -0.2533
 2083TIP3   OH227739   4.922   3.258  17.062 -0.0179  0.2004 -0.6163
 2083TIP3    H127740   4.916   3.286  16.971  3.6915  0.6848 -0.8632
 2083TIP3    H227741   4.915   3.339  17.113 -0.8785  0.0756 -0.5219
 2084TIP3   OH227742   2.100   1.320   1.911 -0.2875 -0.2041  0.2649
 2084TIP3    H127743   2.135   1.382   1.975  3.2793 -0.9442 -0.7595
 2084TIP3    H227744   2.090   1.239   1.961  0.2421 -0.1858  0.4059
 2085TIP3   OH227745   6.326   3.253  13.245  1.0871 -0.4305 -0.4820
 2085TIP3    H127746   6.306   3.190  13.314 -0.1271  1.9679  1.5055
 2085TIP3    H227747   6.272   3.225  13.170 -0.5167 -0.9804  0.8240
 2086TIP3   OH227748   5.147   2.888  11.787  0.2958  0.4366 -0.1033
 2086TIP3    H127749   5.186   2.972  11.761 -1.3093  0.7066 -1.8661
 2086TIP3    H227750   5.220   2.827  11.785  1.1891  1.4792 -0.4341
 2087TIP3   OH227751   0.338   6.748  11.929  0.2770  0.1256  0.1688
 2087TIP3    H127752   0.364   6.659  11.905 -0.5647  0.4231 -2.1046
 2087TIP3    H227753   0.366   6.802  11.855 -0.9704  1.4400  0.6051
 2088TIP3   OH227754   3.502   4.478   1.027 -0.0783 -0.0946 -0.0362
 2088TIP3    H127755   3.513   4.457   1.119  1.9147 -2.6137 -0.7290
 2088TIP3    H227756   3.449   4.407   0.992  0.3585  0.0752 -1.0939
 2089TIP3   OH227757   1.240   4.175  11.995 -0.1494  0.3780  0.1124
 2089TIP3    H127758   1.227   4.267  12.015 -1.1524  0.2399  0.1580
 2089TIP3    H227759   1.233   4.170  11.900  1.8925  0.6259 -0.0926
 2090TIP3   OH227760   2.411   6.751   6.535  0.3666 -0.3518  0.4329
 2090TIP3    H127761   2.411   6.685   6.604  0.2727  1.7841  2.6308
 2090TIP3    H227762   2.407   6.701   6.454 -1.3776 -2.9963  1.9774
 2091TIP3   OH227763   5.133   4.332   4.215  0.0989  0.0142  0.3484
 2091TIP3    H127764   5.068   4.263   4.204  0.1281 -0.0191  0.3858
 2091TIP3    H227765   5.216   4.286   4.224  0.2007  0.0747 -0.2281
 2092TIP3   OH227766   4.077   5.847   5.647  0.4631  0.3275  0.0924
 2092TIP3    H127767   4.046   5.896   5.724 -1.7698  1.7279 -1.5448
 2092TIP3    H227768   4.000   5.797   5.618  1.3967 -0.5553 -0.9367
 2093TIP3   OH227769   2.702   6.430  16.342 -0.6793 -0.5101  0.1691
 2093TIP3    H127770   2.639   6.359  16.342 -1.5648  0.1783 -2.6985
 2093TIP3    H227771   2.784   6.389  16.368 -2.0842 -1.5029  3.6249
 2094TIP3   OH227772   1.595   6.098  13.560 -0.0027 -0.1973  0.7699
 2094TIP3    H127773   1.680   6.070  13.592  0.6612 -0.7867 -1.3214
 2094TIP3    H227774   1.594   6.071  13.468 -2.1365  0.5011  0.5263
 2095TIP3   OH227775   5.857   4.361  12.141  0.3740  0.0699  0.2174
 2095TIP3    H127776   5.863   4.456  12.148 -0.1477  0.1238 -0.0088
 2095TIP3    H227777   5.925   4.328  12.200  0.4879  0.5816  0.3756
 2096TIP3   OH227778   5.990   5.948  14.332 -0.7070  0.0709 -0.1121
 2096TIP3    H127779   5.992   5.987  14.419 -0.8750 -0.0047 -0.0731
 2096TIP3    H227780   6.010   6.020  14.272 -1.1990  0.2539 -0.0546
 2097TIP3   OH227781   2.155   3.609  14.257 -0.1665  0.2399 -0.2621
 2097TIP3    H127782   2.230   3.569  14.300 -0.4081 -0.4039 -0.4235
 2097TIP3    H227783   2.098   3.535  14.235  0.2173  0.4774 -2.2386
 2098TIP3   OH227784   2.109   1.466  15.787 -0.2469 -0.3832 -0.3756
 2098TIP3    H127785   2.060   1.519  15.725 -0.3234 -1.7330 -1.5178
 2098TIP3    H227786   2.176   1.423  15.734  0.3252 -0.8075  0.6582
 2099TIP3   OH227787   0.027   2.270  16.468 -0.0011  0.6256  0.1550
 2099TIP3    H127788   0.031   2.185  16.423  1.1072  0.4107  0.6377
 2099TIP3    H227789  -0.054   2.267  16.519 -0.0740 -0.0525  0.0025
 2100TIP3   OH227790   4.757   1.753  17.098  0.4543  0.5730 -0.5758
 2100TIP3    H127791   4.667   1.727  17.078  0.2444 -2.0507  2.8204
 2100TIP3    H227792   4.809   1.716  17.027 -0.8183 -1.2662 -0.6086
 2101TIP3   OH227793   0.020   6.133  12.106  0.2350  0.0474 -0.0387
 2101TIP3    H127794  -0.034   6.205  12.137  0.8333  0.9716 -1.0703
 2101TIP3    H227795  -0.042   6.066  12.079 -0.3268 -0.7081  2.7824
 2102TIP3   OH227796   6.429   5.987  11.519  0.7248 -0.2937 -0.2640
 2102TIP3    H127797   6.438   5.947  11.433  1.1621  0.3466 -0.5223
 2102TIP3    H227798   6.370   5.929  11.567  2.2482 -1.8867 -0.2311
 2103TIP3   OH227799   1.190   1.528   3.297  0.2914 -0.1226 -0.4258
 2103TIP3    H127800   1.159   1.451   3.345 -1.8619  0.5454 -0.6560
 2103TIP3    H227801   1.203   1.595   3.364 -2.2098  0.6490 -0.6317
 2104TIP3   OH227802   5.419   5.099  14.287  0.4987  0.5103  0.2421
 2104TIP3    H127803   5.428   5.109  14.192  0.3033  0.2531  0.1985
 2104TIP3    H227804   5.425   5.005  14.302 -0.9076  0.4268  0.3411
 2105TIP3   OH227805   4.484   0.370   1.520 -0.5647 -0.1484  0.7200
 2105TIP3    H127806   4.397   0.382   1.480 -1.2545 -4.5212  0.4870
 2105TIP3    H227807   4.467   0.324   1.602  1.4755  0.5353  1.5966
 2106TIP3   OH227808   0.105   4.791  14.667 -0.4179  0.0764 -0.2115
 2106TIP3    H127809   0.110   4.745  14.751 -0.0453 -3.6277 -2.0904
 2106TIP3    H227810   0.190   4.833  14.657  0.7024 -1.9940  0.0242
 2107TIP3   OH227811   2.370   4.361  12.671 -0.4629 -1.2503  0.1469
 2107TIP3    H127812   2.457   4.334  12.699 -1.2034 -1.4120  2.4173
 2107TIP3    H227813   2.386   4.435  12.612  1.1762 -0.9154  0.9763
 2108TIP3   OH227814   3.743   3.380   3.874 -0.1417  0.5959  0.4095
 2108TIP3    H127815   3.838   3.372   3.879  0.0812  0.3719 -2.5969
 2108TIP3    H227816   3.710   3.305   3.923  1.2089  0.7003  1.5241
 2109TIP3   OH227817   1.899   3.089   0.541 -0.5133  0.0932  0.1340
 2109TIP3    H127818   1.825   3.044   0.501 -0.2408 -0.1692 -0.0807
 2109TIP3    H227819   1.940   3.138   0.469 -1.0379  1.0142  0.4380
 2110TIP3   OH227820   2.700   5.074  15.138 -0.6953 -0.0510  0.2189
 2110TIP3    H127821   2.695   5.016  15.214  1.3795 -0.2778  0.2531
 2110TIP3    H227822   2.717   5.160  15.176  0.6823 -0.2211  0.0447
 2111TIP3   OH227823   6.786   1.191  12.294  0.6596  0.2817  1.0792
 2111TIP3    H127824   6.767   1.106  12.254 -0.6197  0.8332  0.4634
 2111TIP3    H227825   6.806   1.249  12.220 -0.6783  1.0432  1.2705
 2112TIP3   OH227826   6.502   3.330  15.574 -0.0989  0.9063  0.1841
 2112TIP3    H127827   6.502   3.236  15.591 -0.2920  0.7830 -0.4794
 2112TIP3    H227828   6.575   3.343  15.513  0.4241  1.3074  0.8744
 2113TIP3   OH227829   6.009   2.847  10.356  0.1592  0.0334  0.2332
 2113TIP3    H127830   5.973   2.926  10.316  3.9611  1.7680 -0.2015
 2113TIP3    H227831   6.053   2.878  10.435 -1.2333 -2.2945  2.0564
 2114TIP3   OH227832   4.446   3.048   2.583  0.3420  0.3054 -0.8760
 2114TIP3    H127833   4.479   3.004   2.504  0.3812  1.8570 -1.7699
 2114TIP3    H227834   4.368   3.095   2.552  0.2629  0.7997  0.0691
 2115TIP3   OH227835   6.075   3.771   2.302 -0.1331  0.1191 -0.2298
 2115TIP3    H127836   6.061   3.865   2.298  1.1845  0.3244 -0.4220
 2115TIP3    H227837   6.145   3.760   2.366 -0.5098 -0.7669  0.0498
 2116TIP3   OH227838   2.138   2.728   1.052  0.7596  0.0443  0.1409
 2116TIP3    H127839   2.192   2.659   1.012  1.9659  0.6090  0.7399
 2116TIP3    H227840   2.085   2.682   1.117  0.3820 -0.5485 -0.5645
 2117TIP3   OH227841   5.636   4.868   9.178 -0.0753 -0.2288  0.3987
 2117TIP3    H127842   5.666   4.816   9.253 -0.3778  1.8320  2.0279
 2117TIP3    H227843   5.585   4.939   9.217 -0.4356  0.7945 -1.8099
 2118TIP3   OH227844   4.104   6.094   3.547  0.1447  0.4176 -0.2939
 2118TIP3    H127845   4.071   6.158   3.483 -2.1168 -0.7358 -0.3773
 2118TIP3    H227846   4.041   6.022   3.543 -0.8969  0.8203  4.1566
 2119TIP3   OH227847   4.154   6.800  12.200 -0.3633 -0.3706 -0.1334
 2119TIP3    H127848   4.195   6.770  12.119 -1.4071 -0.5841 -0.5973
 2119TIP3    H227849   4.130   6.720  12.246  1.3841 -0.2715  1.0177
 2120TIP3   OH227850   1.528   4.008  12.373 -0.4037  0.4868 -0.1726
 2120TIP3    H127851   1.559   3.921  12.399  0.2172  0.6024 -0.4954
 2120TIP3    H227852   1.538   4.062  12.451 -2.2744 -0.0796  0.5159
 2121TIP3   OH227853   0.881   0.765   4.140 -0.0532  0.0200  0.2722
 2121TIP3    H127854   0.941   0.773   4.214 -0.9188 -0.1801  1.0094
 2121TIP3    H227855   0.835   0.682   4.155  1.8153 -1.5724 -2.0457
 2122TIP3   OH227856   4.159   0.174   6.443 -0.3908 -0.5524  0.2201
 2122TIP3    H127857   4.113   0.253   6.469 -0.1224  0.3749 -1.8912
 2122TIP3    H227858   4.184   0.131   6.525 -0.2802  1.7101  1.4238
 2123TIP3   OH227859   2.236   3.582   2.452  0.3301  0.1773  0.4594
 2123TIP3    H127860   2.222   3.489   2.472  0.5177  0.0104 -0.1499
 2123TIP3    H227861   2.189   3.629   2.521 -1.2586 -0.3645 -0.2039
 2124TIP3   OH227862   5.711   4.342  16.130  0.0437 -0.0830  0.0843
 2124TIP3    H127863   5.717   4.282  16.205  1.6405 -0.4042 -0.2609
 2124TIP3    H227864   5.789   4.397  16.137 -0.1416  0.3294 -0.9576
 2125TIP3   OH227865   2.885   1.291  13.223 -0.1392  0.1817 -0.4675
 2125TIP3    H127866   2.792   1.312  13.225 -0.1756  0.2280 -1.8014
 2125TIP3    H227867   2.899   1.251  13.137  0.8306 -1.0106  0.2288
 2126TIP3   OH227868   5.722   4.434  13.246  0.2665  0.1931  0.6170
 2126TIP3    H127869   5.790   4.497  13.268 -0.3642  0.3377  2.2321
 2126TIP3    H227870   5.769   4.362  13.203  1.4011  0.4001  1.4789
 2127TIP3   OH227871   1.042   2.336  10.136  0.1355 -0.0426 -0.2336
 2127TIP3    H127872   0.960   2.379  10.112  0.3189  0.9488  0.8135
 2127TIP3    H227873   1.094   2.406  10.176  1.2181 -0.8190 -0.2613
 2128TIP3   OH227874   2.432   0.357   0.538 -0.0962 -0.4758  0.5719
 2128TIP3    H127875   2.344   0.337   0.571 -0.9499  0.6936 -0.8899
 2128TIP3    H227876   2.484   0.374   0.617 -0.8671 -2.2525  1.5334
 2129TIP3   OH227877   6.380   4.129  14.489 -0.0117 -0.6567 -0.3246
 2129TIP3    H127878   6.342   4.154  14.405  2.3976 -1.0838 -1.6087
 2129TIP3    H227879   6.424   4.209  14.520 -1.9849 -0.0976  1.2570
 2130TIP3   OH227880   5.571   2.009  14.690  0.5129  0.3069  0.0625
 2130TIP3    H127881   5.516   1.991  14.766  0.8551  2.6573  0.9693
 2130TIP3    H227882   5.661   1.999  14.722  0.6487  0.1809 -0.3522
 2131TIP3   OH227883   6.324   3.510   2.394 -0.0397  0.2314 -0.1351
 2131TIP3    H127884   6.282   3.429   2.366  0.5214  0.1204 -0.6702
 2131TIP3    H227885   6.251   3.566   2.423 -0.4548 -0.3525 -0.0372
 2132TIP3   OH227886   1.344   0.032   5.542  0.3159 -0.0072  0.0727
 2132TIP3    H127887   1.373   0.103   5.484 -1.1916 -0.3424 -1.1648
 2132TIP3    H227888   1.418   0.018   5.601  1.3700  1.3177 -0.8541
 2133TIP3   OH227889   0.756   4.594  10.635  0.0865 -0.2363 -0.6966
 2133TIP3    H127890   0.769   4.524  10.699  5.1693  1.1725  0.2343
 2133TIP3    H227891   0.783   4.555  10.552  0.5322 -0.0861 -0.6247
 2134TIP3   OH227892   5.713   0.344  15.480 -0.4579 -0.2198 -0.1342
 2134TIP3    H127893   5.662   0.371  15.555  0.4566 -0.6338  0.6617
 2134TIP3    H227894   5.659   0.278  15.435 -0.9347 -0.0916  0.2530
 2135TIP3   OH227895   3.226   5.792   1.122 -0.3659  0.0106 -0.2373
 2135TIP3    H127896   3.134   5.805   1.100 -0.0649  1.3215 -0.7850
 2135TIP3    H227897   3.253   5.874   1.161  0.5366 -0.4283  0.0795
 2136TIP3   OH227898   2.859   2.323   2.013 -0.3658 -0.1423 -0.1089
 2136TIP3    H127899   2.908   2.263   1.957 -0.1744 -0.5309  0.4592
 2136TIP3    H227900   2.807   2.265   2.069 -0.4233  0.2321  0.2266
 2137TIP3   OH227901   6.402   1.360  16.685 -0.3641 -0.1677  0.3786
 2137TIP3    H127902   6.351   1.280  16.698  0.4340 -0.3771  2.6366
 2137TIP3    H227903   6.481   1.347  16.737  0.3345  1.6064 -0.1738
 2138TIP3   OH227904   0.504   4.051   4.416  0.0769  0.3951  0.2227
 2138TIP3    H127905   0.456   3.980   4.373  2.6335 -2.3008  1.4570
 2138TIP3    H227906   0.498   4.125   4.356 -0.5441 -1.6605 -2.3960
 2139TIP3   OH227907   3.736   3.588   3.438 -0.0162 -0.0582  0.1875
 2139TIP3    H127908   3.785   3.533   3.377  1.7236 -2.1547  3.1955
 2139TIP3    H227909   3.645   3.582   3.408  0.7820 -0.5289 -2.4231
 2140TIP3   OH227910   1.729   1.563  11.051 -0.4248  0.1098 -0.1094
 2140TIP3    H127911   1.648   1.606  11.078  0.5473  1.0384  1.4448
 2140TIP3    H227912   1.730   1.572  10.956 -1.9672  0.3686 -0.1312
 2141TIP3   OH227913   0.879   3.871   1.539  0.5746  0.2863  0.2843
 2141TIP3    H127914   0.844   3.954   1.506 -0.5540 -0.2905 -0.0141
 2141TIP3    H227915   0.882   3.814   1.462 -0.9233 -0.6849  0.9085
 2142TIP3   OH227916   0.375   3.747   2.668  0.3645 -0.0716  0.3593
 2142TIP3    H127917   0.301   3.691   2.691 -0.6161  1.0196 -0.0477
 2142TIP3    H227918   0.448   3.687   2.656 -0.8279 -1.3442 -0.8108
 2143TIP3   OH227919   6.409   4.705   2.486  0.5400 -0.5166 -0.3422
 2143TIP3    H127920   6.495   4.748   2.492  0.1864  0.1262  0.2636
 2143TIP3    H227921   6.351   4.762   2.535 -0.3868 -0.5957 -1.3169
 2144TIP3   OH227922   2.291   4.202  11.872  0.5017 -0.2543 -0.5808
 2144TIP3    H127923   2.252   4.173  11.790 -1.9096 -0.6472  0.6035
 2144TIP3    H227924   2.217   4.229  11.926  2.0916  1.1116  1.0676
 2145TIP3   OH227925   5.928   6.425  13.856  0.0441  0.5613 -0.1480
 2145TIP3    H127926   5.836   6.406  13.837  0.1512  1.3992 -1.7066
 2145TIP3    H227927   5.925   6.503  13.911 -0.1995 -0.3875  1.2363
 2146TIP3   OH227928   6.603   4.524  16.410 -0.3932 -0.2056 -0.2614
 2146TIP3    H127929   6.671   4.471  16.369 -1.9511 -0.6951 -2.4163
 2146TIP3    H227930   6.540   4.540  16.340 -2.2149  0.7051  1.4795
 2147TIP3   OH227931   6.158   5.124  11.615  0.0380 -0.1621  0.1782
 2147TIP3    H127932   6.173   5.066  11.690  0.1768  0.3874  0.5827
 2147TIP3    H227933   6.085   5.084  11.569  0.1282 -0.6585  0.4523
 2148TIP3   OH227934   4.710   0.070  14.216  0.0400 -0.2652 -0.2318
 2148TIP3    H127935   4.646   0.011  14.177 -0.6760 -0.3644  1.0488
 2148TIP3    H227936   4.721   0.140  14.151 -1.5869 -0.0949 -0.3678
 2149TIP3   OH227937   0.853   6.554  16.693 -0.1504 -0.1409  0.5982
 2149TIP3    H127938   0.822   6.627  16.640  0.5602  0.3578  0.8442
 2149TIP3    H227939   0.795   6.481  16.672  1.7522 -0.8620 -3.0799
 2150TIP3   OH227940   0.346   5.106   5.466  0.2626 -0.0523  0.4721
 2150TIP3    H127941   0.280   5.046   5.433  0.9532 -0.4871 -0.1452
 2150TIP3    H227942   0.399   5.052   5.526  0.8546 -0.0582 -0.0472
 2151TIP3   OH227943   4.723   0.052   5.949  0.1810 -0.5636  0.0142
 2151TIP3    H127944   4.668   0.045   5.870  0.8168 -1.4654 -0.3693
 2151TIP3    H227945   4.795   0.109   5.923 -1.1206  1.5521  0.8636
 2152TIP3   OH227946   5.447   6.779   1.123  0.0036 -0.1162 -0.0266
 2152TIP3    H127947   5.426   6.690   1.152 -0.5763 -1.5753 -4.2631
 2152TIP3    H227948   5.532   6.771   1.080 -0.6428  1.0232 -1.6172
 2153TIP3   OH227949   0.381   0.472  11.107  0.0006 -0.1469  0.3795
 2153TIP3    H127950   0.329   0.406  11.152  1.6864 -1.5679  0.3687
 2153TIP3    H227951   0.361   0.460  11.015  0.7887 -1.1340  0.3212
 2154TIP3   OH227952   3.747   4.145  16.479 -0.2914  0.0177 -0.2554
 2154TIP3    H127953   3.755   4.115  16.570 -0.0060  0.6967 -0.0498
 2154TIP3    H227954   3.714   4.235  16.486  0.0864  0.2051 -0.8066
 2155TIP3   OH227955   3.185   4.477   0.861  0.0718  0.3022  0.3250
 2155TIP3    H127956   3.119   4.474   0.792 -0.3589  1.0511  0.6822
 2155TIP3    H227957   3.264   4.442   0.821  0.2272  2.0131 -1.0006
 2156TIP3   OH227958   6.583   5.976  12.822  0.3571 -0.1100  0.0049
 2156TIP3    H127959   6.639   5.922  12.766  0.4299  1.8867 -1.9880
 2156TIP3    H227960   6.539   6.036  12.761 -0.1813  1.6473  2.0243
 2157TIP3   OH227961   5.803   4.939  15.229 -0.2532 -0.3655 -0.1247
 2157TIP3    H127962   5.778   4.996  15.156  2.9932  0.7930 -0.4970
 2157TIP3    H227963   5.812   4.997  15.304  4.2469  0.0992 -0.7715
 2158TIP3   OH227964   6.350   4.047   1.469 -0.0726  0.2866  0.1926
 2158TIP3    H127965   6.267   4.085   1.440  0.4005  0.5801 -0.8470
 2158TIP3    H227966   6.397   4.028   1.387  0.0603 -1.7628  0.6884
 2159TIP3   OH227967   1.372   5.505  15.143  0.7739  0.4538  0.7722
 2159TIP3    H127968   1.399   5.519  15.234 -1.0658  2.5860  1.0641
 2159TIP3    H227969   1.319   5.581  15.122 -0.3092 -0.8466 -1.5479
 2160TIP3   OH227970   6.635   6.757   5.423 -0.1129  0.0190  0.1843
 2160TIP3    H127971   6.543   6.785   5.422 -1.0596 -2.7223  1.3513
 2160TIP3    H227972   6.666   6.781   5.510  0.7592  2.1738 -0.6735
 2161TIP3   OH227973   2.088   5.606  14.179  0.3541  0.0038 -0.5488
 2161TIP3    H127974   2.087   5.674  14.112  3.2516  2.0200  1.2489
 2161TIP3    H227975   2.034   5.641  14.250  1.8285  0.5232  0.3691
 2162TIP3   OH227976   1.960   3.615   1.764 -0.1546  0.5036 -0.5975
 2162TIP3    H127977   1.950   3.578   1.852  0.4706  1.4253 -0.1322
 2162TIP3    H227978   1.871   3.631   1.735 -0.3561  0.4804 -0.0101
 2163TIP3   OH227979   2.391   0.871   5.469 -0.3219  0.1238 -0.2255
 2163TIP3    H127980   2.327   0.803   5.491  0.7741 -1.2897 -1.1557
 2163TIP3    H227981   2.375   0.889   5.376  0.3006  0.0792 -0.3498
 2164TIP3   OH227982   6.789   3.060   1.706 -0.1059 -0.0395  0.1373
 2164TIP3    H127983   6.814   3.147   1.738 -0.2600  0.1963 -0.3810
 2164TIP3    H227984   6.713   3.075   1.651  0.0910 -0.4563 -0.2562
 2165TIP3   OH227985   1.013   5.814  16.970 -0.0112  0.0507  0.0894
 2165TIP3    H127986   0.988   5.767  17.050  0.7291 -0.6109 -0.0485
 2165TIP3    H227987   1.107   5.831  16.981  0.3218 -0.9294 -1.0560
 2166TIP3   OH227988   5.023   5.893   6.360  0.0538 -0.4819  0.1925
 2166TIP3    H127989   5.107   5.886   6.405 -0.4980  1.6056  1.6898
 2166TIP3    H227990   4.958   5.868   6.426 -0.5590 -2.4927 -1.0679
 2167TIP3   OH227991   5.687   2.166   0.897 -0.1460  0.6395 -0.7153
 2167TIP3    H127992   5.705   2.087   0.847  0.6757  0.7195 -0.5547
 2167TIP3    H227993   5.768   2.183   0.946 -1.3433 -0.2318  1.7455
 2168TIP3   OH227994   0.974   2.936   0.517  0.0475  0.6432  0.4385
 2168TIP3    H127995   1.037   2.896   0.577  0.6712 -0.5364 -0.9433
 2168TIP3    H227996   0.917   2.988   0.573  1.6894  1.0121  1.8439
 2169TIP3   OH227997   3.764   5.037   3.125  0.2003  0.1479  0.3255
 2169TIP3    H127998   3.737   5.066   3.037  0.4870 -0.9407 -0.1429
 2169TIP3    H227999   3.708   4.961   3.143 -0.2622  0.7164  1.3421
 2170TIP3   OH228000   0.643   2.179  16.544 -0.0816  0.0463  0.3571
 2170TIP3    H128001   0.592   2.239  16.490  0.5254  0.1243 -0.1467
 2170TIP3    H228002   0.720   2.158  16.490  0.4527 -0.0097  1.1199
 2171TIP3   OH228003   1.978   1.055  14.601 -0.4346 -0.4200  0.3604
 2171TIP3    H128004   2.010   1.128  14.654  1.0387 -0.2763 -0.6477
 2171TIP3    H228005   1.948   0.990  14.665 -1.8338  1.0533  1.2668
 2172TIP3   OH228006   3.976   5.582   2.449 -0.0888  0.0371 -0.0224
 2172TIP3    H128007   3.914   5.653   2.463  0.9429  0.7490  1.0549
 2172TIP3    H228008   3.988   5.579   2.354 -0.9917  0.5390 -0.1632
 2173TIP3   OH228009   5.779   0.546   1.136  0.6387  0.4235 -0.1532
 2173TIP3    H128010   5.796   0.481   1.203 -2.4176 -0.2989  0.0764
 2173TIP3    H228011   5.791   0.500   1.053  3.0067  0.9264 -0.1510
 2174TIP3   OH228012   1.627   1.197   1.502  0.7106 -0.1191 -0.4779
 2174TIP3    H128013   1.641   1.266   1.437 -2.8231  1.6874  0.4172
 2174TIP3    H228014   1.616   1.117   1.450  1.5803  0.5828 -1.7947
 2175TIP3   OH228015   4.307   3.677  16.498  0.0528 -0.0328 -0.2569
 2175TIP3    H128016   4.397   3.710  16.496 -0.4267  1.6880  2.2125
 2175TIP3    H228017   4.309   3.605  16.560 -0.4428  0.7573  0.7080
 2176TIP3   OH228018   1.159   5.229   0.699 -0.0738  0.2063  0.2459
 2176TIP3    H128019   1.120   5.310   0.733 -1.1103 -0.4608  0.6683
 2176TIP3    H228020   1.233   5.211   0.758 -1.0638 -0.2330  1.3962
 2177TIP3   OH228021   2.093   0.180  12.497  0.0615 -0.0737  0.2016
 2177TIP3    H128022   2.006   0.218  12.506 -0.0366 -0.3528  0.4700
 2177TIP3    H228023   2.123   0.207  12.410 -0.4596 -0.3081 -0.0557
 2178TIP3   OH228024   2.422   0.076  17.023  0.4299 -0.1526 -0.3198
 2178TIP3    H128025   2.334   0.110  17.007 -0.1517 -1.6984 -0.5374
 2178TIP3    H228026   2.412   0.018  17.099  0.2196 -3.9313 -2.9796
 2179TIP3   OH228027   1.247   3.477   4.255  0.3873  0.6913 -0.2646
 2179TIP3    H128028   1.341   3.472   4.275  0.0287 -0.7999  1.3034
 2179TIP3    H228029   1.210   3.531   4.324 -0.0947  0.1455 -0.0857
 2180TIP3   OH228030   1.432   5.773   1.193  0.1294 -0.3186 -0.7244
 2180TIP3    H128031   1.354   5.717   1.195  1.3042 -2.0007  0.8482
 2180TIP3    H228032   1.418   5.836   1.264 -0.2844  0.1217 -1.1865
 2181TIP3   OH228033   6.826   0.155   5.714 -0.6556 -0.0695  0.0433
 2181TIP3    H128034   6.772   0.166   5.792  0.0780 -0.5377  0.6380
 2181TIP3    H228035   6.791   0.077   5.671 -1.0169  0.1506 -0.0706
 2182TIP3   OH228036   4.720   6.439   1.201  0.4132  0.1279 -0.9377
 2182TIP3    H128037   4.811   6.466   1.193  0.3923  0.4103 -0.3062
 2182TIP3    H228038   4.685   6.445   1.112  0.6347  1.4171 -0.9594
 2183TIP3   OH228039   4.422   3.428   2.076 -0.0648 -0.2457  0.0845
 2183TIP3    H128040   4.502   3.426   2.129 -0.1446  0.5043  0.2471
 2183TIP3    H228041   4.386   3.516   2.090 -0.9832 -0.6112  0.1032
 2184TIP3   OH228042   0.478   6.543  11.315 -0.2393 -0.4331  0.3353
 2184TIP3    H128043   0.481   6.447  11.311  0.2075 -0.3974 -0.5975
 2184TIP3    H228044   0.566   6.568  11.342 -0.3395 -0.2831  0.5213
 2185TIP3   OH228045   4.763   5.767   2.274 -0.3462 -0.0360  0.3325
 2185TIP3    H128046   4.781   5.786   2.366 -2.8132  1.7900  0.5399
 2185TIP3    H228047   4.814   5.832   2.226 -1.1750  0.8307  0.5884
 2186TIP3   OH228048   3.231   2.925  13.120  0.1628 -0.1837  0.4568
 2186TIP3    H128049   3.307   2.874  13.092 -0.2679 -0.2209 -0.6628
 2186TIP3    H228050   3.198   2.967  13.041 -1.5444 -0.9046  0.7363
 2187TIP3   OH228051   6.401   1.074  15.522  0.1980  0.3582  0.1480
 2187TIP3    H128052   6.335   1.109  15.462 -0.2814  2.9729  2.0530
 2187TIP3    H228053   6.352   1.020  15.584  0.3806 -0.4437 -0.3793
 2188TIP3   OH228054   2.780   1.216   6.223  0.2198 -0.0663 -0.1783
 2188TIP3    H128055   2.763   1.136   6.173  1.3182 -0.4045 -0.0349
 2188TIP3    H228056   2.824   1.186   6.302  1.4094  0.7303 -0.5000
 2189TIP3   OH228057   6.512   5.285   4.020  0.3615  0.7082  0.3286
 2189TIP3    H128058   6.567   5.312   3.947  0.5913 -1.2833 -0.2977
 2189TIP3    H228059   6.569   5.232   4.075 -0.3964  0.3295  0.7671
 2190TIP3   OH228060   6.651   0.661   5.664  0.4184 -0.1569 -0.1441
 2190TIP3    H128061   6.585   0.622   5.722  1.1233 -0.8296  0.2223
 2190TIP3    H228062   6.715   0.591   5.651  1.0503  0.4830 -0.5152
 2191TIP3   OH228063   2.483   1.498  13.820 -0.1836  0.0048 -0.0471
 2191TIP3    H128064   2.481   1.574  13.762  1.4134 -0.5351 -0.8906
 2191TIP3    H228065   2.405   1.448  13.796  0.3128 -0.0771 -1.6151
 2192TIP3   OH228066   2.399   1.648   1.935  0.1620  0.8290  0.0199
 2192TIP3    H128067   2.342   1.675   1.863 -0.1461  0.1347  0.0011
 2192TIP3    H228068   2.444   1.729   1.961  0.2526  1.0922 -0.9219
 2193TIP3   OH228069   2.268   3.546   6.284  0.9077 -0.4208 -0.5117
 2193TIP3    H128070   2.186   3.521   6.327  0.9326  2.4119  1.4057
 2193TIP3    H228071   2.241   3.592   6.205  0.4539  2.2764  1.1064
 2194TIP3   OH228072   5.860   2.433  16.462 -0.1575 -0.1184 -0.3125
 2194TIP3    H128073   5.781   2.484  16.475  0.8745  1.4444  0.1830
 2194TIP3    H228074   5.892   2.461  16.376  0.9541  0.8697  0.3992
 2195TIP3   OH228075   1.810   1.485  11.470  0.3326  0.1484  0.5751
 2195TIP3    H128076   1.800   1.510  11.562  1.2171  1.0499  0.4410
 2195TIP3    H228077   1.886   1.534  11.439 -0.4575  0.5421 -0.8741
 2196TIP3   OH228078   6.473   5.704   3.134  0.7634  0.5204  0.1817
 2196TIP3    H128079   6.464   5.741   3.222  3.4709 -0.4646  0.9623
 2196TIP3    H228080   6.541   5.757   3.092 -1.6153  2.0535 -2.0459
 2197TIP3   OH228081   2.510   3.945  15.105 -0.3023 -0.2574 -0.0975
 2197TIP3    H128082   2.468   3.866  15.138  1.1487 -1.5741 -1.2677
 2197TIP3    H228083   2.461   3.966  15.025 -0.2433 -0.3872 -0.1679
 2198TIP3   OH228084   2.920   4.967   1.214 -0.1342 -0.0689  0.4503
 2198TIP3    H128085   3.003   4.933   1.182 -0.3591  1.0968 -1.5618
 2198TIP3    H228086   2.856   4.900   1.189 -0.1013  0.1279 -0.1782
 2199TIP3   OH228087   5.818   0.477  11.679  0.0137 -0.0279  0.3070
 2199TIP3    H128088   5.846   0.567  11.666  0.6806 -0.3390 -0.5075
 2199TIP3    H228089   5.734   0.484  11.724  0.1517  0.9883  0.4252
 2200TIP3   OH228090   3.194   6.477   0.388  0.3053  0.1224 -0.1670
 2200TIP3    H128091   3.225   6.388   0.407 -0.3174  0.4034  2.5507
 2200TIP3    H228092   3.196   6.483   0.293  1.7527 -2.2946 -0.3680
 2201TIP3   OH228093   6.520   2.172  14.896 -0.0846  0.1539  0.0252
 2201TIP3    H128094   6.451   2.239  14.899  0.5372  0.8044  0.1550
 2201TIP3    H228095   6.473   2.089  14.905 -1.3360  0.2460 -3.7199
 2202TIP3   OH228096   4.987   3.123   4.336  0.5800 -0.1191 -0.0790
 2202TIP3    H128097   4.894   3.115   4.357  0.4030  1.2492 -0.2376
 2202TIP3    H228098   5.030   3.131   4.421  0.6156 -1.1694  0.0144
 2203TIP3   OH228099   5.968   6.622   4.250  0.1945 -0.0477 -0.4123
 2203TIP3    H128100   5.932   6.534   4.243  0.5434 -0.2615  0.3836
 2203TIP3    H228101   6.025   6.631   4.173 -0.6742 -0.1128 -1.0734
 2204TIP3   OH228102   4.496   1.610  15.578  0.1322  0.5804  0.5787
 2204TIP3    H128103   4.406   1.629  15.602  0.3144  0.7626  1.1410
 2204TIP3    H228104   4.502   1.514  15.582 -0.3245  0.4955 -0.5475
 2205TIP3   OH228105   2.599   5.924  16.025  0.1537 -0.6506 -0.1458
 2205TIP3    H128106   2.530   5.990  16.031 -1.5345 -2.2265 -1.1649
 2205TIP3    H228107   2.628   5.928  15.934 -1.3341 -2.5444 -0.7652
 2206TIP3   OH228108   4.557   2.333  16.400  0.2070  0.0855 -0.3897
 2206TIP3    H128109   4.541   2.391  16.325  0.3139  0.3623 -0.2013
 2206TIP3    H228110   4.626   2.273  16.370 -0.9292 -0.9026 -1.0864
 2207TIP3   OH228111   6.411   0.526  12.431 -0.2527 -0.1025 -0.6166
 2207TIP3    H128112   6.481   0.537  12.366 -0.0176  0.8337 -0.2248
 2207TIP3    H228113   6.452   0.477  12.502 -0.5255 -1.1761 -1.1830
 2208TIP3   OH228114   2.697   1.410  17.031 -0.1636  0.7288  1.0997
 2208TIP3    H128115   2.731   1.329  16.994 -3.1629 -0.9525  1.6969
 2208TIP3    H228116   2.772   1.449  17.076  1.2531 -2.0384  1.3384
 2209TIP3   OH228117   4.197   5.557   5.967 -0.1483 -0.4395  0.1425
 2209TIP3    H128118   4.254   5.482   5.985 -0.1510 -0.0025  2.1885
 2209TIP3    H228119   4.117   5.538   6.016 -0.0928  0.9689  0.8162
 2210TIP3   OH228120   4.566   6.851  12.850  0.7136 -0.5232  0.0235
 2210TIP3    H128121   4.581   6.758  12.838 -0.3793 -0.7999  0.6826
 2210TIP3    H228122   4.472   6.862  12.840  0.8338  0.5296 -0.1283
 2211TIP3   OH228123   1.912   3.978   3.942  0.1552 -0.4173  0.1135
 2211TIP3    H128124   1.937   4.001   3.853 -0.1937 -0.6930 -0.0589
 2211TIP3    H228125   1.885   3.887   3.936 -0.6916 -0.1874  0.3265
 2212TIP3   OH228126   5.368   1.792   5.913  0.2313 -0.1150 -0.4607
 2212TIP3    H128127   5.362   1.697   5.920 -0.9042  0.0521  1.8319
 2212TIP3    H228128   5.330   1.812   5.827  0.4808 -1.7009 -0.9698
 2213TIP3   OH228129   0.058   0.542  13.777  0.4282 -0.9896  0.7818
 2213TIP3    H128130  -0.022   0.517  13.823  0.1870  1.5502  1.9202
 2213TIP3    H228131   0.110   0.587  13.843  0.9683  1.0004 -0.8769
 2214TIP3   OH228132   0.236   0.963   3.305 -0.0712 -0.4605 -0.1569
 2214TIP3    H128133   0.330   0.955   3.325  0.2099  0.7147 -0.8928
 2214TIP3    H228134   0.220   0.897   3.238  0.1549 -0.8969  0.2151
 2215TIP3   OH228135   5.029   3.459  14.485  0.1792  0.3997  0.2162
 2215TIP3    H128136   5.017   3.455  14.580  0.2319 -2.6391  0.1882
 2215TIP3    H228137   4.950   3.419  14.450  1.3371 -1.0088 -0.8699
 2216TIP3   OH228138   2.698   5.842  15.161 -0.7590 -0.3636 -0.5208
 2216TIP3    H128139   2.676   5.778  15.229 -0.7912 -0.3290 -0.4985
 2216TIP3    H228140   2.660   5.806  15.081 -0.4415 -0.5682 -0.5814
 2217TIP3   OH228141   5.783   6.014  16.334  0.6416  0.0040 -0.0688
 2217TIP3    H128142   5.770   6.105  16.361 -0.9347 -0.2188  0.0283
 2217TIP3    H228143   5.735   5.962  16.398 -1.8084 -0.6376 -2.2391
 2218TIP3   OH228144   1.929   1.769  14.210 -0.2235 -0.3069  0.1349
 2218TIP3    H128145   1.966   1.716  14.281 -1.7355  1.0394  2.0536
 2218TIP3    H228146   1.963   1.857  14.225  0.3378 -0.2104 -1.5462
 2219TIP3   OH228147   0.086   4.865   2.630  0.0364 -0.6426 -0.5943
 2219TIP3    H128148   0.154   4.929   2.656 -0.0391 -1.3098  1.4299
 2219TIP3    H228149   0.111   4.785   2.675 -3.1609 -0.3869  1.9782
 2220TIP3   OH228150   4.968   6.486   4.682  0.1012 -0.7493 -0.0216
 2220TIP3    H128151   4.973   6.396   4.648 -1.7812 -0.7969 -0.3078
 2220TIP3    H228152   5.055   6.523   4.665  0.2748 -1.8509 -1.8508
 2221TIP3   OH228153   6.753   2.828  12.775  0.5710 -0.3482  0.1886
 2221TIP3    H128154   6.793   2.762  12.719  0.6839 -1.3919  1.4566
 2221TIP3    H228155   6.722   2.780  12.852 -0.5765  0.8728  0.5328
 2222TIP3   OH228156   5.847   1.945   5.483 -0.1753 -0.4663 -0.1824
 2222TIP3    H128157   5.872   2.029   5.523  0.4971 -1.1966  1.0123
 2222TIP3    H228158   5.753   1.937   5.500 -0.9732  1.3915 -2.9718
 2223TIP3   OH228159   3.321   3.008   3.347 -0.1095  0.0503 -0.1097
 2223TIP3    H128160   3.284   2.944   3.286  0.9990 -0.2471 -0.5065
 2223TIP3    H228161   3.263   3.006   3.422 -1.1927  0.0060 -0.9161
 2224TIP3   OH228162   4.019   0.703   5.359  0.4117 -0.1266 -0.3174
 2224TIP3    H128163   3.950   0.716   5.424  0.1324 -0.1944 -0.5950
 2224TIP3    H228164   4.097   0.682   5.410 -0.1469 -1.7178 -0.0577
 2225TIP3   OH228165   3.199   1.257   1.610 -0.7176  0.1083 -0.2221
 2225TIP3    H128166   3.181   1.180   1.557  0.8534 -0.0077 -0.6565
 2225TIP3    H228167   3.114   1.286   1.642 -1.3238 -1.9085  0.1121
 2226TIP3   OH228168   2.586   5.658  15.345  0.0681  0.3289  0.4169
 2226TIP3    H128169   2.598   5.574  15.390 -0.2711  0.8357  1.4960
 2226TIP3    H228170   2.491   5.669  15.340 -0.0092 -0.7740 -2.5308
 2227TIP3   OH228171   3.935   2.240   2.418  0.1266 -0.0592  0.7063
 2227TIP3    H128172   3.972   2.220   2.332  0.9181  1.4796  0.6738
 2227TIP3    H228173   3.949   2.160   2.469 -0.7336 -1.1530 -0.6876
 2228TIP3   OH228174   2.480   2.408  16.784 -0.0557 -0.3453 -0.2794
 2228TIP3    H128175   2.446   2.419  16.873  1.1457 -0.4192  0.2016
 2228TIP3    H228176   2.442   2.481  16.735 -1.3627 -0.7531  0.0829
 2229TIP3   OH228177   1.376   0.953   5.404  0.7922  0.7160 -0.1787
 2229TIP3    H128178   1.300   1.010   5.395  0.2206  0.1532  0.9402
 2229TIP3    H228179   1.352   0.873   5.357  0.4044  0.2811  0.7326
 2230TIP3   OH228180   4.753   3.679  14.851  0.7406 -0.1476  0.0085
 2230TIP3    H128181   4.694   3.604  14.859 -0.8225  1.1353  1.3816
 2230TIP3    H228182   4.832   3.653  14.898 -0.1519 -0.6130  1.3014
 2231TIP3   OH228183   3.844   0.743   2.216  0.0610  0.7114  0.6884
 2231TIP3    H128184   3.778   0.806   2.185  0.4235  0.2831 -1.0932
 2231TIP3    H228185   3.927   0.788   2.206  0.5024 -0.5226 -2.2634
 2232TIP3   OH228186   0.983   3.984   4.408 -0.1682 -0.4805  0.6907
 2232TIP3    H128187   0.899   3.976   4.363  0.1038 -1.1569  0.2932
 2232TIP3    H228188   1.033   4.045   4.354 -0.0796 -0.7757  0.4413
 2233TIP3   OH228189   1.537   0.652  16.995  0.1891  0.0366  0.7396
 2233TIP3    H128190   1.533   0.652  16.899 -3.8859  2.6709  0.6565
 2233TIP3    H228191   1.565   0.564  17.018 -1.5728 -1.7039 -2.9383
 2234TIP3   OH228192   1.708   0.558   3.563 -0.3636  0.6192  0.3653
 2234TIP3    H128193   1.797   0.584   3.589  1.2062 -1.0196 -2.6931
 2234TIP3    H228194   1.667   0.639   3.534  1.1356  1.1091 -0.5320
 2235TIP3   OH228195   5.335   5.645   3.545 -0.5498 -0.4109  0.2204
 2235TIP3    H128196   5.354   5.572   3.487 -0.2220 -0.6148  0.5846
 2235TIP3    H228197   5.337   5.722   3.488 -0.5747 -0.6454 -0.1011
 2236TIP3   OH228198   5.089   5.044  12.514  0.3553 -0.0635  0.2777
 2236TIP3    H128199   5.054   5.132  12.505  0.9402  0.0414 -1.3807
 2236TIP3    H228200   5.013   4.986  12.508  0.1455  0.2753 -0.4994
 2237TIP3   OH228201   5.723   0.587  12.313 -0.1209 -0.4237 -0.4633
 2237TIP3    H128202   5.784   0.656  12.339 -0.2825  0.3616 -2.0311
 2237TIP3    H228203   5.650   0.634  12.271 -1.2139 -1.4278  0.2493
 2238TIP3   OH228204   3.100   5.819  12.906 -0.1214 -0.7363 -0.8377
 2238TIP3    H128205   3.071   5.910  12.902  0.1659 -0.6424 -0.8318
 2238TIP3    H228206   3.132   5.808  12.996 -0.1559 -0.8448 -0.8382
 2239TIP3   OH228207   1.132   3.091  16.868 -0.0553 -0.2707  0.0438
 2239TIP3    H128208   1.188   3.040  16.927 -0.2047 -1.2601 -0.6600
 2239TIP3    H228209   1.051   3.104  16.917  0.1452 -0.3187  0.3928
 2240TIP3   OH228210   5.672   1.311   4.406 -0.0606  0.3241 -0.1109
 2240TIP3    H128211   5.633   1.283   4.489  0.6103 -0.5381 -0.0680
 2240TIP3    H228212   5.655   1.238   4.346 -0.1466  0.7480 -0.6134
 2241TIP3   OH228213   6.469   3.858   2.208 -0.1757 -0.1071 -0.4963
 2241TIP3    H128214   6.501   3.867   2.298  0.6061  1.3187 -0.8876
 2241TIP3    H228215   6.486   3.767   2.185  1.5409  0.0381  0.0934
 2242TIP3   OH228216   2.472   5.752   5.766  0.0260 -0.0387 -0.0225
 2242TIP3    H128217   2.377   5.764   5.764  0.2294  1.7967 -1.5969
 2242TIP3    H228218   2.486   5.669   5.721 -0.9060 -1.8319  2.6754
 2243TIP3   OH228219   4.429   4.260  16.162  0.4934  0.4053 -0.4030
 2243TIP3    H128220   4.396   4.350  16.161  0.5933  0.4694 -2.7158
 2243TIP3    H228221   4.521   4.268  16.138 -0.0399 -0.4426 -2.9683
 2244TIP3   OH228222   5.795   2.931   0.104 -0.3719 -0.3545  0.0713
 2244TIP3    H128223   5.735   2.916   0.031  0.6858 -2.0390 -0.5250
 2244TIP3    H228224   5.861   2.991   0.068 -2.5387  3.0208  1.2807
 2245TIP3   OH228225   2.379   5.108  13.499 -0.0549  0.1372  0.4239
 2245TIP3    H128226   2.436   5.118  13.576  0.3390  0.7324  0.0603
 2245TIP3    H228227   2.403   5.022  13.463 -0.1479 -0.0855  0.8849
 2246TIP3   OH228228   0.632   0.056  12.023 -0.1311  1.0225  0.6501
 2246TIP3    H128229   0.625   0.038  11.930 -3.3913 -1.4425  1.1492
 2246TIP3    H228230   0.715   0.017  12.049 -1.1714 -2.4913 -0.6313
 2247TIP3   OH228231   0.047   0.214   3.930  0.2287  0.5624 -0.0011
 2247TIP3    H128232   0.017   0.235   3.841 -0.5144  0.6688  0.2660
 2247TIP3    H228233  -0.026   0.240   3.986  0.3625 -0.2799  0.5742
 2248TIP3   OH228234   1.837   2.286   3.351 -0.2007  0.1586 -0.4478
 2248TIP3    H128235   1.842   2.191   3.361 -0.0016  0.2801  0.8050
 2248TIP3    H228236   1.782   2.300   3.274  0.4038 -0.9770 -1.1059
 2249TIP3   OH228237   0.792   0.710  14.706 -0.1905 -0.4158 -0.0836
 2249TIP3    H128238   0.792   0.763  14.626  0.4866  0.0127  0.1890
 2249TIP3    H228239   0.701   0.708  14.735 -0.5289 -0.9934 -1.1370
 2250TIP3   OH228240   4.282   2.537  13.745  0.4665  0.4514  0.0627
 2250TIP3    H128241   4.232   2.485  13.807  1.5814 -0.0489  0.5788
 2250TIP3    H228242   4.274   2.627  13.776 -1.8678  0.7189 -1.1056
 2251TIP3   OH228243   6.303   3.559   1.859 -0.2454 -0.3948 -0.2249
 2251TIP3    H128244   6.321   3.492   1.926  0.2741 -0.2379 -0.2046
 2251TIP3    H228245   6.244   3.621   1.903 -0.4722 -0.6672 -0.1411
 2252TIP3   OH228246   0.839   1.107   1.958 -0.0900 -0.2173  0.2744
 2252TIP3    H128247   0.931   1.092   1.938 -0.3496  0.4220 -1.5445
 2252TIP3    H228248   0.828   1.202   1.947 -0.4896  0.0886  2.7082
 2253TIP3   OH228249   0.940   1.304  12.912  0.7749  0.3968 -0.3951
 2253TIP3    H128250   0.867   1.242  12.921  1.0339  0.2682  1.0446
 2253TIP3    H228251   0.996   1.265  12.845 -0.5577  0.6025 -1.6916
 2254TIP3   OH228252   2.691   1.378   0.499  0.1958  0.3317  0.5788
 2254TIP3    H128253   2.715   1.327   0.422  0.0086  0.1279  0.6508
 2254TIP3    H228254   2.680   1.467   0.467 -1.8451 -0.0849 -0.0571
 2255TIP3   OH228255   4.421   3.382  16.347  0.4005  0.4879 -0.0240
 2255TIP3    H128256   4.443   3.405  16.437 -0.3660  0.2100  0.2432
 2255TIP3    H228257   4.441   3.289  16.340  0.9756  0.6326 -0.3041
 2256TIP3   OH228258   6.114   2.651  15.584  0.6793  0.1072  0.5000
 2256TIP3    H128259   6.151   2.580  15.635  2.3551  0.2524 -0.4413
 2256TIP3    H228260   6.092   2.719  15.648 -1.3992 -1.3841  1.4619
 2257TIP3   OH228261   5.326   0.424   1.243 -0.0769 -0.5299  0.4502
 2257TIP3    H128262   5.370   0.424   1.328  0.4365  0.1761  0.1955
 2257TIP3    H228263   5.325   0.516   1.216  0.9179 -0.8716 -0.8850
 2258TIP3   OH228264   3.993   3.191   4.182  0.2378  0.2261  0.0969
 2258TIP3    H128265   3.917   3.163   4.232  1.1764  0.2511  1.6069
 2258TIP3    H228266   4.068   3.174   4.240  1.3736  0.3324 -1.2732
 2259TIP3   OH228267   3.514   5.640   3.584 -0.5850 -0.5236 -0.1194
 2259TIP3    H128268   3.563   5.671   3.507  1.2025 -0.4287  0.9988
 2259TIP3    H228269   3.426   5.676   3.572 -0.4626 -0.8407 -2.2994
 2260TIP3   OH228270   5.730   3.830  15.168 -0.1207  0.1923 -0.2990
 2260TIP3    H128271   5.808   3.837  15.114 -1.0257  2.1606 -1.4754
 2260TIP3    H228272   5.658   3.820  15.105 -1.2573  2.9232  0.4080
 2261TIP3   OH228273   3.039   6.510  11.065  0.2280  0.2207 -0.5036
 2261TIP3    H128274   3.097   6.469  11.000  1.0320  0.5291  0.0029
 2261TIP3    H228275   3.087   6.588  11.093  0.9248 -1.0066  2.0426
 2262TIP3   OH228276   2.603   4.077   3.858  0.2647  0.2414 -0.3141
 2262TIP3    H128277   2.513   4.062   3.888  0.2029  1.8367  0.3716
 2262TIP3    H228278   2.606   4.170   3.835  2.1983  0.6780  1.4135
 2263TIP3   OH228279   2.273   1.051   5.767  0.5204 -0.3730  0.2371
 2263TIP3    H128280   2.258   1.105   5.845 -0.5902  0.0230 -0.2238
 2263TIP3    H228281   2.349   1.090   5.725 -0.7413  1.3893 -0.5227
 2264TIP3   OH228282   2.289   3.078  11.929  0.3869 -0.5044  0.1468
 2264TIP3    H128283   2.330   2.992  11.916 -1.4007 -1.1191 -2.1737
 2264TIP3    H228284   2.341   3.137  11.873 -0.3434 -0.7874 -0.8603
 2265TIP3   OH228285   0.811   1.303   3.842 -0.6580 -0.7699 -0.1109
 2265TIP3    H128286   0.796   1.210   3.861  0.5790 -1.5688 -2.6274
 2265TIP3    H228287   0.900   1.320   3.874 -0.3888 -0.8236 -0.8189
 2266TIP3   OH228288   3.128   6.413  17.031 -0.1365 -0.0792  0.1174
 2266TIP3    H128289   3.136   6.322  17.005  2.8614  0.1388 -0.0959
 2266TIP3    H228290   3.181   6.420  17.111  0.7634  1.6872 -0.5695
 2267TIP3   OH228291   0.826   0.435   4.460  0.0555  0.0960 -0.2462
 2267TIP3    H128292   0.827   0.526   4.490 -1.9504  0.3789 -0.8318
 2267TIP3    H228293   0.896   0.430   4.395  0.8155  0.9489  0.4829
 2268TIP3   OH228294   2.767   2.452   1.725  0.2598  0.3238 -0.1119
 2268TIP3    H128295   2.852   2.428   1.688 -0.1631 -0.3571 -0.6694
 2268TIP3    H228296   2.721   2.495   1.653  0.2573  1.0275  0.2966
 2269TIP3   OH228297   3.709   1.497  15.318 -0.5552  0.0413  0.0312
 2269TIP3    H128298   3.655   1.510  15.240 -0.2357  2.3783  0.1346
 2269TIP3    H228299   3.791   1.460  15.285 -1.0363 -0.5677 -0.5059
 2270TIP3   OH228300   2.919   3.214  15.071 -0.6059 -0.3200  0.3083
 2270TIP3    H128301   2.998   3.171  15.103 -1.2697 -0.9291  1.1658
 2270TIP3    H228302   2.885   3.262  15.146 -2.1511 -1.7078  0.5429
 2271TIP3   OH228303   3.455   6.704   5.983  0.3434  0.2354 -0.0055
 2271TIP3    H128304   3.389   6.700   6.052  1.0639  0.2478  0.7025
 2271TIP3    H228305   3.536   6.727   6.029  0.2145  3.7767 -1.2375
 2272TIP3   OH228306   1.419   5.929   5.635  0.3364  0.5375 -0.3363
 2272TIP3    H128307   1.431   5.870   5.710 -0.7909  0.1242 -0.4692
 2272TIP3    H228308   1.325   5.926   5.617  0.5689  0.7827 -1.6482
 2273TIP3   OH228309   4.508   1.720   5.232 -0.3947 -0.7643 -0.3988
 2273TIP3    H128310   4.414   1.711   5.244 -0.9423  3.0762 -0.4577
 2273TIP3    H228311   4.545   1.710   5.320 -0.8523 -1.8122 -0.3070
 2274TIP3   OH228312   3.980   4.296  13.550  0.0160  0.3671 -0.0191
 2274TIP3    H128313   4.007   4.267  13.637 -2.8250 -2.1874  0.1858
 2274TIP3    H228314   4.029   4.377  13.535  1.7203  0.1064  3.2935
 2275TIP3   OH228315   6.416   6.739  15.353 -0.4445 -0.4017 -0.3387
 2275TIP3    H128316   6.332   6.772  15.386  1.0302  0.2810  3.0984
 2275TIP3    H228317   6.431   6.789  15.273 -1.1596  3.0405  1.4868
 2276TIP3   OH228318   5.754   2.290  16.179  1.5217 -0.9292  0.1909
 2276TIP3    H128319   5.803   2.372  16.177 -0.2460  0.1928  0.6460
 2276TIP3    H228320   5.821   2.222  16.181  3.0669  0.3803 -2.3025
 2277TIP3   OH228321   5.253   5.107   3.254 -0.3513 -0.5850 -0.0364
 2277TIP3    H128322   5.212   5.167   3.316 -1.3714 -0.2433 -1.0179
 2277TIP3    H228323   5.305   5.048   3.309  0.5781  1.0808  0.9735
 2278TIP3   OH228324   2.816   4.366  16.347 -0.8858 -0.3540 -0.1938
 2278TIP3    H128325   2.848   4.329  16.429  0.3087  0.3587 -0.3168
 2278TIP3    H228326   2.799   4.458  16.366 -0.2960 -0.1076 -0.8088
 2279TIP3   OH228327   3.855   2.892   1.374 -0.1838 -0.2431 -0.2468
 2279TIP3    H128328   3.814   2.871   1.458 -0.4101 -2.8823 -0.9266
 2279TIP3    H228329   3.882   2.807   1.339  2.3670  1.0242 -1.6294
 2280TIP3   OH228330   4.028   2.686   0.218  0.3921 -0.2628  0.0269
 2280TIP3    H128331   3.971   2.755   0.184  1.2193  0.5051  0.1454
 2280TIP3    H228332   4.113   2.704   0.177  0.4643 -1.6000 -0.4354
 2281TIP3   OH228333   2.641   4.669  13.005 -0.1363 -0.5165  0.0992
 2281TIP3    H128334   2.724   4.716  13.011 -0.1186 -0.5847  0.3994
 2281TIP3    H228335   2.659   4.583  13.043  0.0887 -1.1198 -1.3253
 2282TIP3   OH228336   0.256   4.585   1.439 -0.2924  0.2075 -0.6576
 2282TIP3    H128337   0.344   4.622   1.447  0.4418 -1.2989 -1.3176
 2282TIP3    H228338   0.217   4.594   1.526  0.8816  0.0071 -0.1012
 2283TIP3   OH228339   6.753   1.762  12.266  0.0846  0.0491 -0.0607
 2283TIP3    H128340   6.720   1.804  12.346 -0.0785 -0.3252  0.0673
 2283TIP3    H228341   6.843   1.737  12.287  0.0596 -0.0004 -0.0137
 2284TIP3   OH228342   4.036   5.792   6.170 -0.5774 -0.2516  0.3501
 2284TIP3    H128343   4.004   5.703   6.183  0.4607 -0.8529 -0.9973
 2284TIP3    H228344   3.957   5.844   6.154 -1.2617 -0.7416  1.9953
 2285TIP3   OH228345   3.394   1.201   4.371 -0.2177  0.6710  0.2178
 2285TIP3    H128346   3.373   1.270   4.308  0.0992 -0.3643 -1.0484
 2285TIP3    H228347   3.489   1.205   4.381  0.0439 -0.7712 -1.3167
 2286TIP3   OH228348   1.233   6.126  15.181 -0.2872 -0.3073  0.1614
 2286TIP3    H128349   1.140   6.146  15.196 -0.4458  1.4718 -2.5256
 2286TIP3    H228350   1.276   6.211  15.182  1.0333 -0.9475 -0.3216
 2287TIP3   OH228351   1.492   4.078   1.675  0.3815 -0.3430  0.2904
 2287TIP3    H128352   1.473   3.984   1.675 -1.1003 -0.0794  1.1630
 2287TIP3    H228353   1.437   4.114   1.606 -0.2998  0.0739  1.0260
 2288TIP3   OH228354   1.091   2.414  17.108 -0.0545 -0.4429 -0.2927
 2288TIP3    H128355   1.178   2.373  17.105  0.0172 -0.3303  0.1386
 2288TIP3    H228356   1.042   2.362  17.172 -0.3005 -0.4971 -0.5270
 2289TIP3   OH228357   1.653   1.958  17.088  0.1658  0.2301  0.4164
 2289TIP3    H128358   1.580   1.923  17.038 -0.5974  0.9141  1.0049
 2289TIP3    H228359   1.664   1.897  17.161 -0.2812  0.4779  0.7010
 2290TIP3   OH228360   6.454   3.052  15.659 -0.0624 -0.2346  1.0757
 2290TIP3    H128361   6.366   3.090  15.669  0.4175  0.9512  0.9046
 2290TIP3    H228362   6.437   2.960  15.636 -1.2614  0.0182  0.8624
 2291TIP3   OH228363   6.516   3.493  15.785 -0.8693  0.2268 -0.3267
 2291TIP3    H128364   6.510   3.457  15.697  1.8037  0.9346 -0.8793
 2291TIP3    H228365   6.547   3.421  15.839 -2.3764 -0.1687  0.0687
 2292TIP3   OH228366   1.114   6.231   3.466  0.5727  0.1566 -0.1562
 2292TIP3    H128367   1.080   6.186   3.543  2.7450  0.9319  1.3338
 2292TIP3    H228368   1.209   6.225   3.473  0.8638  0.5917 -2.6016
 2293TIP3   OH228369   2.837   5.236   1.989  0.5245  0.1212  0.5364
 2293TIP3    H128370   2.881   5.308   2.033 -1.0019  1.3589  0.1457
 2293TIP3    H228371   2.823   5.267   1.899 -0.5581 -0.4568  0.4863
 2294TIP3   OH228372   5.351   4.168  13.490 -0.5337 -0.3840 -1.0205
 2294TIP3    H128373   5.343   4.092  13.547 -1.6275  0.4860  0.0558
 2294TIP3    H228374   5.391   4.135  13.410  0.6072 -1.7335  0.0732
 2295TIP3   OH228375   2.128   1.306   6.273  0.1921  0.0725 -0.4456
 2295TIP3    H128376   2.138   1.394   6.237 -1.1087 -0.1771 -1.4713
 2295TIP3    H228377   2.207   1.293   6.327  0.0406  2.1550  0.3740
 2296TIP3   OH228378   0.556   5.969   4.513  0.4040 -0.1213 -0.4628
 2296TIP3    H128379   0.490   5.920   4.562  1.7446  1.2060  2.9989
 2296TIP3    H228380   0.618   5.902   4.484 -1.0529 -1.0904 -1.5080
 2297TIP3   OH228381   3.054   1.946  13.671  0.5862  0.2043  0.2619
 2297TIP3    H128382   3.021   1.895  13.597 -0.5695 -0.2372  1.0398
 2297TIP3    H228383   3.112   1.886  13.718 -0.5030 -0.3464  0.9808
 2298TIP3   OH228384   3.252   3.877   2.531  0.5757 -0.2700 -0.2863
 2298TIP3    H128385   3.346   3.883   2.514  0.6634 -0.6808  0.0500
 2298TIP3    H228386   3.216   3.839   2.450  0.8405 -1.1058 -0.0218
 2299TIP3   OH228387   6.499   0.664  13.846 -0.3006 -0.0476  0.1796
 2299TIP3    H128388   6.423   0.670  13.904  1.2802 -1.9883  2.6782
 2299TIP3    H228389   6.468   0.615  13.770 -1.9532  0.7747  0.2863
 2300TIP3   OH228390   1.690   2.071  16.685 -0.2602  0.1806  0.2326
 2300TIP3    H128391   1.780   2.074  16.653 -0.0348  0.6920  0.8920
 2300TIP3    H228392   1.637   2.095  16.609  0.0694 -1.1892 -0.4693
 2301TIP3   OH228393   4.713   0.888  15.353 -0.0272  1.0267  0.9453
 2301TIP3    H128394   4.768   0.949  15.402  1.0095  0.3140  0.6912
 2301TIP3    H228395   4.698   0.815  15.413  0.7588  0.4219  0.4270
 2302TIP3   OH228396   3.516   3.841   2.546  0.6865 -0.1850 -0.1967
 2302TIP3    H128397   3.601   3.832   2.589  1.0058 -1.1073 -0.9844
 2302TIP3    H228398   3.491   3.751   2.523 -0.9753 -0.0439  0.8982
 2303TIP3   OH228399   4.837   2.736  11.132  0.3645  0.4676  0.0534
 2303TIP3    H128400   4.744   2.757  11.133 -0.3460 -2.3698 -0.2657
 2303TIP3    H228401   4.861   2.735  11.040  0.9362  1.7934  0.1496
 2304TIP3   OH228402   3.550   6.766  11.142 -0.3832  0.4206  0.4868
 2304TIP3    H128403   3.600   6.755  11.223 -0.0754  0.2368  0.2730
 2304TIP3    H228404   3.499   6.846  11.156 -1.5666 -0.4654  1.4921
 2305TIP3   OH228405   3.130   4.006  15.873  0.2510 -0.4714 -0.0232
 2305TIP3    H128406   3.195   4.066  15.909  1.1723 -1.7445  0.5365
 2305TIP3    H228407   3.113   4.038  15.785  3.3004 -1.2947 -1.0243
 2306TIP3   OH228408   5.987   0.522  12.057  0.5611 -0.0129 -0.1321
 2306TIP3    H128409   5.935   0.501  11.979  0.4886 -0.0982 -0.0608
 2306TIP3    H228410   6.075   0.487  12.037  1.6708  3.2929 -1.8208
 2307TIP3   OH228411   1.936   1.993  15.596 -0.0564 -0.3447 -0.3712
 2307TIP3    H128412   1.847   2.029  15.584 -0.1783 -0.8563 -1.1256
 2307TIP3    H228413   1.943   1.925  15.528  1.1731  0.1798 -0.7991
 2308TIP3   OH228414   4.149   1.627  11.808  0.5284  0.7051 -0.1706
 2308TIP3    H128415   4.152   1.531  11.803  0.2303  0.6851  0.0447
 2308TIP3    H228416   4.084   1.652  11.743  2.1894  0.9015 -1.8512
 2309TIP3   OH228417   0.118   6.663  12.814 -0.1308 -0.0882 -0.1081
 2309TIP3    H128418   0.063   6.604  12.865  1.1663 -1.3254 -0.0788
 2309TIP3    H228419   0.130   6.740  12.870  1.0414 -1.2938  1.3794
 2310TIP3   OH228420   0.199   6.035  16.440  0.0291  0.0831  0.1112
 2310TIP3    H128421   0.246   5.991  16.369 -0.6670  0.4737 -0.6146
 2310TIP3    H228422   0.219   6.128  16.428 -1.2791  0.3114 -0.5109
 2311TIP3   OH228423   3.700   4.536   0.861  0.0016  0.0549  0.2913
 2311TIP3    H128424   3.779   4.500   0.903  1.5164 -0.9814 -3.1406
 2311TIP3    H228425   3.631   4.523   0.927  2.0048 -2.1375  2.1645
 2312TIP3   OH228426   2.246   3.511  16.062 -0.4952 -0.3067  0.2149
 2312TIP3    H128427   2.322   3.458  16.040  1.4108  2.3516 -0.0705
 2312TIP3    H228428   2.240   3.506  16.157 -0.3907 -1.0807  0.1815
 2313TIP3   OH228429   0.667   5.044  11.192  0.1489  0.2022 -0.3936
 2313TIP3    H128430   0.612   5.122  11.198  1.2586  0.9916 -0.1655
 2313TIP3    H228431   0.716   5.056  11.111  2.3801  1.1852  0.9968
 2314TIP3   OH228432   3.942   6.191   1.420 -0.6796 -0.5265 -0.0105
 2314TIP3    H128433   3.882   6.236   1.360  1.2476 -0.8418 -2.3194
 2314TIP3    H228434   3.914   6.099   1.416  0.2423 -0.7764 -1.5595
 2315TIP3   OH228435   4.000   0.541  11.859  0.3535  0.2765  0.1022
 2315TIP3    H128436   4.084   0.558  11.819  0.1544  0.7069 -0.1324
 2315TIP3    H228437   4.021   0.507  11.946  0.7740  2.8063  1.0770
 2316TIP3   OH228438   3.543   0.401  16.448  0.2804 -0.4147  0.0450
 2316TIP3    H128439   3.562   0.408  16.542  0.2499  1.9113 -0.0831
 2316TIP3    H228440   3.556   0.489  16.414 -1.9913 -0.6826 -1.7306
 2317TIP3   OH228441   2.030   0.737   3.432 -0.1731 -0.3602  0.2180
 2317TIP3    H128442   2.118   0.701   3.422 -0.4173 -1.0240  0.4090
 2317TIP3    H228443   1.973   0.675   3.387 -0.5572  0.0094  0.1835
 2318TIP3   OH228444   5.548   6.087   5.228  0.2972  0.4965 -0.1624
 2318TIP3    H128445   5.538   6.146   5.303  0.4897  0.3308 -0.0043
 2318TIP3    H228446   5.459   6.062   5.205  0.1686  1.3968 -0.6745
 2319TIP3   OH228447   4.525   5.754  11.950 -0.4613  0.2873  0.0289
 2319TIP3    H128448   4.615   5.784  11.968 -0.6489  1.9260 -1.5243
 2319TIP3    H228449   4.534   5.697  11.874 -0.8733  1.6128 -1.0478
 2320TIP3   OH228450   5.918   6.038  14.579  0.3501  0.2972 -0.0957
 2320TIP3    H128451   5.855   6.100  14.617  0.3650 -0.3063  0.9536
 2320TIP3    H228452   5.903   5.956  14.627  1.4322 -0.0617 -0.3429
 2321TIP3   OH228453   4.341   4.857   4.029  0.3093 -0.3041 -0.0442
 2321TIP3    H128454   4.253   4.874   4.064  0.7737  1.4727  0.3832
 2321TIP3    H228455   4.326   4.839   3.936 -0.5635 -0.7616  0.1708
 2322TIP3   OH228456   3.586   6.061   1.511 -0.4709 -0.3239  0.1914
 2322TIP3    H128457   3.652   6.027   1.451  0.8831  1.7052  0.4154
 2322TIP3    H228458   3.534   5.984   1.536  1.2112 -1.8445 -0.7249
 2323TIP3   OH228459   1.409   0.292   4.652 -0.4160  0.0518 -0.4700
 2323TIP3    H128460   1.415   0.199   4.676 -1.7220 -0.1648 -0.8624
 2323TIP3    H228461   1.376   0.334   4.732  0.4876  0.2481 -0.1877
 2324TIP3   OH228462   1.288   1.406  15.667 -0.2078  0.1013 -0.7329
 2324TIP3    H128463   1.209   1.359  15.642 -0.0901 -1.5677  1.6533
 2324TIP3    H228464   1.359   1.345  15.647  0.3140  0.8047 -1.0683
 2325TIP3   OH228465   0.800   6.389  13.560 -0.0129 -0.2798 -1.0587
 2325TIP3    H128466   0.809   6.352  13.472 -0.7744  3.5118 -2.9150
 2325TIP3    H228467   0.712   6.364  13.588 -0.8676  0.7826 -2.6541
 2326TIP3   OH228468   3.742   1.485  16.471 -0.3905  0.3672 -0.1801
 2326TIP3    H128469   3.834   1.487  16.499  0.2106 -1.0924 -1.8392
 2326TIP3    H228470   3.692   1.482  16.553  1.0963 -0.1775  0.7564
 2327TIP3   OH228471   0.098   2.207   3.126 -0.1677 -0.0894  0.3046
 2327TIP3    H128472   0.084   2.215   3.032  0.0157  0.7072  0.3413
 2327TIP3    H228473   0.117   2.296   3.156  1.4648 -0.5684  0.8080
 2328TIP3   OH228474   0.476   1.203   2.691  0.0533  1.4772  0.3237
 2328TIP3    H128475   0.387   1.173   2.708  0.6750 -0.3823  0.5640
 2328TIP3    H228476   0.512   1.224   2.777  0.4381  0.3625  0.4534
 2329TIP3   OH228477   6.025   3.469   4.066 -0.1173 -0.4414 -0.1132
 2329TIP3    H128478   6.023   3.400   4.133  0.4521 -1.2471 -0.8885
 2329TIP3    H228479   5.955   3.445   4.006 -1.1503  0.7236  0.5858
 2330TIP3   OH228480   3.667   3.415   5.229  0.6189  0.4054  0.5285
 2330TIP3    H128481   3.699   3.361   5.157 -2.4379 -0.2163 -0.4816
 2330TIP3    H228482   3.731   3.401   5.299  2.1976 -1.1493 -1.1122
 2331TIP3   OH228483   2.321   2.086  14.860 -0.0096 -0.1758 -0.1653
 2331TIP3    H128484   2.248   2.026  14.876  1.6634 -2.4754 -0.6747
 2331TIP3    H228485   2.290   2.145  14.791 -1.5677 -0.7169  0.0492
 2332TIP3   OH228486   0.915   5.858  13.692 -0.0496  0.0268  0.4101
 2332TIP3    H128487   0.828   5.821  13.704 -0.3873  0.8551  0.5587
 2332TIP3    H228488   0.900   5.944  13.653  0.7439 -0.1218 -0.2663
 2333TIP3   OH228489   6.815   1.238  10.830 -0.0674  0.2045  0.4102
 2333TIP3    H128490   6.831   1.238  10.736 -0.7876 -1.3372  0.2690
 2333TIP3    H228491   6.886   1.185  10.866 -1.3566 -1.6323  0.3963
 2334TIP3   OH228492   5.390   4.534   3.839  0.0914 -0.3672  0.1982
 2334TIP3    H128493   5.408   4.578   3.922 -0.6836 -0.0631  0.2168
 2334TIP3    H228494   5.414   4.599   3.772  1.1326 -0.7707  0.1599
 2335TIP3   OH228495   6.015   4.928   3.429 -0.2397 -0.3385  0.1036
 2335TIP3    H128496   5.988   4.873   3.503  2.1686  0.5488  1.7698
 2335TIP3    H228497   6.009   5.017   3.462  0.5688  0.0990 -0.8746
 2336TIP3   OH228498   6.001   5.053   2.732  0.0253 -0.0536  0.2087
 2336TIP3    H128499   5.980   4.962   2.753  1.1920 -0.2679  0.4980
 2336TIP3    H228500   5.924   5.084   2.684 -1.6413 -0.3356  2.4824
 2337TIP3   OH228501   4.723   4.288   4.728 -0.3624  0.4032  0.5630
 2337TIP3    H128502   4.818   4.284   4.715 -0.1239  1.6360  1.7119
 2337TIP3    H228503   4.712   4.290   4.823 -1.5419  0.4794  0.4377
 2338TIP3   OH228504   4.591   4.234   6.676  0.0057  0.0297  0.6046
 2338TIP3    H128505   4.602   4.166   6.610 -3.2783  0.5040 -0.6254
 2338TIP3    H228506   4.579   4.314   6.625  1.5295  1.1842  1.9601
 2339TIP3   OH228507   5.603   0.528   2.252  0.4776  0.3506  0.3097
 2339TIP3    H128508   5.588   0.498   2.342  0.3234  0.5993  0.3690
 2339TIP3    H228509   5.611   0.623   2.259 -0.3744  0.4577 -0.0424
 2340TIP3   OH228510   1.267   4.718  14.002  0.0976  0.0526 -0.2701
 2340TIP3    H128511   1.296   4.809  13.995 -1.0806  0.4598 -0.1325
 2340TIP3    H228512   1.183   4.717  13.956 -1.2762 -0.3071  2.0881
 2341TIP3   OH228513   5.498   5.029  11.391 -0.2870  0.1791  0.0926
 2341TIP3    H128514   5.592   5.033  11.379  0.1207  0.9869  2.8489
 2341TIP3    H228515   5.475   5.114  11.430 -1.8715 -0.5990  0.9600
 2342TIP3   OH228516   3.363   6.417   3.187 -0.4760 -0.2176 -0.5085
 2342TIP3    H128517   3.278   6.430   3.231 -0.3714 -0.7894 -0.1351
 2342TIP3    H228518   3.425   6.467   3.240 -0.4407 -0.4729 -0.3072
 2343TIP3   OH228519   4.242   5.324  12.308 -0.3429  0.9969 -0.6684
 2343TIP3    H128520   4.244   5.262  12.381  0.9395  0.2765 -1.2903
 2343TIP3    H228521   4.162   5.375  12.323  0.2189  1.3273  1.5997
 2344TIP3   OH228522   4.250   5.369  15.487 -0.1567 -0.3267 -0.5802
 2344TIP3    H128523   4.287   5.429  15.552  0.6107 -0.3845 -0.9436
 2344TIP3    H228524   4.236   5.424  15.410 -0.6729 -0.3456 -0.5013
 2345TIP3   OH228525   0.306   2.118   5.396  0.2318 -0.3141 -0.1263
 2345TIP3    H128526   0.251   2.085   5.467  0.1288  0.0739 -0.0229
 2345TIP3    H228527   0.353   2.041   5.364 -0.2514 -0.6201 -0.1118
 2346TIP3   OH228528   6.187   4.027  12.981 -1.0126  0.2537 -0.2968
 2346TIP3    H128529   6.178   4.090  12.909 -1.6282  0.3089 -0.1833
 2346TIP3    H228530   6.106   3.975  12.977 -0.4802 -0.5749 -0.4297
 2347TIP3   OH228531   6.419   1.787   3.021  0.3245 -0.5479 -0.5657
 2347TIP3    H128532   6.346   1.824   3.070  0.0858 -0.8446 -0.6920
 2347TIP3    H228533   6.395   1.695   3.009  0.4426 -0.5108 -1.1216
 2348TIP3   OH228534   3.461   1.580  13.503 -0.5233  0.9034  0.2539
 2348TIP3    H128535   3.469   1.676  13.501 -0.4860  0.8901 -0.7213
 2348TIP3    H228536   3.474   1.557  13.595 -1.0101  1.8776  0.5837
 2349TIP3   OH228537   6.362   1.028   5.052  0.2438 -0.4287  0.1588
 2349TIP3    H128538   6.367   0.998   5.143 -0.1781 -1.0656 -0.0271
 2349TIP3    H228539   6.269   1.038   5.035  0.3468  0.3580  0.0069
 2350TIP3   OH228540   4.258   3.330   5.078 -0.5540 -0.0110 -0.3981
 2350TIP3    H128541   4.174   3.375   5.072 -0.4697  0.3994  1.0765
 2350TIP3    H228542   4.266   3.306   5.171  1.1344  0.3307 -0.4145
 2351TIP3   OH228543   3.815   6.752  12.098  0.8912  0.2276 -0.4891
 2351TIP3    H128544   3.728   6.790  12.113  0.9647  1.5371 -2.8150
 2351TIP3    H228545   3.866   6.780  12.173 -0.3082  0.7494  0.1632
 2352TIP3   OH228546   2.959   5.618   1.343 -0.1848 -0.0009  0.4762
 2352TIP3    H128547   2.967   5.697   1.290 -1.5570  1.0898  1.8131
 2352TIP3    H228548   2.884   5.634   1.399  0.2465 -1.7701  1.6455
 2353TIP3   OH228549   4.313   5.471  11.566 -0.1881  0.2617  0.0520
 2353TIP3    H128550   4.343   5.555  11.531 -1.2283  0.0852 -1.3421
 2353TIP3    H228551   4.301   5.487  11.660 -0.0353  1.5683 -0.1331
 2354TIP3   OH228552   2.357   4.526  16.354  0.6649  0.2838 -0.0029
 2354TIP3    H128553   2.314   4.598  16.309  2.8690  1.5490 -0.2068
 2354TIP3    H228554   2.395   4.472  16.284  1.9266  0.8499  0.2184
 2355TIP3   OH228555   3.729   2.270   4.093  0.3820 -0.2831  0.2823
 2355TIP3    H128556   3.732   2.176   4.108 -1.2733 -0.7931 -2.1337
 2355TIP3    H228557   3.663   2.283   4.025  1.1353  2.5468 -0.0819
 2356TIP3   OH228558   1.462   2.476  14.197 -0.0576 -0.3603 -0.3343
 2356TIP3    H128559   1.424   2.544  14.141  0.1846  0.0279 -0.0331
 2356TIP3    H228560   1.553   2.470  14.170  0.5489  1.0964  1.1774
 2357TIP3   OH228561   0.669   6.224   5.377 -0.2584  0.0940 -0.0119
 2357TIP3    H128562   0.591   6.222   5.432 -0.8172 -1.7896 -0.7859
 2357TIP3    H228563   0.730   6.280   5.425 -1.4078  0.1145  1.5330
 2358TIP3   OH228564   1.696   5.163   0.873  0.0125  0.5369  0.7799
 2358TIP3    H128565   1.675   5.138   0.963  1.5742  0.2415  1.0922
 2358TIP3    H228566   1.777   5.213   0.880 -0.1005  0.9341 -0.4273
 2359TIP3   OH228567   5.827   2.402   0.658 -0.2245  0.0919 -0.5691
 2359TIP3    H128568   5.889   2.359   0.598 -0.2918  0.4388 -0.8918
 2359TIP3    H228569   5.806   2.335   0.723  2.0875  0.5753  0.7747
 2360TIP3   OH228570   0.941   4.140   4.671 -0.1884  0.1793 -0.2106
 2360TIP3    H128571   1.020   4.193   4.682 -0.1315  0.1005 -0.2392
 2360TIP3    H228572   0.959   4.086   4.594  0.0829 -0.4625  0.2808
 2361TIP3   OH228573   4.122   1.170  12.484 -0.2271  0.0445 -1.0577
 2361TIP3    H128574   4.197   1.147  12.539 -1.1143  0.0124  0.1927
 2361TIP3    H228575   4.078   1.086  12.468 -1.9056  0.4153  1.1600
 2362TIP3   OH228576   5.213   0.680   0.565  0.2071  0.0612  0.0424
 2362TIP3    H128577   5.304   0.657   0.586  1.1357  2.4336 -0.9686
 2362TIP3    H228578   5.171   0.691   0.650  1.5249  1.1170  0.6080
 2363TIP3   OH228579   0.904   5.736  13.428 -0.1293  0.0440 -0.3553
 2363TIP3    H128580   0.854   5.756  13.507 -0.9382  1.3113 -1.1347
 2363TIP3    H228581   0.928   5.644  13.436 -0.0932  0.1761  1.4004
 2364TIP3   OH228582   0.460   6.478   0.504 -0.4961  0.3776  0.5733
 2364TIP3    H128583   0.437   6.540   0.573 -0.5319  4.0464 -2.4142
 2364TIP3    H228584   0.386   6.483   0.442 -0.4096 -2.6198  0.1042
 2365TIP3   OH228585   0.103   4.239   4.932  0.2754  0.2693 -0.6830
 2365TIP3    H128586   0.040   4.242   4.860 -1.4527 -2.8352  0.5285
 2365TIP3    H228587   0.050   4.257   5.010  1.1733 -0.8750  0.2148
 2366TIP3   OH228588   1.975   0.247  11.122 -0.0331  0.3534  0.0292
 2366TIP3    H128589   1.905   0.183  11.115 -0.8870  1.2877 -0.1932
 2366TIP3    H228590   1.985   0.262  11.216 -1.6492  1.8048  0.0096
 2367TIP3   OH228591   5.940   5.997  10.889 -0.0839 -0.1870 -0.1890
 2367TIP3    H128592   5.996   6.026  10.961 -0.3033 -1.2092  0.4113
 2367TIP3    H228593   6.001   5.970  10.821  0.1286  1.7640 -0.8300
 2368TIP3   OH228594   3.930   1.529   4.017 -0.0552  0.6148  0.3000
 2368TIP3    H128595   3.985   1.518   4.095 -1.6964  0.3109  1.4679
 2368TIP3    H228596   3.899   1.441   3.996 -0.6572  0.8718  0.0920
 2369TIP3   OH228597   6.638   3.105  15.442  0.0112 -0.0016  0.0877
 2369TIP3    H128598   6.613   3.041  15.508  0.4540  1.2264  1.4766
 2369TIP3    H228599   6.717   3.068  15.401  0.8121  0.0654  1.5219
 2370TIP3   OH228600   3.177   0.526  12.428  0.6277  0.2644 -0.1972
 2370TIP3    H128601   3.239   0.462  12.393  0.5311 -1.1981  2.1091
 2370TIP3    H228602   3.094   0.479  12.431  0.1792  1.0531 -0.0188
 2371TIP3   OH228603   6.796   2.246  12.813  0.0212  0.0727 -0.4021
 2371TIP3    H128604   6.844   2.322  12.848 -0.2224  0.6466 -1.2765
 2371TIP3    H228605   6.846   2.171  12.844 -0.9043  0.4605  2.2720
 2372TIP3   OH228606   1.027   0.891   2.583  0.1484 -0.0641 -0.9907
 2372TIP3    H128607   1.021   0.925   2.672  1.6317  0.8657 -1.2154
 2372TIP3    H228608   1.028   0.796   2.594 -1.0320  0.0010 -0.1298
 2373TIP3   OH228609   2.314   3.784  15.874 -0.3663  0.6234 -0.1314
 2373TIP3    H128610   2.297   3.690  15.871  0.7559  0.4309 -0.7874
 2373TIP3    H228611   2.349   3.799  15.962 -0.8117  0.4875  0.0748
 2374TIP3   OH228612   5.363   4.470  17.115 -0.0411 -0.2286  0.7845
 2374TIP3    H128613   5.360   4.387  17.068  0.6124  0.9927 -1.5866
 2374TIP3    H228614   5.455   4.482  17.138 -0.0932 -0.0239  0.8954
 2375TIP3   OH228615   5.572   3.279  15.321 -0.1531  0.3534  0.5901
 2375TIP3    H128616   5.609   3.322  15.398 -0.3628  0.9731  0.3508
 2375TIP3    H228617   5.637   3.213  15.296 -0.0151  0.2548  1.2024
 2376TIP3   OH228618   5.574   2.257   3.966  0.4620  0.4120  0.4389
 2376TIP3    H128619   5.543   2.186   3.909  0.6143  1.5825 -1.1754
 2376TIP3    H228620   5.631   2.213   4.029 -0.3549 -1.0551  0.2070
 2377TIP3   OH228621   1.873   1.416   1.642  0.2271  0.0433 -0.1845
 2377TIP3    H128622   1.854   1.322   1.644  2.1397 -0.4097 -1.4717
 2377TIP3    H228623   1.903   1.433   1.553 -0.6243  2.0225 -0.1542
 2378TIP3   OH228624   4.710   6.019  13.139  0.2579 -0.2420 -0.3661
 2378TIP3    H128625   4.802   6.018  13.163  0.1617 -1.6198  0.0375
 2378TIP3    H228626   4.682   5.928  13.146 -1.0855  0.1144 -0.6832
 2379TIP3   OH228627   3.390   6.151  11.883 -0.6477 -0.1169 -0.2415
 2379TIP3    H128628   3.448   6.187  11.817  2.2260 -1.2133  1.4927
 2379TIP3    H228629   3.362   6.226  11.935  1.3227  0.1990  0.4086
 2380TIP3   OH228630   6.112   4.457  13.882  0.2089 -0.9755 -0.4789
 2380TIP3    H128631   6.051   4.406  13.829  0.4891 -1.2605 -0.5303
 2380TIP3    H228632   6.192   4.405  13.884  1.0863  0.2467 -1.9370
 2381TIP3   OH228633   2.390   1.894  12.301 -0.2336 -0.2331 -0.2592
 2381TIP3    H128634   2.306   1.859  12.272  0.4998 -0.2079 -2.6499
 2381TIP3    H228635   2.374   1.988  12.312 -0.3786 -0.1102 -1.3942
 2382TIP3   OH228636   4.294   1.217  13.688  0.1989  0.2023  1.1239
 2382TIP3    H128637   4.386   1.241  13.680  0.0602  0.8254  1.3347
 2382TIP3    H228638   4.294   1.139  13.742  0.6709 -0.3402  0.3650
 2383TIP3   OH228639   5.864   2.547   3.720 -1.0184  0.3307 -0.1067
 2383TIP3    H128640   5.777   2.572   3.753 -0.9290 -0.6589  0.9373
 2383TIP3    H228641   5.881   2.462   3.760  0.2620  0.3253 -0.6365
 2384TIP3   OH228642   3.848   0.993  16.828  0.4096  0.4020 -0.0942
 2384TIP3    H128643   3.861   0.902  16.802 -0.4931 -0.0999  1.1188
 2384TIP3    H228644   3.756   1.011  16.808  0.5818  1.0573 -0.3282
 2385TIP3   OH228645   3.553   5.555   6.132 -0.3262 -0.2793  0.2247
 2385TIP3    H128646   3.531   5.557   6.225 -0.1086  1.2041  0.2693
 2385TIP3    H228647   3.468   5.543   6.088 -0.6998  0.9681  0.5608
 2386TIP3   OH228648   2.631   3.425   3.323 -0.3841  1.0638  0.5578
 2386TIP3    H128649   2.695   3.485   3.283  2.5839 -1.8922  0.4099
 2386TIP3    H228650   2.598   3.373   3.250 -1.5090  1.2817  0.9015
 2387TIP3   OH228651   3.680   1.419   4.543  0.3367 -0.5130 -0.4424
 2387TIP3    H128652   3.600   1.427   4.594  0.9852  1.8574  0.3074
 2387TIP3    H228653   3.746   1.391   4.607  0.0767 -3.1448 -1.1841
 2388TIP3   OH228654   2.840   6.613  17.039 -0.3874  0.1619  0.5478
 2388TIP3    H128655   2.811   6.669  16.967 -3.0833 -0.7718  0.7829
 2388TIP3    H228656   2.914   6.564  17.003  0.5488  2.1874 -0.3932
 2389TIP3   OH228657   0.111   1.234  17.066  0.1043 -0.0961  0.3833
 2389TIP3    H128658   0.104   1.325  17.097 -0.9285  0.0829 -0.3293
 2389TIP3    H228659   0.191   1.202  17.107  0.8339  1.3268  0.1512
 2390TIP3   OH228660   0.476   3.470  10.763 -0.3996  0.1618  0.5440
 2390TIP3    H128661   0.397   3.417  10.764  0.5347 -1.2686  0.8824
 2390TIP3    H228662   0.517   3.452  10.678  0.6469 -0.8024  1.2266
 2391TIP3   OH228663   2.762   2.897   2.007 -0.4046 -0.1707 -0.0513
 2391TIP3    H128664   2.827   2.946   2.057  1.4451 -0.4190 -2.0532
 2391TIP3    H228665   2.780   2.806   2.027 -1.6088 -0.1816  1.0585
 2392TIP3   OH228666   4.337   2.963  15.336 -0.9964  0.3356 -1.0049
 2392TIP3    H128667   4.249   2.940  15.364 -0.3500  0.2023  1.1430
 2392TIP3    H228668   4.367   2.888  15.285 -1.3918 -0.5938  0.0767
 2393TIP3   OH228669   1.334   3.841   1.932  0.0928  0.0909  0.1458
 2393TIP3    H128670   1.351   3.802   1.846  0.6685  0.4429  0.0962
 2393TIP3    H228671   1.241   3.866   1.929  0.4448  1.4357 -0.9322
 2394TIP3   OH228672   5.271   3.893   3.738  0.2352  0.2250 -0.0956
 2394TIP3    H128673   5.349   3.935   3.700  0.5812 -0.4722 -0.1645
 2394TIP3    H228674   5.277   3.912   3.832  1.4554 -1.3158  0.1799
 2395TIP3   OH228675   2.530   2.275   4.131  0.1682  0.4811 -0.3154
 2395TIP3    H128676   2.568   2.322   4.205  2.1580 -1.4566  0.0065
 2395TIP3    H228677   2.436   2.290   4.139  0.4886  1.8814  1.4892
 2396TIP3   OH228678   6.530   1.570   0.352 -0.0070  0.0570  0.7089
 2396TIP3    H128679   6.557   1.592   0.263 -0.2837  2.4987  1.1744
 2396TIP3    H228680   6.502   1.478   0.346  1.2048 -0.2394 -1.4072
 2397TIP3   OH228681   5.718   4.504   1.358  0.3548 -0.1243  0.1585
 2397TIP3    H128682   5.809   4.484   1.383  0.0285  0.2168  1.7596
 2397TIP3    H228683   5.718   4.598   1.340  0.1676  0.0477  0.9992
 2398TIP3   OH228684   2.776   4.450   2.229 -0.0529  0.0024 -0.0157
 2398TIP3    H128685   2.862   4.426   2.196 -0.4557 -0.7449 -0.5390
 2398TIP3    H228686   2.793   4.521   2.291  0.8263  0.6345 -0.9550
 2399TIP3   OH228687   3.387   1.602  16.318  0.3157  0.3720  0.4206
 2399TIP3    H128688   3.429   1.516  16.323  1.7456  0.9079 -1.3372
 2399TIP3    H228689   3.351   1.606  16.229 -0.9042  1.1013  0.9230
 2400TIP3   OH228690   2.367   4.065   4.240 -0.4581 -0.4141  0.3382
 2400TIP3    H128691   2.392   4.096   4.327 -1.7365  1.6548  0.0266
 2400TIP3    H228692   2.310   3.990   4.257 -3.1489  1.7488  1.4760
 2401TIP3   OH228693   5.586   0.022  11.712 -0.3596  0.3806 -0.1189
 2401TIP3    H128694   5.610   0.085  11.644  0.7658 -2.7222 -2.8541
 2401TIP3    H228695   5.669  -0.014  11.742 -0.9937 -0.2906  0.8788
 2402TIP3   OH228696   4.816   3.626   1.371  0.7671 -0.4423 -0.7738
 2402TIP3    H128697   4.871   3.553   1.400 -0.4858 -0.9423  0.4568
 2402TIP3    H228698   4.795   3.606   1.280  3.2724  0.1991 -1.5467
 2403TIP3   OH228699   3.269   3.053  16.276  0.2829 -0.1383 -0.0954
 2403TIP3    H128700   3.193   3.097  16.315  0.9076  1.1116 -0.2445
 2403TIP3    H228701   3.267   2.965  16.314  0.3309  0.7279  2.0783
 2404TIP3   OH228702   0.468   2.727  15.983 -0.2421  0.8895  0.4651
 2404TIP3    H128703   0.447   2.820  15.995 -2.4512  0.4296  0.5966
 2404TIP3    H228704   0.417   2.682  16.050  1.1622 -0.4193  0.7068
 2405TIP3   OH228705   0.520   2.122  12.434 -0.1384  0.1317  0.1358
 2405TIP3    H128706   0.553   2.058  12.497 -1.2062  0.1369  0.7247
 2405TIP3    H228707   0.480   2.068  12.365 -2.5337  0.0962  1.4364
 2406TIP3   OH228708   6.072   0.538   5.297  0.4628  0.2268 -0.3498
 2406TIP3    H128709   6.099   0.492   5.217 -2.2019 -0.8437 -0.7597
 2406TIP3    H228710   6.024   0.614   5.265  0.5623  0.5413  0.2481
 2407TIP3   OH228711   1.548   5.425  12.372 -0.2646 -1.0039  0.3622
 2407TIP3    H128712   1.479   5.385  12.425 -0.8167 -2.6596 -1.4852
 2407TIP3    H228713   1.502   5.471  12.302  0.4765 -0.9334 -0.0950
 2408TIP3   OH228714   1.128   6.505   3.615 -0.1796  0.5326 -0.5910
 2408TIP3    H128715   1.099   6.434   3.558 -1.7009  0.2222  0.4766
 2408TIP3    H228716   1.222   6.491   3.625 -0.4543 -1.4785 -0.2706
 2409TIP3   OH228717   1.278   3.280  10.046 -0.4002 -0.2335  0.0739
 2409TIP3    H128718   1.274   3.370  10.079 -1.1457  0.4541 -1.7200
 2409TIP3    H228719   1.204   3.236  10.087 -2.9978  1.3516 -2.5330
 2410TIP3   OH228720   3.831   2.110  15.393  0.5862 -0.1594 -0.1567
 2410TIP3    H128721   3.800   2.176  15.332  0.3979  0.7036  0.8489
 2410TIP3    H228722   3.803   2.027  15.355  0.6597  0.3367 -1.3388
 2411TIP3   OH228723   4.396   1.782   6.003 -0.4554  0.2265 -0.1089
 2411TIP3    H128724   4.374   1.875   5.991 -1.0387  0.2223  0.8758
 2411TIP3    H228725   4.492   1.782   6.009 -0.5155  0.9189  1.0873
 2412TIP3   OH228726   3.738   2.699   1.828 -0.9663  1.0870 -0.0820
 2412TIP3    H128727   3.742   2.770   1.764 -3.3596  1.1916 -0.2149
 2412TIP3    H228728   3.660   2.719   1.880  0.1848  0.2964  2.0473
 2413TIP3   OH228729   1.688   5.257  12.716 -0.5411  0.0386 -0.3368
 2413TIP3    H128730   1.714   5.197  12.785 -0.0293  0.9364  0.2647
 2413TIP3    H228731   1.599   5.284  12.740 -0.9078 -0.7217 -0.7926
 2414TIP3   OH228732   1.736   0.829  14.405 -0.1771 -0.5665 -0.8411
 2414TIP3    H128733   1.688   0.797  14.329 -1.0929 -1.0261 -0.0876
 2414TIP3    H228734   1.699   0.915  14.423 -0.4833 -0.7681 -0.4817
 2415TIP3   OH228735   4.995   5.742   5.136 -0.5012 -0.0819 -0.1047
 2415TIP3    H128736   4.945   5.673   5.092 -0.6005 -0.6132  0.8296
 2415TIP3    H228737   4.996   5.814   5.073 -0.3316 -0.9490 -1.1323
 2416TIP3   OH228738   2.325   0.714  15.789  0.8614 -0.3229 -0.0654
 2416TIP3    H128739   2.350   0.686  15.701 -0.0112  1.1122 -0.8053
 2416TIP3    H228740   2.251   0.774  15.775  3.4481  3.5018  1.2271
 2417TIP3   OH228741   0.950   6.241   2.727 -0.2623  0.1152 -0.3656
 2417TIP3    H128742   0.865   6.205   2.701  0.0455  2.0378 -4.8384
 2417TIP3    H228743   0.933   6.334   2.741  0.9658  0.3600 -0.4557
 2418TIP3   OH228744   2.476   0.358  16.597 -0.0488 -0.4656 -0.2691
 2418TIP3    H128745   2.554   0.370  16.651 -0.8614 -0.4011  0.9326
 2418TIP3    H228746   2.448   0.447  16.576  0.8164 -0.4903 -1.6717
 2419TIP3   OH228747   2.657   1.413   5.788 -0.8919 -0.2483 -0.6338
 2419TIP3    H128748   2.710   1.351   5.838  0.0081  0.0915 -1.1622
 2419TIP3    H228749   2.648   1.373   5.702 -0.8461  0.0633 -0.7831
 2420TIP3   OH228750   1.616   1.993  11.734  0.7030 -0.0856  0.4008
 2420TIP3    H128751   1.620   1.897  11.729  1.1623 -0.2366  2.5457
 2420TIP3    H228752   1.696   2.017  11.781  0.5202  1.3444  0.0008
 2421TIP3   OH228753   2.757   2.027   1.600  0.6040 -0.1843  0.2377
 2421TIP3    H128754   2.705   1.957   1.561 -1.9024  1.0661  1.1493
 2421TIP3    H228755   2.777   2.085   1.527  0.6626 -0.6285 -0.1067
 2422TIP3   OH228756   2.843   0.119  12.016  0.7125  0.2194  0.6633
 2422TIP3    H128757   2.843   0.052  12.084 -0.6024  1.2309  1.7164
 2422TIP3    H228758   2.897   0.082  11.946  0.0886 -1.9168  1.2203
 2423TIP3   OH228759   5.284   0.420  16.674 -0.0700  0.3390 -0.1874
 2423TIP3    H128760   5.194   0.413  16.640 -0.3442 -0.0137  0.5799
 2423TIP3    H228761   5.296   0.339  16.724  0.8604  0.1574 -0.6949
 2424TIP3   OH228762   6.762   6.297   2.261 -0.0648  0.6760 -0.1091
 2424TIP3    H128763   6.690   6.286   2.323 -0.6399  1.1116 -0.6904
 2424TIP3    H228764   6.838   6.260   2.306 -0.8035 -0.5394  0.1821
 2425TIP3   OH228765   6.140   2.993   0.458  0.1409 -0.0009  0.5537
 2425TIP3    H128766   6.094   2.960   0.381 -0.1487 -1.8490  1.4526
 2425TIP3    H228767   6.070   3.006   0.523  0.3679  1.6220  0.5243
 2426TIP3   OH228768   6.329   5.657  16.646 -0.3872 -0.3539  0.4789
 2426TIP3    H128769   6.340   5.566  16.671 -1.6973 -0.6242  0.1483
 2426TIP3    H228770   6.415   5.696  16.658  0.3276 -1.7624  0.0920
 2427TIP3   OH228771   4.812   0.528   2.842 -0.6062  0.2720 -0.5230
 2427TIP3    H128772   4.780   0.609   2.802 -3.1311 -0.8057 -0.8811
 2427TIP3    H228773   4.737   0.495   2.891 -0.2493 -2.6881 -1.7860
 2428TIP3   OH228774   1.435   6.533  11.452  0.2991  0.1493  0.1379
 2428TIP3    H128775   1.448   6.609  11.395  1.6501  1.0795  1.6239
 2428TIP3    H228776   1.523   6.501  11.471 -0.1707 -0.6875  0.9905
 2429TIP3   OH228777   2.167   2.891   3.349  0.5994  0.6569 -0.0941
 2429TIP3    H128778   2.248   2.935   3.325  2.4421 -1.8982  1.0061
 2429TIP3    H228779   2.142   2.930   3.433  1.2119  0.8450  0.0049
 2430TIP3   OH228780   0.332   3.372  12.050  0.5815  0.2154 -0.3464
 2430TIP3    H128781   0.365   3.361  11.961  0.0663  2.7711 -0.9074
 2430TIP3    H228782   0.248   3.417  12.040  1.0933  1.7018  1.4404
 2431TIP3   OH228783   0.009   6.314   4.301  0.0083 -0.2678  0.2419
 2431TIP3    H128784  -0.071   6.275   4.336 -0.0553 -0.2437  0.1243
 2431TIP3    H228785  -0.009   6.408   4.300 -0.3614 -0.3445 -0.7803
 2432TIP3   OH228786   2.210   5.174  15.422 -0.1036 -0.2124 -0.0940
 2432TIP3    H128787   2.305   5.188  15.416 -0.3252  1.1327 -0.7409
 2432TIP3    H228788   2.185   5.147  15.333 -0.3773 -0.2486 -0.0050
 2433TIP3   OH228789   6.508   3.370   4.769 -0.0449 -0.2197 -0.3940
 2433TIP3    H128790   6.425   3.415   4.782 -0.4050 -0.5191 -1.5010
 2433TIP3    H228791   6.538   3.401   4.683  1.2402  0.2563  0.1942
 2434TIP3   OH228792   4.835   0.290  15.415  0.4312 -0.6363  0.3173
 2434TIP3    H128793   4.831   0.203  15.376  1.5591 -1.3015  1.5826
 2434TIP3    H228794   4.924   0.320  15.397 -0.3599  0.9053 -1.3377
 2435TIP3   OH228795   5.325   6.400  14.298 -0.1076  0.4840  0.2223
 2435TIP3    H128796   5.263   6.438  14.360  2.0097  2.0111  1.5353
 2435TIP3    H228797   5.364   6.326  14.345 -0.3887 -0.0182 -0.3175
 2436TIP3   OH228798   5.043   5.153   6.533 -0.1468  0.0633 -0.4331
 2436TIP3    H128799   4.983   5.213   6.488  0.5629  0.7112 -0.5445
 2436TIP3    H228800   4.988   5.107   6.596 -0.6224  1.2160  0.0205
 2437TIP3   OH228801   6.152   1.055   1.020  0.0682  0.1704 -0.1472
 2437TIP3    H128802   6.150   0.994   0.946  1.8239  0.0215 -0.1245
 2437TIP3    H228803   6.180   1.001   1.094  1.1416  0.8863 -0.0169
 2438TIP3   OH228804   4.354   2.044  12.656 -0.3309  0.2199 -0.2069
 2438TIP3    H128805   4.345   2.006  12.743  1.2089  1.2740  0.4610
 2438TIP3    H228806   4.280   2.009  12.607 -2.1767  0.8466  1.9649
 2439TIP3   OH228807   0.346   0.254  11.328  0.0538  0.6209  0.4704
 2439TIP3    H128808   0.425   0.199  11.334 -1.5718 -1.8897  0.2228
 2439TIP3    H228809   0.325   0.277  11.418 -0.4256 -1.0068  0.7974
 2440TIP3   OH228810   2.465   2.599   2.118  0.2515 -0.3166 -0.0152
 2440TIP3    H128811   2.512   2.627   2.040 -0.4330 -0.9417 -0.6627
 2440TIP3    H228812   2.494   2.509   2.133 -0.3991 -0.5554 -0.1682
 2441TIP3   OH228813   0.518   3.008   2.905 -0.1160  0.4329 -0.2335
 2441TIP3    H128814   0.545   3.033   2.817 -1.1822 -0.3218 -0.7973
 2441TIP3    H228815   0.439   3.060   2.922 -0.5218 -0.2023 -0.1501
 2442TIP3   OH228816   1.916   3.275  13.706 -0.0001 -0.8618 -0.3959
 2442TIP3    H128817   1.830   3.309  13.728  0.8118  0.9297  0.1669
 2442TIP3    H228818   1.902   3.181  13.692 -1.6799 -0.9556  1.5556
 2443TIP3   OH228819   2.401   5.758   4.656 -0.3077 -0.3683 -0.0501
 2443TIP3    H128820   2.403   5.731   4.565 -1.3001  1.2558 -0.5846
 2443TIP3    H228821   2.310   5.780   4.673 -0.5580 -2.5504  1.9549
 2444TIP3   OH228822   1.513   4.000  15.950 -0.1223  0.0136 -0.0156
 2444TIP3    H128823   1.533   3.951  16.031  3.5403 -2.1979 -1.9582
 2444TIP3    H228824   1.595   4.044  15.929 -1.9527  3.2577 -0.9362
 2445TIP3   OH228825   4.329   0.747   1.414  0.4316 -0.1297  0.1387
 2445TIP3    H128826   4.262   0.686   1.444 -2.1614  1.9268 -1.0257
 2445TIP3    H228827   4.348   0.720   1.324  0.7758 -0.3756  0.2819
 2446TIP3   OH228828   0.161   3.689  14.664  0.0317 -0.1934 -0.6106
 2446TIP3    H128829   0.158   3.594  14.648  3.1479 -0.2497 -1.5309
 2446TIP3    H228830   0.128   3.728  14.584  0.6335 -0.5341 -1.0334
 2447TIP3   OH228831   5.801   5.480  15.280  0.4402 -0.3434  0.0329
 2447TIP3    H128832   5.864   5.549  15.260 -1.1579  0.7641 -1.5043
 2447TIP3    H228833   5.853   5.400  15.283  1.8672  0.4513 -1.6003
 2448TIP3   OH228834   3.802   6.071   4.319 -0.0649  0.2272 -0.2433
 2448TIP3    H128835   3.730   6.011   4.299  0.2825 -0.0900 -0.5550
 2448TIP3    H228836   3.814   6.123   4.240  0.4721 -0.1665 -0.4305
 2449TIP3   OH228837   5.323   2.386  11.486  0.4365 -0.6043  0.0479
 2449TIP3    H128838   5.288   2.474  11.476  0.0159 -0.5010  2.0655
 2449TIP3    H228839   5.411   2.391  11.448 -0.3594  0.0793 -1.8085
 2450TIP3   OH228840   5.529   2.003   4.943  0.0935  0.1559  0.3164
 2450TIP3    H128841   5.586   1.945   4.993 -0.2343  0.2690  0.8307
 2450TIP3    H228842   5.443   1.994   4.985 -0.3960 -0.4093 -0.7631
 2451TIP3   OH228843   4.651   2.696   5.277 -0.1266 -0.7802 -0.0120
 2451TIP3    H128844   4.686   2.786   5.281 -1.7620 -0.1385  1.5625
 2451TIP3    H228845   4.588   2.698   5.205 -0.9953 -0.2965  0.7344
 2452TIP3   OH228846   4.714   6.326  15.663  0.5222  0.1941 -0.2669
 2452TIP3    H128847   4.662   6.404  15.645  0.0418 -0.3349 -1.2743
 2452TIP3    H228848   4.723   6.283  15.577  1.0012 -0.7195  0.2226
 2453TIP3   OH228849   3.849   2.189  11.349 -0.1432 -0.2985  0.0297
 2453TIP3    H128850   3.803   2.243  11.284  0.3614 -0.9851 -0.9243
 2453TIP3    H228851   3.942   2.201  11.329  0.1625  1.4020  2.2090
 2454TIP3   OH228852   2.238   6.794  15.955 -0.1461  0.7043 -0.1525
 2454TIP3    H128853   2.305   6.734  15.986 -1.1459  0.2120  1.1290
 2454TIP3    H228854   2.263   6.812  15.864  1.0063 -0.4489 -0.0999
 2455TIP3   OH228855   6.210   5.009  13.061  0.1812 -0.5119  0.2933
 2455TIP3    H128856   6.155   4.968  13.128 -0.4988 -1.4754 -0.8206
 2455TIP3    H228857   6.290   4.957  13.059  0.7318  0.2708  1.2001
 2456TIP3   OH228858   0.281   4.299  15.115  0.4509 -0.6168  0.1864
 2456TIP3    H128859   0.271   4.269  15.025 -0.8464 -0.9128  0.4007
 2456TIP3    H228860   0.375   4.297  15.131  0.6818 -0.7827 -1.0823
 2457TIP3   OH228861   2.157   6.266   4.717 -0.2363  0.2193 -0.1416
 2457TIP3    H128862   2.079   6.214   4.700  0.7837 -1.2548 -0.4760
 2457TIP3    H228863   2.224   6.231   4.659  0.9094  0.9025  0.7021
 2458TIP3   OH228864   2.955   6.252   3.645  0.4606 -0.3107 -0.0084
 2458TIP3    H128865   2.910   6.171   3.668 -1.9145  0.8556 -0.2323
 2458TIP3    H228866   2.974   6.244   3.552  1.2453 -1.0371  0.2027
 2459TIP3   OH228867   4.637   6.740   2.001  0.3389 -0.8385  0.5509
 2459TIP3    H128868   4.549   6.778   1.997  0.7409  0.4369  2.4607
 2459TIP3    H228869   4.623   6.652   2.036 -0.1564 -0.4171  1.4606
 2460TIP3   OH228870   1.179   2.746   6.024  0.3179  0.5630  0.0490
 2460TIP3    H128871   1.168   2.816   5.959 -0.1139  0.1013 -0.3799
 2460TIP3    H228872   1.152   2.786   6.107 -1.2730  0.4961 -0.4112
 2461TIP3   OH228873   4.977   0.435   2.530  0.2461 -0.0752 -0.1411
 2461TIP3    H128874   4.936   0.361   2.484 -0.0041  0.2392 -0.4238
 2461TIP3    H228875   5.013   0.395   2.610  1.8569 -0.8633 -1.2182
 2462TIP3   OH228876   1.120   6.113  14.155  0.3903 -0.3850  0.2165
 2462TIP3    H128877   1.044   6.108  14.097  0.9212  1.5767 -0.7027
 2462TIP3    H228878   1.139   6.022  14.178  0.2670 -1.2670 -2.8319
 2463TIP3   OH228879   6.265   3.225   2.394 -0.2195  0.0450  0.4919
 2463TIP3    H128880   6.248   3.153   2.334  1.1352  1.5389 -1.8953
 2463TIP3    H228881   6.267   3.185   2.481  0.5518 -2.7876 -0.7075
 2464TIP3   OH228882   2.814   3.024   4.020 -0.3396  0.4796  0.3341
 2464TIP3    H128883   2.904   3.009   4.049 -0.3513  0.3901  0.3258
 2464TIP3    H228884   2.777   3.083   4.086 -0.6970 -0.5858  1.1230
 2465TIP3   OH228885   1.591   4.064   6.136 -0.3096  0.0390 -0.1484
 2465TIP3    H128886   1.590   4.097   6.046 -0.9384  0.2542 -0.0676
 2465TIP3    H228887   1.682   4.072   6.164  0.0130 -0.6473 -0.9918
 2466TIP3   OH228888   5.705   4.171   1.190  0.3784  0.0855  0.7101
 2466TIP3    H128889   5.688   4.253   1.143  0.7924 -0.3030 -0.1409
 2466TIP3    H228890   5.769   4.195   1.257 -0.8786  0.8322  1.6767
 2467TIP3   OH228891   3.790   5.273  13.535  0.0171 -0.3368  0.5159
 2467TIP3    H128892   3.802   5.347  13.594 -2.0230 -0.8374  1.6435
 2467TIP3    H228893   3.853   5.207  13.566  0.8455  0.3681  0.3853
 2468TIP3   OH228894   6.549   2.589   3.203  0.2604 -0.0634  0.0450
 2468TIP3    H128895   6.462   2.627   3.206 -1.0771 -2.8566 -0.3686
 2468TIP3    H228896   6.540   2.513   3.146  3.4452  0.5866 -1.5547
 2469TIP3   OH228897   5.660   5.578   5.583  0.5939  0.2056  0.0595
 2469TIP3    H128898   5.675   5.661   5.538  2.4081  1.2393  2.3601
 2469TIP3    H228899   5.565   5.565   5.579  0.4686  1.2794 -2.1319
 2470TIP3   OH228900   4.138   0.854   4.530  0.1513 -0.0255  0.1301
 2470TIP3    H128901   4.225   0.887   4.553  0.2228  0.4845 -0.8356
 2470TIP3    H228902   4.129   0.873   4.437 -0.9464 -0.1863  0.1926
 2471TIP3   OH228903   2.574   2.348   3.232  0.2168 -0.3784 -0.8227
 2471TIP3    H128904   2.637   2.357   3.303  0.4832  0.3667 -1.1369
 2471TIP3    H228905   2.622   2.377   3.154 -0.9356  1.7258 -0.8430
 2472TIP3   OH228906   1.671   1.881  14.257 -0.1097  0.5649 -0.2338
 2472TIP3    H128907   1.763   1.880  14.231 -0.5995  0.6640 -2.1253
 2472TIP3    H228908   1.661   1.807  14.317  1.5116  1.5013  1.2799
 2473TIP3   OH228909   0.195   1.294   5.389  0.0990 -0.0868  0.0268
 2473TIP3    H128910   0.229   1.215   5.347 -0.0889 -0.4222  0.4933
 2473TIP3    H228911   0.124   1.263   5.444  0.1125  0.3916  0.3204
 2474TIP3   OH228912   4.081   2.832   0.827 -0.1537  0.4062 -0.4525
 2474TIP3    H128913   4.135   2.910   0.844 -1.9196  1.4014  1.0521
 2474TIP3    H228914   4.091   2.779   0.906 -0.8004  0.2756 -0.4530
 2475TIP3   OH228915   3.169   1.942   0.069  0.6549  0.0376  0.1532
 2475TIP3    H128916   3.247   1.907   0.028 -0.4823 -0.7794 -1.4235
 2475TIP3    H228917   3.129   1.997   0.002 -0.3555  0.0587  0.7541
 2476TIP3   OH228918   6.511   1.896   6.239 -0.1392  0.2068 -0.2796
 2476TIP3    H128919   6.529   1.957   6.168 -1.8556  1.1406  0.0468
 2476TIP3    H228920   6.461   1.946   6.302 -2.2908 -1.6887 -0.3357
 2477TIP3   OH228921   0.013   2.916  11.025  0.1293 -0.3079 -0.8173
 2477TIP3    H128922  -0.025   2.919  11.113 -1.7372 -0.8768 -1.5470
 2477TIP3    H228923   0.107   2.910  11.040  0.2821  3.4352  1.1160
 2478TIP3   OH228924   0.154   4.191  11.684 -0.6809 -0.3139 -0.0418
 2478TIP3    H128925   0.188   4.107  11.655 -3.3350 -0.9177 -1.8423
 2478TIP3    H228926   0.068   4.170  11.721  0.0193  1.2553  2.7838
 2479TIP3   OH228927   3.181   1.028   0.602 -0.1978  0.1858 -0.0331
 2479TIP3    H128928   3.241   0.971   0.650  0.1689 -0.2028 -0.9225
 2479TIP3    H228929   3.120   0.968   0.559 -0.9827  0.5612  0.5297
 2480TIP3   OH228930   4.764   4.368  11.047  0.2917 -0.4314 -0.3558
 2480TIP3    H128931   4.684   4.406  11.010  0.9690  1.1191 -0.2837
 2480TIP3    H228932   4.833   4.394  10.986  1.1680  0.6889  1.0800
 2481TIP3   OH228933   5.923   5.285   0.827 -0.1784  0.0093 -0.0052
 2481TIP3    H128934   5.948   5.258   0.738  0.3334 -1.7712  0.6327
 2481TIP3    H228935   5.854   5.350   0.813  0.1972  0.1093 -1.7094
 2482TIP3   OH228936   0.830   1.943  16.630 -0.0557  0.0254 -0.2628
 2482TIP3    H128937   0.862   2.006  16.566  1.6604  0.5501  1.0395
 2482TIP3    H228938   0.907   1.921  16.682 -1.3011 -0.7309  1.3255
 2483TIP3   OH228939   2.677   5.268  17.011 -0.2508  0.4576 -0.0889
 2483TIP3    H128940   2.651   5.292  16.922  0.6565 -1.9437 -1.0747
 2483TIP3    H228941   2.611   5.309  17.067 -1.5759  0.9832 -1.9338
 2484TIP3   OH228942   3.883   0.256  12.717 -0.3690 -0.2613 -0.7439
 2484TIP3    H128943   3.850   0.304  12.641 -0.0078  2.6682  0.8159
 2484TIP3    H228944   3.978   0.255  12.705 -0.3324 -0.0358 -0.4748
 2485TIP3   OH228945   3.337   5.846   6.505 -0.3102  0.3510  0.0515
 2485TIP3    H128946   3.244   5.861   6.486 -0.0582 -1.0307 -2.7221
 2485TIP3    H228947   3.347   5.751   6.504  0.9048  0.4248  1.7951
 2486TIP3   OH228948   6.785   1.225   5.198  0.1572  0.8703 -0.0096
 2486TIP3    H128949   6.773   1.203   5.106  1.6372  2.1937 -0.5724
 2486TIP3    H228950   6.858   1.170   5.227  1.9150  2.7382 -0.6140
 2487TIP3   OH228951   5.352   1.500   0.285 -0.6227 -0.0524 -0.1183
 2487TIP3    H128952   5.283   1.437   0.306 -0.5964  0.4300  1.5595
 2487TIP3    H228953   5.375   1.540   0.369  1.0620  0.4669 -0.7760
 2488TIP3   OH228954   2.200   6.222  14.988  0.1038 -0.1439  0.3947
 2488TIP3    H128955   2.173   6.168  15.062 -1.7116 -0.4267 -0.4316
 2488TIP3    H228956   2.161   6.180  14.912 -0.4198  1.7109 -0.4155
 2489TIP3   OH228957   3.062   2.610   0.520  0.2615 -0.5027 -0.0035
 2489TIP3    H128958   3.086   2.598   0.612 -1.2172  0.8748  0.6031
 2489TIP3    H228959   3.097   2.696   0.497 -1.6829  0.3784  0.1371
 2490TIP3   OH228960   5.132   3.369  10.561  0.0448 -0.2146 -0.0711
 2490TIP3    H128961   5.074   3.293  10.552 -0.9177  0.4895 -0.0301
 2490TIP3    H228962   5.219   3.332  10.569 -0.4664 -1.3411  0.5550
 2491TIP3   OH228963   4.862   5.758   0.866  0.2650 -0.7490  0.8305
 2491TIP3    H128964   4.824   5.689   0.920  0.3900  0.0195  1.9275
 2491TIP3    H228965   4.956   5.742   0.868  0.2428 -0.9213  0.5498
 2492TIP3   OH228966   3.148   2.553   0.815  0.0576 -0.3346 -0.1068
 2492TIP3    H128967   3.168   2.479   0.873 -1.8032 -0.8048 -0.0225
 2492TIP3    H228968   3.208   2.622   0.844  1.3539 -1.5694  0.2665
 2493TIP3   OH228969   3.171   3.257   4.032 -0.5965  0.2583  0.2143
 2493TIP3    H128970   3.181   3.191   3.964  1.3418  0.3070  0.3865
 2493TIP3    H228971   3.172   3.207   4.114 -1.3077  0.3405  0.2824
 2494TIP3   OH228972   2.310   6.280   4.487  0.4987 -0.0440 -0.0911
 2494TIP3    H128973   2.265   6.361   4.513  1.4016  0.6637 -0.6994
 2494TIP3    H228974   2.364   6.305   4.413  1.2754 -1.0689  0.1123
 2495TIP3   OH228975   1.237   5.979  13.677  0.4310 -0.3797 -0.1900
 2495TIP3    H128976   1.158   5.948  13.722  0.2475  0.0759 -0.1927
 2495TIP3    H228977   1.210   6.061  13.635  0.7279 -0.5603 -0.7376
 2496TIP3   OH228978   6.005   2.335   3.867  0.6738  0.1472  0.1190
 2496TIP3    H128979   6.081   2.277   3.870  0.4266 -0.2192 -0.6020
 2496TIP3    H228980   5.963   2.325   3.953  0.1077 -1.4454 -0.3173
 2497TIP3   OH228981   4.163   3.864  13.588  0.1829 -0.0266 -0.2912
 2497TIP3    H128982   4.097   3.912  13.538 -0.8043 -0.3597  0.6583
 2497TIP3    H228983   4.226   3.931  13.615  0.6767  0.1764 -1.8493
 2498TIP3   OH228984   6.011   0.487  14.160  0.2007 -0.1664  0.4404
 2498TIP3    H128985   5.927   0.443  14.169  0.1274 -0.1070  0.0467
 2498TIP3    H228986   5.993   0.562  14.104  0.6200 -0.4406 -0.0691
 2499TIP3   OH228987   3.076   5.123  14.254 -0.1218 -0.4968 -0.1120
 2499TIP3    H128988   3.073   5.146  14.347 -0.5536 -1.7003  0.1895
 2499TIP3    H228989   3.117   5.198  14.212  0.5783 -0.1626  1.1217
 2500TIP3   OH228990   4.405   3.287   5.578  0.7273  0.2006 -0.5670
 2500TIP3    H128991   4.492   3.328   5.584  0.5237  0.4193  1.6392
 2500TIP3    H228992   4.392   3.245   5.663 -0.6640 -1.2502 -1.4439
 2501TIP3   OH228993   5.861   3.757  12.617  0.2258  0.0822 -0.3407
 2501TIP3    H128994   5.929   3.711  12.568  0.8616  0.5909  0.0526
 2501TIP3    H228995   5.823   3.689  12.674  0.4562 -0.1849 -0.5040
 2502TIP3   OH228996   4.655   4.890   2.772 -0.2380  0.4297  0.3880
 2502TIP3    H128997   4.577   4.938   2.798  0.5953  1.8541  0.3775
 2502TIP3    H228998   4.717   4.958   2.746  1.3366 -0.6050  1.2960
 2503TIP3   OH228999   4.791   5.307  14.696 -0.4998  0.1042 -0.1310
 2503TIP3    H129000   4.782   5.240  14.764 -0.5761 -0.1944 -0.4324
 2503TIP3    H229001   4.884   5.329  14.696 -0.6096  0.6045  0.5384
 2504TIP3   OH229002   1.765   4.141   4.198 -0.2962 -0.3461 -0.1769
 2504TIP3    H129003   1.747   4.056   4.238  2.1090 -0.5673  0.6508
 2504TIP3    H229004   1.846   4.128   4.148 -1.0628  0.9416 -1.8567
 2505TIP3   OH229005   4.871   3.400  16.226  0.0832 -0.2126  0.0298
 2505TIP3    H129006   4.865   3.425  16.318  0.8635  0.9640 -0.2157
 2505TIP3    H229007   4.855   3.305  16.226 -1.7647  0.0459  1.1487
 2506TIP3   OH229008   6.191   2.925   5.836 -0.3618  0.7235 -0.0154
 2506TIP3    H129009   6.259   2.963   5.781 -0.1847  1.4103  0.6551
 2506TIP3    H229010   6.201   2.969   5.921 -1.1828  0.3201  0.3070
 2507TIP3   OH229011   1.048   5.621  13.710 -0.1583  0.0218 -0.0266
 2507TIP3    H129012   0.971   5.574  13.676 -0.7846  0.2008  1.0685
 2507TIP3    H229013   1.025   5.714  13.703 -0.1228  0.0727  0.4522
 2508TIP3   OH229014   5.123   0.090  11.641  0.6004  0.4827  0.5735
 2508TIP3    H129015   5.166   0.172  11.614  0.9056  0.1796  0.1129
 2508TIP3    H229016   5.039   0.118  11.677  1.1830  1.0875  1.4934
 2509TIP3   OH229017   3.343   4.128  15.961 -0.2044 -0.0742 -0.6620
 2509TIP3    H129018   3.346   4.218  15.992  1.0709 -0.3923  0.2140
 2509TIP3    H229019   3.401   4.128  15.885 -0.9017  0.0196 -1.2077
 2510TIP3   OH229020   3.934   1.802  14.998  0.6184 -0.1651  0.4131
 2510TIP3    H129021   4.026   1.827  14.987  0.8886 -1.7794 -1.4713
 2510TIP3    H229022   3.891   1.834  14.919  0.0117 -1.3167  0.2589
 2511TIP3   OH229023   4.058   0.787   2.418 -0.4950  0.3428  0.3781
 2511TIP3    H129024   4.000   0.861   2.437 -0.7272 -0.0079  1.0632
 2511TIP3    H229025   4.083   0.800   2.326 -1.0778  0.8966  0.2846
 2512TIP3   OH229026   6.841   2.703   1.051 -0.0837  0.0348  0.2978
 2512TIP3    H129027   6.844   2.719   0.957  0.7107  3.0665  0.7373
 2512TIP3    H229028   6.748   2.692   1.071 -0.3895  0.7887 -0.6554
 2513TIP3   OH229029   1.674   0.088   5.061 -0.3527 -0.3769  0.3383
 2513TIP3    H129030   1.690  -0.004   5.082  1.7588  0.1593  1.4024
 2513TIP3    H229031   1.717   0.100   4.976  1.2654  0.0392  1.1578
 2514TIP3   OH229032   1.337   5.726  11.292  0.9314  0.3076  0.2571
 2514TIP3    H129033   1.387   5.744  11.213 -1.4727  1.9576 -1.0000
 2514TIP3    H229034   1.375   5.646  11.327  1.3346 -1.1907 -3.2506
 2515TIP3   OH229035   4.691   5.102  13.237  0.2602 -0.2372  0.3469
 2515TIP3    H129036   4.758   5.157  13.276  0.1428 -0.3149  0.6553
 2515TIP3    H229037   4.612   5.119  13.287 -0.5156  1.4647 -1.3551
 2516TIP3   OH229038   3.044   4.121   2.617 -0.5035  0.2058  0.0053
 2516TIP3    H129039   3.112   4.064   2.582 -0.2195  0.2815  0.4169
 2516TIP3    H229040   3.048   4.200   2.563  1.4403  1.2496  1.5412
 2517TIP3   OH229041   2.785   2.326  14.895  0.0838 -0.0969 -0.2421
 2517TIP3    H129042   2.785   2.299  14.987  0.1310  0.2553 -0.1351
 2517TIP3    H229043   2.820   2.251  14.848  2.3732  0.5404  0.2849
 2518TIP3   OH229044   0.486   2.883  14.735 -0.1211  0.3218 -0.3883
 2518TIP3    H129045   0.565   2.925  14.768  2.2664 -3.6878 -0.4690
 2518TIP3    H229046   0.419   2.904  14.800  1.3703  2.4212  0.5889
 2519TIP3   OH229047   3.411   3.260   1.641  0.5122 -0.5285 -0.4909
 2519TIP3    H129048   3.335   3.274   1.698  0.7553  1.1980 -0.5350
 2519TIP3    H229049   3.479   3.318   1.677  1.2377 -0.7214 -1.5082
 2520TIP3   OH229050   3.898   2.158   2.729  1.0053 -0.6462  0.5950
 2520TIP3    H129051   3.880   2.249   2.753  1.0912 -0.8051  1.2838
 2520TIP3    H229052   3.811   2.119   2.717  0.9763 -0.3528 -0.1843
 2521TIP3   OH229053   1.701   5.264  11.806 -0.1242  0.2316 -0.0017
 2521TIP3    H129054   1.691   5.174  11.837 -1.6147  0.6219  0.7626
 2521TIP3    H229055   1.681   5.318  11.883  1.2109  1.2292 -0.3222
 2522TIP3   OH229056   3.159   5.093   3.076  0.2851 -0.2818 -0.7841
 2522TIP3    H129057   3.100   5.063   3.006 -0.6030 -1.7131  0.4950
 2522TIP3    H229058   3.160   5.188   3.066 -0.9662 -0.3316 -1.8564
 2523TIP3   OH229059   2.727   6.648  16.533  0.2675  0.4138  0.0232
 2523TIP3    H129060   2.643   6.655  16.578  0.3705 -2.0626  0.7436
 2523TIP3    H229061   2.708   6.594  16.456  1.1541 -0.0567  0.1242
 2524TIP3   OH229062   6.720   2.270  15.051 -0.1402 -0.1748 -0.3961
 2524TIP3    H129063   6.715   2.361  15.023  0.8083  0.6213  1.7885
 2524TIP3    H229064   6.677   2.221  14.981  1.1970  1.6929 -2.6588
 2525TIP3   OH229065   4.767   0.844  12.652 -0.0548  0.3542 -0.3827
 2525TIP3    H129066   4.721   0.760  12.648  0.6568 -0.1282  0.8492
 2525TIP3    H229067   4.818   0.839  12.733  2.2495  0.7954 -1.7168
 2526TIP3   OH229068   6.701   2.004   4.339 -0.5926 -0.1675 -0.0696
 2526TIP3    H129069   6.765   1.969   4.278  0.3400 -0.9404  1.3168
 2526TIP3    H229070   6.649   2.065   4.286  0.1679 -0.8128 -1.6208
 2527TIP3   OH229071   1.372   2.328  13.544  0.0679 -0.1965 -0.2752
 2527TIP3    H129072   1.455   2.289  13.571  0.2411 -2.3891 -3.4182
 2527TIP3    H229073   1.307   2.291  13.603  0.9464 -0.9616  0.2306
 2528TIP3   OH229074   6.610   4.013  16.157  0.7718 -0.6115 -0.1441
 2528TIP3    H129075   6.644   4.046  16.074 -2.1504 -1.1255 -1.6737
 2528TIP3    H229076   6.582   3.924  16.138 -1.6281 -0.1312  0.8489
 2529TIP3   OH229077   5.707   5.009  12.734  0.1574 -0.0342 -0.1342
 2529TIP3    H129078   5.633   5.064  12.759  0.5806  1.1061 -1.2773
 2529TIP3    H229079   5.768   5.069  12.691  1.0616 -1.2372 -0.5929
 2530TIP3   OH229080   1.815   3.459  14.764  0.3790  0.9887  0.5594
 2530TIP3    H129081   1.725   3.459  14.733  0.6859  0.1908 -0.4075
 2530TIP3    H229082   1.866   3.424  14.691  1.6400  2.4755  0.6608
 2531TIP3   OH229083   6.438   6.491   6.316 -0.1741 -0.0218 -0.1947
 2531TIP3    H129084   6.355   6.465   6.357 -0.1508  0.3496  0.1015
 2531TIP3    H229085   6.504   6.470   6.382 -0.3093  2.3891  0.8402
 2532TIP3   OH229086   2.310   0.151   0.187  0.6939  0.3896  0.6403
 2532TIP3    H129087   2.393   0.199   0.177  1.0214  0.0592  1.6468
 2532TIP3    H229088   2.330   0.063   0.156  0.4845  0.5219  0.1197
 2533TIP3   OH229089   2.214   5.586   0.169  0.0065 -0.6112  0.3372
 2533TIP3    H129090   2.273   5.566   0.241 -1.2125 -3.0238  0.7669
 2533TIP3    H229091   2.144   5.638   0.209 -1.2240 -2.8310  1.2436
 2534TIP3   OH229092   2.588   3.661  12.476  0.1325 -0.3823  0.3326
 2534TIP3    H129093   2.513   3.621  12.432 -0.0611 -1.7580  1.8158
 2534TIP3    H229094   2.657   3.596  12.469  0.3552 -0.2591  1.3035
 2535TIP3   OH229095   1.505   4.046   1.997 -0.0937  0.1728  0.1796
 2535TIP3    H129096   1.448   3.975   1.967  0.5442  0.2202 -1.2477
 2535TIP3    H229097   1.529   4.092   1.917  1.6276  0.3880  0.7730
 2536TIP3   OH229098   3.311   1.425  16.702  0.4860 -0.8204  0.3345
 2536TIP3    H129099   3.405   1.420  16.721  0.0701 -0.8454  2.6592
 2536TIP3    H229100   3.295   1.516  16.678  1.2201 -1.0125 -0.9841
 2537TIP3   OH229101   4.180   2.704  12.016 -0.4409  0.2513  0.6772
 2537TIP3    H129102   4.148   2.671  12.100 -1.6133 -1.3204 -0.3341
 2537TIP3    H229103   4.268   2.668  12.008 -0.5941 -0.1821  0.9228
 2538TIP3   OH229104   6.503   1.692  10.188  1.1027 -0.4227 -0.5049
 2538TIP3    H129105   6.561   1.632  10.235  0.6662 -1.6623 -1.4916
 2538TIP3    H229106   6.562   1.744  10.133  1.4244 -0.4696 -0.2064
 2539TIP3   OH229107   5.677   3.998   3.344 -0.2622  0.4952 -0.1634
 2539TIP3    H129108   5.707   4.045   3.422 -1.5282 -0.6011  1.0484
 2539TIP3    H229109   5.700   4.055   3.271  1.2878  1.4012  0.9785
 2540TIP3   OH229110   0.182   2.678  10.830 -0.1114  0.5847 -0.0478
 2540TIP3    H129111   0.217   2.758  10.870  2.0004 -0.3136  0.0818
 2540TIP3    H229112   0.260   2.631  10.800 -1.0542 -2.4343  1.7982
 2541TIP3   OH229113   2.782   5.264  14.762  0.1037 -0.2201  0.2422
 2541TIP3    H129114   2.861   5.245  14.711 -0.1358  0.2394 -0.3047
 2541TIP3    H229115   2.815   5.298  14.845  0.4736  0.3912 -0.1553
 2542TIP3   OH229116   6.349   0.407  13.541  0.1290 -0.4954  0.1398
 2542TIP3    H129117   6.368   0.488  13.495  0.1649 -0.5855 -0.0058
 2542TIP3    H229118   6.394   0.339  13.491  1.3471 -0.4264  1.0964
 2543TIP3   OH229119   6.602   1.525  14.077 -0.6542  0.1277  0.7064
 2543TIP3    H129120   6.692   1.555  14.069 -1.1550  1.7971  1.0936
 2543TIP3    H229121   6.549   1.600  14.053 -1.9952 -1.4357 -1.6918
 2544TIP3   OH229122   1.591   5.848  16.787 -0.2577 -0.0391 -0.3869
 2544TIP3    H129123   1.506   5.813  16.814 -0.1974 -0.8419 -1.1884
 2544TIP3    H229124   1.639   5.772  16.754  0.2747  0.6137 -1.1706
 2545TIP3   OH229125   6.178   3.214   2.649  0.0861  0.5003  0.0754
 2545TIP3    H129126   6.243   3.269   2.693  0.1720  0.7262 -0.3285
 2545TIP3    H229127   6.128   3.274   2.596  0.3058  0.1619 -0.5232
 2546TIP3   OH229128   0.127   6.418   5.942 -0.0013  0.6564  0.0487
 2546TIP3    H129129   0.213   6.460   5.930  0.8714 -0.6322  1.4736
 2546TIP3    H229130   0.143   6.347   6.004 -2.1385  0.4387  0.4327
 2547TIP3   OH229131   6.378   1.768   0.849  0.1626  0.4198 -0.2853
 2547TIP3    H129132   6.377   1.712   0.771 -2.0133  1.0471 -0.7816
 2547TIP3    H229133   6.469   1.765   0.879  0.6188 -1.4995 -1.6294
 2548TIP3   OH229134   6.794   0.071   3.339  0.5262  0.1660  0.0017
 2548TIP3    H129135   6.824   0.161   3.350 -1.4397  0.8919 -0.1841
 2548TIP3    H229136   6.865   0.018   3.376  2.0388  1.7244 -0.5059
 2549TIP3   OH229137   5.562   0.710  15.772 -0.3385 -0.2263 -0.8298
 2549TIP3    H129138   5.497   0.680  15.835  0.7803 -0.5205  0.2118
 2549TIP3    H229139   5.542   0.660  15.692 -1.2491 -0.4522 -0.4786
 2550TIP3   OH229140   3.979   2.100   3.541 -0.5532  0.3182  0.1910
 2550TIP3    H129141   4.022   2.059   3.467  1.5292  0.4451  1.2556
 2550TIP3    H229142   3.886   2.097   3.520 -0.0196  0.5391 -2.4845
 2551TIP3   OH229143   3.357   5.089  15.062 -0.1138 -0.1769 -0.0429
 2551TIP3    H129144   3.361   5.091  14.967 -0.2221  0.3546 -0.0364
 2551TIP3    H229145   3.265   5.074  15.082  0.1894 -2.3850 -0.0417
 2552TIP3   OH229146   3.050   5.639   4.204 -0.0526 -0.1653 -0.2888
 2552TIP3    H129147   3.048   5.586   4.125 -0.5906 -1.1400  0.3675
 2552TIP3    H229148   3.093   5.720   4.177  0.5230 -0.8136 -1.3727
 2553TIP3   OH229149   4.508   5.459   6.470  0.8884  0.1049  0.2652
 2553TIP3    H129150   4.554   5.420   6.544 -0.9753 -1.9659  0.4471
 2553TIP3    H229151   4.431   5.502   6.509  1.1837  1.1655 -0.2720
 2554TIP3   OH229152   1.148   1.208   1.449  0.0436 -0.4613  0.0020
 2554TIP3    H129153   1.132   1.301   1.437  2.0956  0.1403  1.3990
 2554TIP3    H229154   1.091   1.184   1.523 -0.1604 -0.2116 -0.0718
 2555TIP3   OH229155   5.992   2.741  13.519 -0.6167 -0.2119  0.6375
 2555TIP3    H129156   6.020   2.731  13.610 -0.9349  0.5084  0.8182
 2555TIP3    H229157   5.921   2.805  13.522 -2.2894 -1.9360  0.1959
 2556TIP3   OH229158   1.608   4.423  13.641 -0.5219 -0.3648 -0.6834
 2556TIP3    H129159   1.542   4.417  13.572  0.0346 -2.4492 -1.1237
 2556TIP3    H229160   1.677   4.478  13.605 -0.8780 -0.2768 -1.2278
 2557TIP3   OH229161   1.549   1.296  16.982 -0.1328 -0.0833  0.1961
 2557TIP3    H129162   1.578   1.387  16.985 -2.1459  0.6467 -0.7069
 2557TIP3    H229163   1.624   1.248  16.949  1.6270  0.9032  2.5006
 2558TIP3   OH229164   4.377   2.679   2.395  0.1348  0.7213  0.0471
 2558TIP3    H129165   4.400   2.735   2.321  1.1552  1.8316  1.1465
 2558TIP3    H229166   4.299   2.633   2.367 -0.8572  2.8294 -0.8886
 2559TIP3   OH229167   2.445   6.462  15.561  0.4640  0.1438  0.2280
 2559TIP3    H129168   2.387   6.495  15.630  0.7201 -0.9642  1.0014
 2559TIP3    H229169   2.533   6.473  15.596  0.6814  0.7864 -0.4870
 2560TIP3   OH229170   6.141   4.368  11.436 -0.7166 -0.3587  0.2275
 2560TIP3    H129171   6.128   4.400  11.347 -1.7565 -1.7881 -0.1749
 2560TIP3    H229172   6.076   4.416  11.488 -0.7999 -0.2558  0.0283
 2561TIP3   OH229173   1.463   1.107   4.130  0.1014 -0.8075 -0.1336
 2561TIP3    H129174   1.375   1.146   4.128  0.4643  0.0871  0.7384
 2561TIP3    H229175   1.451   1.025   4.179 -0.4477 -1.2713 -1.0044
 2562TIP3   OH229176   1.984   5.188  14.860 -0.0168  0.4442  0.6025
 2562TIP3    H129177   1.909   5.150  14.907  1.5873 -1.2423  1.9527
 2562TIP3    H229178   2.004   5.268  14.908 -1.6478  1.5911 -0.5180
 2563TIP3   OH229179   4.389   2.916  12.357  0.2156  0.0162 -0.1104
 2563TIP3    H129180   4.414   2.894  12.446  1.7287  0.2809 -0.4448
 2563TIP3    H229181   4.450   2.868  12.302  0.5296  1.3023 -0.9433
 2564TIP3   OH229182   6.533   2.223   1.862 -0.0003  0.3915 -0.3114
 2564TIP3    H129183   6.462   2.274   1.824 -1.2015  0.5401  1.9796
 2564TIP3    H229184   6.597   2.288   1.889  0.1875  0.3813 -0.7133
 2565TIP3   OH229185   6.362   4.409  13.537 -0.1254  0.2277  0.3312
 2565TIP3    H129186   6.336   4.455  13.616 -0.9600 -0.5627  0.5424
 2565TIP3    H229187   6.283   4.409  13.482  0.3181  0.4042 -0.3215
 2566TIP3   OH229188   4.577   6.704  12.186 -0.0317 -0.2876  0.8256
 2566TIP3    H129189   4.527   6.768  12.135  0.5871  0.7148  1.4255
 2566TIP3    H229190   4.642   6.757  12.232  0.8052 -1.4236  0.9823
 2567TIP3   OH229191   1.583   1.677   2.258  0.0191 -0.1844 -1.0375
 2567TIP3    H129192   1.547   1.589   2.248 -0.5879 -0.0699  0.0633
 2567TIP3    H229193   1.507   1.736   2.253 -0.0571  0.0448  1.4576
 2568TIP3   OH229194   4.005   5.841   2.731 -0.4240  0.4379  0.4341
 2568TIP3    H129195   3.938   5.900   2.696 -0.3880 -0.9925 -2.3380
 2568TIP3    H229196   4.088   5.880   2.704 -0.2839  0.4705  0.9072
 2569TIP3   OH229197   3.263   2.442  14.863 -0.0586 -0.0672 -0.2005
 2569TIP3    H129198   3.228   2.403  14.943  0.6048  0.8263  0.5509
 2569TIP3    H229199   3.329   2.504  14.894 -0.4057  0.9358 -1.4095
 2570TIP3   OH229200   5.806   2.575   6.001 -0.0504 -0.2892 -0.4260
 2570TIP3    H129201   5.729   2.562   6.056 -0.9985 -0.0239 -1.6494
 2570TIP3    H229202   5.869   2.619   6.058 -1.1520  0.3492  0.3360
 2571TIP3   OH229203   2.541   4.809  12.637  0.6587 -0.0926  0.4116
 2571TIP3    H129204   2.475   4.782  12.572  1.5692 -0.7696 -0.2572
 2571TIP3    H229205   2.587   4.728  12.658  1.3195  0.3873  0.8354
 2572TIP3   OH229206   5.899   1.873  11.126  0.1837  0.5980 -0.0728
 2572TIP3    H129207   5.975   1.836  11.172 -0.4455  1.3377  1.6485
 2572TIP3    H229208   5.883   1.813  11.054  2.1260  0.1761 -0.2105
 2573TIP3   OH229209   5.382   5.628  13.448 -0.0132 -0.4258  0.1952
 2573TIP3    H129210   5.466   5.669  13.428 -0.6443  0.5906 -0.4558
 2573TIP3    H229211   5.329   5.642  13.369 -0.7604 -1.1624  0.5425
 2574TIP3   OH229212   6.152   6.831  13.913  0.0726 -0.0157 -0.0096
 2574TIP3    H129213   6.225   6.860  13.858 -0.7801 -1.1838 -1.8719
 2574TIP3    H229214   6.094   6.907  13.919 -0.1866 -0.0774 -1.4207
 2575TIP3   OH229215   5.922   4.051   0.257 -0.7510 -0.5898 -0.2018
 2575TIP3    H129216   5.857   4.040   0.326  0.3833 -3.4053  0.5697
 2575TIP3    H229217   6.002   4.078   0.302 -0.7923  0.7069 -0.8612
 2576TIP3   OH229218   6.567   4.327  10.940 -0.8041 -0.0333 -0.1699
 2576TIP3    H129219   6.555   4.412  10.897  0.5616 -0.4564 -1.4727
 2576TIP3    H229220   6.485   4.280  10.922 -0.5720  0.0883 -1.7049
 2577TIP3   OH229221   6.648   5.337   6.482 -0.0857 -0.0610  0.0520
 2577TIP3    H129222   6.624   5.427   6.504  3.6024  0.5646  2.5588
 2577TIP3    H229223   6.618   5.285   6.556  1.4780 -0.0890  0.7094
 2578TIP3   OH229224   5.080   5.959  16.412 -0.3673 -0.3602  0.7881
 2578TIP3    H129225   4.999   6.001  16.441 -0.4935 -0.0710  0.0242
 2578TIP3    H229226   5.061   5.865  16.418 -0.5737 -0.3030  1.1060
 2579TIP3   OH229227   0.270   1.847  10.996  0.1654 -0.8299 -0.2974
 2579TIP3    H129228   0.241   1.935  11.019 -0.3278 -1.0759  0.0214
 2579TIP3    H229229   0.287   1.851  10.901 -2.3923 -1.0877 -0.8199
 2580TIP3   OH229230   6.238   1.479  11.153 -0.2606  0.5384 -0.4427
 2580TIP3    H129231   6.312   1.534  11.178  1.3261 -1.1011 -1.3635
 2580TIP3    H229232   6.275   1.412  11.096 -2.2235 -1.1489  0.1385
 2581TIP3   OH229233   1.478   0.901  16.062  0.9119  0.1069  0.3497
 2581TIP3    H129234   1.400   0.890  16.008  0.8593  3.6146 -0.4887
 2581TIP3    H229235   1.449   0.878  16.150 -0.3662 -0.9547 -0.3021
 2582TIP3   OH229236   5.973   4.651   5.303  0.7670 -0.2912  0.8952
 2582TIP3    H129237   5.986   4.570   5.253  0.3394  0.2262 -0.0699
 2582TIP3    H229238   5.992   4.721   5.241 -2.0670  0.4309  0.7086
 2583TIP3   OH229239   0.522   4.425  14.451  0.3398  0.4354  0.1874
 2583TIP3    H129240   0.439   4.411  14.406 -0.9331  3.0055  1.4777
 2583TIP3    H229241   0.588   4.385  14.394 -1.6340 -0.5231 -1.5520
 2584TIP3   OH229242   2.503   4.840   3.151 -0.2165 -0.3115  0.4550
 2584TIP3    H129243   2.577   4.880   3.106 -0.7991  0.1926 -0.0632
 2584TIP3    H229244   2.536   4.821   3.239  0.1906  0.9696  0.5981
 2585TIP3   OH229245   5.961   3.544  16.735  0.0998 -0.0908  0.1373
 2585TIP3    H129246   5.915   3.557  16.818 -2.4929  1.2839 -1.3938
 2585TIP3    H229247   5.983   3.632  16.705  0.9724 -0.5679 -0.6810
 2586TIP3   OH229248   5.215   3.102  11.568  0.8193 -0.1660 -0.4956
 2586TIP3    H129249   5.213   3.141  11.481  1.9516  2.8145  0.6961
 2586TIP3    H229250   5.273   3.159  11.619 -0.3407 -1.3775  2.4027
 2587TIP3   OH229251   0.408   4.847   0.948 -0.7686 -0.4874 -0.5083
 2587TIP3    H129252   0.489   4.817   0.906 -1.3084 -0.0168 -1.9444
 2587TIP3    H229253   0.424   4.837   1.041  1.7707  1.6487 -0.6173
 2588TIP3   OH229254   5.769   2.699  16.950 -0.7544 -0.2837  0.0435
 2588TIP3    H129255   5.694   2.643  16.968 -0.2573 -0.3132  2.3374
 2588TIP3    H229256   5.739   2.787  16.970  0.0273 -0.3950  1.9929
 2589TIP3   OH229257   6.282   3.250   3.280 -0.1149 -0.5179  0.1557
 2589TIP3    H129258   6.261   3.277   3.369 -1.5132  0.4730 -0.4515
 2589TIP3    H229259   6.201   3.263   3.230  0.8831 -0.1673 -1.4693
 2590TIP3   OH229260   5.523   4.792   4.369 -0.2051  0.2147 -0.2318
 2590TIP3    H129261   5.461   4.865   4.362  0.5157  0.8992  0.2622
 2590TIP3    H229262   5.571   4.793   4.287  1.5801  1.9975  0.7431
 2591TIP3   OH229263   3.698   6.291   5.562  0.0802  0.7193  0.0600
 2591TIP3    H129264   3.747   6.369   5.587  1.1755  0.1280 -0.1928
 2591TIP3    H229265   3.738   6.220   5.611 -0.5670  0.2259 -0.1085
 2592TIP3   OH229266   3.294   4.803  11.771 -0.3994  0.7735  0.2112
 2592TIP3    H129267   3.319   4.893  11.792 -0.2674  0.9802 -0.7993
 2592TIP3    H229268   3.316   4.792  11.679  0.2676 -0.5348  0.4930
 2593TIP3   OH229269   5.117   0.119  16.425 -0.1363  0.3962  0.1945
 2593TIP3    H129270   5.072   0.043  16.461  1.7887 -1.2259 -0.6354
 2593TIP3    H229271   5.085   0.125  16.335 -1.0651  1.2519  0.5627
 2594TIP3   OH229272   4.507   2.938   3.056 -0.4674 -0.2676  0.0500
 2594TIP3    H129273   4.545   2.929   2.968  1.0835 -0.1002  0.6811
 2594TIP3    H229274   4.412   2.935   3.041 -0.2616 -2.9260 -1.3481
 2595TIP3   OH229275   6.360   1.865   4.089  0.7801 -0.4282 -0.0412
 2595TIP3    H129276   6.352   1.816   4.171  2.1386  0.6553  0.7665
 2595TIP3    H229277   6.333   1.802   4.022 -1.6882 -0.9171  1.2998
 2596TIP3   OH229278   2.186   5.637   0.904  0.3590  0.0480 -0.0494
 2596TIP3    H129279   2.275   5.656   0.933  0.8934 -3.8619  1.5080
 2596TIP3    H229280   2.154   5.573   0.967 -2.6678 -0.5652 -2.0064
 2597TIP3   OH229281   1.485   6.674   0.771 -0.0056 -0.2122  0.1290
 2597TIP3    H129282   1.549   6.708   0.709  0.1682 -1.6657 -0.5143
 2597TIP3    H229283   1.537   6.642   0.845 -0.1010 -0.1420  0.2287
 2598TIP3   OH229284   4.602   2.291   2.661 -0.0395 -0.5609  0.3700
 2598TIP3    H129285   4.678   2.338   2.694 -0.2104 -1.2832  1.9063
 2598TIP3    H229286   4.589   2.325   2.573 -0.2143  2.3432  1.3868
 2599TIP3   OH229287   6.082   2.693  14.482 -0.4163 -0.2624  0.2086
 2599TIP3    H129288   6.104   2.783  14.459  0.1998 -0.7535 -1.2693
 2599TIP3    H229289   6.011   2.701  14.546  0.0400  1.2699  0.5731
 2600TIP3   OH229290   0.702   1.105  13.157  0.3622 -0.2172  0.1167
 2600TIP3    H129291   0.612   1.129  13.178  0.4376 -0.0809  0.2850
 2600TIP3    H229292   0.701   1.091  13.062 -0.0483 -1.1518  0.2505
 2601TIP3   OH229293   3.196   6.339  15.375 -0.3767 -0.5205  0.3339
 2601TIP3    H129294   3.223   6.306  15.460 -1.0693 -0.0126  0.7706
 2601TIP3    H229295   3.109   6.377  15.391 -1.0408 -1.4795 -0.8472
 2602TIP3   OH229296   6.713   1.637   4.235 -0.1472 -0.4583  0.9666
 2602TIP3    H129297   6.630   1.667   4.271 -0.8196 -0.3799 -0.5857
 2602TIP3    H229298   6.766   1.717   4.228 -1.2700  0.1669 -1.4132
 2603TIP3   OH229299   4.040   2.857   2.407 -0.1741 -0.5955  0.1868
 2603TIP3    H129300   3.969   2.904   2.364  1.2705  0.4104 -1.2306
 2603TIP3    H229301   4.008   2.841   2.496 -1.8687  0.4430 -0.1944
 2604TIP3   OH229302   4.524   0.729   4.208 -0.3079 -0.4706  0.1551
 2604TIP3    H129303   4.603   0.693   4.167  0.7259  0.4189  1.3013
 2604TIP3    H229304   4.557   0.787   4.277 -1.9524 -1.9413  2.3073
 2605TIP3   OH229305   3.008   5.342  12.919  0.2246 -0.1366 -0.4056
 2605TIP3    H129306   3.085   5.379  12.876  0.7272 -0.6279  0.0556
 2605TIP3    H229307   2.954   5.418  12.941  1.3078  0.3510  0.6678
 2606TIP3   OH229308   1.483   6.748   1.457 -0.6765  0.0266 -0.1293
 2606TIP3    H129309   1.427   6.677   1.486 -1.7514  1.0249  0.3228
 2606TIP3    H229310   1.442   6.827   1.491 -0.6701  1.0669 -2.3324
 2607TIP3   OH229311   1.359   2.266   0.797 -0.7661 -0.1004 -0.0922
 2607TIP3    H129312   1.437   2.211   0.800 -0.1562  0.7962  1.3531
 2607TIP3    H229313   1.387   2.345   0.751 -0.7091  0.3534  0.6985
 2608TIP3   OH229314   5.117   4.657  14.372  0.4311 -0.3936 -0.8418
 2608TIP3    H129315   5.164   4.596  14.429 -0.5779 -0.1643  0.2744
 2608TIP3    H229316   5.110   4.610  14.289 -0.0883 -1.7176 -0.0915
 2609TIP3   OH229317   2.000   4.159  13.220 -0.1979 -0.1249  0.1087
 2609TIP3    H129318   2.007   4.198  13.307  1.7551  0.9997 -0.5000
 2609TIP3    H229319   2.033   4.226  13.161  2.0586 -2.1790 -1.1434
 2610TIP3   OH229320   4.843   5.700  16.110 -0.4940 -0.1820 -0.3831
 2610TIP3    H129321   4.794   5.624  16.140  0.4887 -0.3949  0.7651
 2610TIP3    H229322   4.900   5.723  16.184  1.4130 -0.2053 -1.7531
 2611TIP3   OH229323   1.964   0.015  15.912 -0.3146  0.2441 -0.5294
 2611TIP3    H129324   2.051  -0.021  15.927 -0.8782  0.0452  3.0903
 2611TIP3    H229325   1.973   0.109  15.930 -0.5381  0.5950 -2.0323
 2612TIP3   OH229326   6.431   1.993  13.446  0.4216  0.5746 -0.3147
 2612TIP3    H129327   6.422   2.088  13.454 -0.7806  0.3873  1.0312
 2612TIP3    H229328   6.457   1.965  13.534  1.4805 -0.2939 -0.8820
 2613TIP3   OH229329   3.855   2.393   1.783  0.4432  0.4757  0.9653
 2613TIP3    H129330   3.941   2.361   1.757  0.5360  0.3831  1.3926
 2613TIP3    H229331   3.872   2.473   1.831  0.2160  1.1313 -0.0192
 2614TIP3   OH229332   6.277   3.982   0.285 -0.1283  0.4197 -0.3019
 2614TIP3    H129333   6.338   3.925   0.332 -0.7339 -0.3045 -0.3778
 2614TIP3    H229334   6.237   4.036   0.353 -0.5861 -0.2323 -0.0475
 2615TIP3   OH229335   1.644   5.512  14.935  0.1751 -0.3227 -0.1985
 2615TIP3    H129336   1.646   5.481  15.025 -1.4594  0.0536 -0.0073
 2615TIP3    H229337   1.572   5.464  14.894  0.9928 -0.6086 -1.3637
 2616TIP3   OH229338   0.639   5.226  13.293 -0.4425  0.2763  0.0818
 2616TIP3    H129339   0.653   5.267  13.207 -0.7103  0.7400  0.2546
 2616TIP3    H229340   0.549   5.249  13.316 -1.9975 -3.4547 -1.4612
 2617TIP3   OH229341   3.188   3.618   1.870 -0.3811  0.1457  0.5949
 2617TIP3    H129342   3.242   3.660   1.937  0.3888 -0.7094  0.5210
 2617TIP3    H229343   3.202   3.525   1.882 -0.5101 -0.0344 -0.5317
 2618TIP3   OH229344   0.692   1.594  12.222 -0.5829  0.3604 -0.1047
 2618TIP3    H129345   0.639   1.603  12.143  0.7837  1.1817 -0.9604
 2618TIP3    H229346   0.773   1.640  12.203 -0.4583  1.1558  2.0179
 2619TIP3   OH229347   6.573   6.046   2.995 -0.4555 -0.1750 -0.5345
 2619TIP3    H129348   6.533   6.050   3.082 -0.2751  1.2070 -0.5002
 2619TIP3    H229349   6.648   5.988   3.007 -1.1643 -1.0286 -0.0855
 2620TIP3   OH229350   4.460   4.882  11.068  0.5318  0.2463 -0.0812
 2620TIP3    H129351   4.423   4.801  11.035 -1.8543  1.1201  0.2306
 2620TIP3    H229352   4.420   4.951  11.014  0.8678  1.3423  1.0096
 2621TIP3   OH229353   3.530   6.105   2.408 -0.6724  0.3524  0.6727
 2621TIP3    H129354   3.524   6.025   2.459 -2.4273 -0.9873 -1.4515
 2621TIP3    H229355   3.614   6.144   2.433 -0.5615 -1.2086  3.0245
 2622TIP3   OH229356   3.499   2.091   3.747 -0.0128  0.0503 -0.2542
 2622TIP3    H129357   3.556   2.138   3.808 -0.7665  1.2660 -0.4606
 2622TIP3    H229358   3.556   2.067   3.674  0.4924  0.1932  0.0909
 2623TIP3   OH229359   6.104   6.018   3.519 -0.5036 -0.3500  0.3698
 2623TIP3    H129360   6.066   5.966   3.590  2.1664 -0.1229  2.0903
 2623TIP3    H229361   6.029   6.062   3.479 -2.3712 -2.2736  1.5261
 2624TIP3   OH229362   5.661   0.795   4.294  0.5166  0.5046 -0.0777
 2624TIP3    H129363   5.737   0.759   4.248 -0.3855 -1.6091 -0.0228
 2624TIP3    H229364   5.586   0.753   4.252 -0.4993  0.9066  1.2694
 2625TIP3   OH229365   1.044   5.966   4.647 -0.2663  0.0635 -0.3705
 2625TIP3    H129366   1.031   6.060   4.655  0.2922  0.2979 -1.8905
 2625TIP3    H229367   1.098   5.942   4.722 -0.9148  0.8247  0.3663
 2626TIP3   OH229368   1.649   6.828  10.373 -0.1571 -0.5624  0.1105
 2626TIP3    H129369   1.693   6.861  10.294  0.8588 -0.0853  0.8508
 2626TIP3    H229370   1.641   6.904  10.430  1.1366 -1.2995  1.3569
 2627TIP3   OH229371   6.643   2.833   2.644  0.2275  0.1566 -0.6830
 2627TIP3    H129372   6.698   2.805   2.717  0.9824  2.4106 -0.2985
 2627TIP3    H229373   6.705   2.851   2.573 -0.1755  0.9724 -0.8417
 2628TIP3   OH229374   2.775   0.137  15.251  0.1670  0.7857  0.4481
 2628TIP3    H129375   2.835   0.091  15.191 -0.5258  0.0579  0.2894
 2628TIP3    H229376   2.719   0.188  15.193 -1.8823 -1.5277  0.2350
 2629TIP3   OH229377   2.126   6.508  15.640 -0.1837 -0.0224  0.0993
 2629TIP3    H129378   2.104   6.416  15.656 -1.2501  0.2829  0.5133
 2629TIP3    H229379   2.165   6.538  15.722  1.6957 -0.5116 -0.5717
 2630TIP3   OH229380   1.634   6.169   3.625 -0.0620  0.1536 -0.0055
 2630TIP3    H129381   1.632   6.205   3.714 -1.1520  1.2607 -0.4323
 2630TIP3    H229382   1.727   6.164   3.603  0.2537 -0.7608  1.4190
 2631TIP3   OH229383   6.614   0.872  15.484  0.4021 -0.2197  0.1021
 2631TIP3    H129384   6.701   0.883  15.444  0.3069 -0.5779 -0.2111
 2631TIP3    H229385   6.567   0.952  15.461  0.8849  0.3041  0.8920
 2632TIP3   OH229386   4.190   5.839  15.952 -0.2115  0.0784  0.7509
 2632TIP3    H129387   4.106   5.834  15.905 -0.3926  2.0815  0.7756
 2632TIP3    H229388   4.175   5.791  16.033 -1.4016  0.5249  0.8207
 2633TIP3   OH229389   5.028   0.669   2.956 -0.1453 -0.0651 -0.3086
 2633TIP3    H129390   5.004   0.579   2.935  0.5607 -0.5734  0.9615
 2633TIP3    H229391   5.035   0.712   2.871 -0.2403 -1.2727 -0.9478
 2634TIP3   OH229392   4.833   0.028   5.454  0.3683 -0.1700  0.2710
 2634TIP3    H129393   4.749   0.071   5.435  1.3691  0.6991 -2.7749
 2634TIP3    H229394   4.811  -0.064   5.466 -1.2223  0.3419  1.8245
 2635TIP3   OH229395   2.089   6.602   6.026 -0.4569 -0.7547 -0.4696
 2635TIP3    H129396   2.181   6.593   6.048 -0.6197 -0.0189  0.5705
 2635TIP3    H229397   2.042   6.562   6.099 -0.9709 -3.2113 -2.0369
 2636TIP3   OH229398   4.610   3.682   1.919 -0.3461  0.1757 -1.0024
 2636TIP3    H129399   4.601   3.612   1.855  0.0864 -1.6157  0.8003
 2636TIP3    H229400   4.564   3.756   1.879  0.8689 -0.4521 -3.8664
 2637TIP3   OH229401   2.807   4.007   0.113 -0.0530 -0.1390 -0.1800
 2637TIP3    H129402   2.750   3.933   0.093  0.8992 -0.7282 -0.7647
 2637TIP3    H229403   2.891   3.968   0.135  0.0777  0.7109  0.9160
 2638TIP3   OH229404   3.045   6.083   0.926 -0.0880 -0.0096 -0.1304
 2638TIP3    H129405   3.060   6.146   0.997  1.4715  1.9449 -2.0708
 2638TIP3    H229406   2.952   6.093   0.905 -0.3672  0.0139  1.0015
 2639TIP3   OH229407   2.127   4.190  15.211 -0.5029  0.6220 -0.7651
 2639TIP3    H129408   2.074   4.112  15.198  0.9905 -0.4377 -0.6437
 2639TIP3    H229409   2.176   4.200  15.129 -0.8975  1.6179 -0.8946
 2640TIP3   OH229410   5.396   3.363  11.040  0.5315 -0.4510 -0.2184
 2640TIP3    H129411   5.385   3.303  10.966  0.3406 -0.5142 -0.1402
 2640TIP3    H229412   5.417   3.447  10.999 -0.6106 -0.2379 -0.3958
 2641TIP3   OH229413   1.185   3.784  14.547 -0.4726  0.6103 -0.8329
 2641TIP3    H129414   1.131   3.843  14.495  0.7298  2.5338 -0.0446
 2641TIP3    H229415   1.127   3.753  14.616 -0.8829  1.8402 -0.5911
 2642TIP3   OH229416   6.845   3.920  13.024 -0.0560 -0.2699  0.0884
 2642TIP3    H129417   6.863   4.010  12.996  2.8199 -0.9838 -0.6666
 2642TIP3    H229418   6.927   3.874  13.010 -1.1850 -2.8368  1.3355
 2643TIP3   OH229419   6.004   2.699   5.479  0.4617 -0.0286  0.4379
 2643TIP3    H129420   5.937   2.631   5.480  1.6060 -1.2937 -1.6428
 2643TIP3    H229421   5.974   2.764   5.543 -3.1692 -0.1121 -0.9573
 2644TIP3   OH229422   1.613   6.757  14.067  0.0251  0.1040 -0.6769
 2644TIP3    H129423   1.530   6.710  14.058 -0.4993  1.2187 -2.0905
 2644TIP3    H229424   1.593   6.831  14.124 -0.0701  0.6053 -1.3505
 2645TIP3   OH229425   3.266   6.044   2.776 -0.7013 -0.0980  0.0759
 2645TIP3    H129426   3.355   6.061   2.808 -0.7800 -1.0225  0.8237
 2645TIP3    H229427   3.274   6.046   2.681  0.1687 -0.4000  0.1337
 2646TIP3   OH229428   5.869   4.631   1.600 -0.5803 -0.4257 -0.2496
 2646TIP3    H129429   5.900   4.622   1.509  1.1888 -0.1907  0.2899
 2646TIP3    H229430   5.930   4.693   1.639 -1.3217 -0.5378  1.1156
 2647TIP3   OH229431   1.698   1.256   0.434  0.2987 -0.3582  0.1195
 2647TIP3    H129432   1.792   1.268   0.444  0.3155  0.5346 -0.9797
 2647TIP3    H229433   1.681   1.267   0.341 -0.8196 -1.0997  0.2150
 2648TIP3   OH229434   5.003   5.360  15.463 -0.0073  0.5052  0.3156
 2648TIP3    H129435   4.984   5.310  15.384  0.9384 -0.2071  0.5179
 2648TIP3    H229436   4.995   5.451  15.437 -0.3269  0.2722 -0.4297
 2649TIP3   OH229437   6.280   3.087  11.649 -0.7441 -0.0473 -0.3134
 2649TIP3    H129438   6.316   3.074  11.561 -0.8463 -3.2704 -0.0062
 2649TIP3    H229439   6.350   3.060  11.708 -0.4865  2.5959  0.6955
 2650TIP3   OH229440   1.443   5.044   2.569 -0.2144 -0.5675  0.2654
 2650TIP3    H129441   1.400   5.019   2.651 -1.0109 -2.6968 -0.7381
 2650TIP3    H229442   1.376   5.032   2.502  0.6816  0.3000 -0.8187
 2651TIP3   OH229443   4.585   4.128   1.517  0.4334  0.3466 -0.0691
 2651TIP3    H129444   4.633   4.096   1.441  0.2145  0.1431 -0.1229
 2651TIP3    H229445   4.576   4.050   1.573 -0.2256  0.2758 -0.2631
 2652TIP3   OH229446   1.935   6.793   0.129  0.0325  0.0101 -0.0732
 2652TIP3    H129447   1.850   6.794   0.173 -0.6386  0.6387 -1.3185
 2652TIP3    H229448   1.999   6.784   0.200 -1.0116  0.7153  0.9936
 2653TIP3   OH229449   5.111   1.889  16.952 -0.6113  0.1486  0.1324
 2653TIP3    H129450   5.093   1.920  16.864  1.1291  0.7626 -0.0577
 2653TIP3    H229451   5.204   1.863  16.950 -0.7687 -0.6542  1.5416
 2654TIP3   OH229452   0.046   6.484   1.073 -0.0602  0.1671  0.0258
 2654TIP3    H129453   0.058   6.419   1.004  0.6928  0.6055 -0.2679
 2654TIP3    H229454   0.123   6.475   1.128  0.2477  1.0779 -0.2443
 2655TIP3   OH229455   3.628   1.504  12.327 -1.1942 -0.0967 -0.1460
 2655TIP3    H129456   3.646   1.554  12.406 -1.5399  0.8190 -0.6365
 2655TIP3    H229457   3.582   1.426  12.358  1.1271 -1.1839  0.8632
 2656TIP3   OH229458   2.803   1.007   6.428  0.0610  0.4021 -0.4479
 2656TIP3    H129459   2.760   0.946   6.488  0.7384  0.7247  0.3910
 2656TIP3    H229460   2.854   1.065   6.485 -1.0262  2.1586 -1.1530
 2657TIP3   OH229461   1.745   5.766   0.356  0.0004  0.2456 -0.1691
 2657TIP3    H129462   1.713   5.677   0.368  1.2569 -0.3467 -0.9042
 2657TIP3    H229463   1.687   5.821   0.408 -2.0320 -0.7647 -1.2670
 2658TIP3   OH229464   2.054   6.157   1.539  0.1158 -0.5725 -0.3768
 2658TIP3    H129465   2.026   6.092   1.604  1.2624 -0.7162 -0.0186
 2658TIP3    H229466   2.125   6.114   1.491 -0.0375 -0.0826 -1.0591
 2659TIP3   OH229467   1.273   2.643   4.272 -0.0145 -0.5841  0.1599
 2659TIP3    H129468   1.191   2.682   4.241  1.4944  1.8552 -1.0911
 2659TIP3    H229469   1.278   2.559   4.228 -1.4195 -0.3742 -0.4435
 2660TIP3   OH229470   0.165   6.577  14.375  0.1171 -0.8168  0.1036
 2660TIP3    H129471   0.249   6.538  14.400  0.8961 -0.3798 -1.6908
 2660TIP3    H229472   0.147   6.641  14.443  1.5882 -0.4419  0.1613
 2661TIP3   OH229473   0.575   1.122   4.357  0.0665  0.0659  0.2986
 2661TIP3    H129474   0.660   1.131   4.314  0.7043  0.0663  1.4979
 2661TIP3    H229475   0.517   1.181   4.309  1.0413  0.9469  0.1698
 2662TIP3   OH229476   2.180   6.537   4.464  0.5382  0.1557  0.1619
 2662TIP3    H129477   2.216   6.578   4.386  1.1110 -0.2564  0.2057
 2662TIP3    H229478   2.135   6.608   4.510 -0.2187  0.3060 -0.7761
 2663TIP3   OH229479   4.894   5.671   3.220  0.0156 -0.1734 -0.0725
 2663TIP3    H129480   4.861   5.633   3.301  0.5076  1.2512  0.8447
 2663TIP3    H229481   4.815   5.695   3.171 -0.2987  0.1776  0.5972
 2664TIP3   OH229482   5.203   3.358   3.701  0.0114  0.4586 -0.0760
 2664TIP3    H129483   5.164   3.438   3.736 -1.1086 -0.5352  1.0526
 2664TIP3    H229484   5.186   3.363   3.607 -4.4725 -0.6163  0.4347
 2665TIP3   OH229485   0.514   4.032  16.002 -0.1192  0.2018 -0.6411
 2665TIP3    H129486   0.431   4.077  16.018  0.2066  0.6149 -0.0920
 2665TIP3    H229487   0.537   4.056  15.912 -0.6868 -0.0741 -0.8622
 2666TIP3   OH229488   3.006   0.302  15.191  0.0424  0.2693 -0.9245
 2666TIP3    H129489   2.975   0.367  15.253  1.2356  0.5967 -0.6350
 2666TIP3    H229490   3.060   0.351  15.129  2.5242 -0.6139  0.3766
 2667TIP3   OH229491   3.890   1.351   2.624  0.4804  0.5497  0.1211
 2667TIP3    H129492   3.867   1.396   2.705 -0.3609 -0.0955  0.2670
 2667TIP3    H229493   3.923   1.419   2.566 -2.2436  1.6940 -0.2521
 2668TIP3   OH229494   3.460   2.837  16.026  0.2994 -0.5289  0.2831
 2668TIP3    H129495   3.451   2.808  16.117 -2.0472 -1.4020 -0.1607
 2668TIP3    H229496   3.376   2.877  16.005  0.8495 -0.1908 -1.4592
 2669TIP3   OH229497   1.105   2.252   2.927 -0.3961 -0.8413  0.3004
 2669TIP3    H129498   1.079   2.188   2.861 -0.3509 -2.1544  1.5093
 2669TIP3    H229499   1.029   2.310   2.935 -0.1278 -0.1942 -1.4004
 2670TIP3   OH229500   5.489   5.615  15.288 -0.1425 -0.4375  0.1918
 2670TIP3    H129501   5.425   5.551  15.319  0.3953 -1.4683 -0.7727
 2670TIP3    H229502   5.566   5.564  15.265 -0.2366  0.3177 -2.0880
 2671TIP3   OH229503   1.435   0.901  16.829 -0.0126 -0.0004 -0.1764
 2671TIP3    H129504   1.372   0.971  16.844  0.8253  1.0319 -1.3074
 2671TIP3    H229505   1.447   0.860  16.915 -0.3949  1.3510  0.5471
 2672TIP3   OH229506   1.984   3.561  14.965 -0.0316 -0.1058  0.1043
 2672TIP3    H129507   1.942   3.486  15.006  1.8743 -0.7177  1.0862
 2672TIP3    H229508   2.012   3.529  14.879  0.4166 -0.4150  0.3599
 2673TIP3   OH229509   2.002   5.423   6.458 -0.6500  0.4000 -0.4385
 2673TIP3    H129510   2.035   5.435   6.369  0.0346  2.4814  0.0545
 2673TIP3    H229511   1.947   5.499   6.475  1.8400  1.8493  2.0173
 2674TIP3   OH229512   2.969   2.416  11.937 -0.3748  0.3600 -0.0461
 2674TIP3    H129513   2.896   2.470  11.906 -0.7658 -0.9705 -1.6259
 2674TIP3    H229514   2.931   2.363  12.008 -0.5883  0.6203  0.0345
 2675TIP3   OH229515   2.073   0.054  16.407 -0.0466  0.0150  0.2672
 2675TIP3    H129516   2.157   0.068  16.451 -0.5843  2.6290  0.5743
 2675TIP3    H229517   2.097   0.019  16.321  1.5266  2.3458 -0.3407
 2676TIP3   OH229518   5.091   1.216   4.501  0.1088  0.9310 -0.7802
 2676TIP3    H129519   5.168   1.265   4.470  0.6772  0.4827 -0.0984
 2676TIP3    H229520   5.037   1.283   4.543  0.9158  0.9989  0.2094
 2677TIP3   OH229521   1.715   6.688   3.899  0.3431  0.1216  0.2405
 2677TIP3    H129522   1.778   6.632   3.854  0.5319  0.5402 -0.0224
 2677TIP3    H229523   1.765   6.727   3.971 -0.1436 -1.1195  1.2925
 2678TIP3   OH229524   3.809   3.060  11.710  0.1049  0.2492 -0.2967
 2678TIP3    H129525   3.903   3.077  11.700 -0.4558  3.2978 -1.1823
 2678TIP3    H229526   3.788   3.093  11.797 -0.0894 -0.9960  0.1523
 2679TIP3   OH229527   0.895   5.346  15.940  0.2318  0.5152 -0.3309
 2679TIP3    H129528   0.974   5.297  15.960  0.9494  1.0281 -1.7971
 2679TIP3    H229529   0.865   5.310  15.856 -1.0316  0.4043  0.1478
 2680TIP3   OH229530   1.325   4.613   0.483  0.4347  0.3003  0.5005
 2680TIP3    H129531   1.407   4.647   0.519 -0.6536  2.2455  1.3296
 2680TIP3    H229532   1.280   4.576   0.558  0.9653 -1.7792 -0.1484
 2681TIP3   OH229533   6.122   0.273   4.402 -0.6755 -0.0181  0.2554
 2681TIP3    H129534   6.210   0.239   4.418  0.5593  2.3280 -1.0334
 2681TIP3    H229535   6.086   0.214   4.335  1.3305  0.9093 -1.7986
 2682TIP3   OH229536   4.975   0.538   5.348 -0.2898  0.4284  0.5236
 2682TIP3    H129537   5.011   0.552   5.436  2.3852 -0.7492 -0.2711
 2682TIP3    H229538   5.014   0.456   5.319 -4.5874 -1.6456 -0.1370
 2683TIP3   OH229539   3.900   0.135   1.492  0.3786  0.2786 -0.0793
 2683TIP3    H129540   3.984   0.164   1.457  0.6914  1.5091  1.6107
 2683TIP3    H229541   3.906   0.149   1.586 -1.1461 -1.1320  0.2795
 2684TIP3   OH229542   2.349   5.312  11.249  0.2326 -0.1799  0.0420
 2684TIP3    H129543   2.258   5.313  11.278  0.2745 -1.2883  0.2870
 2684TIP3    H229544   2.382   5.400  11.266 -0.9222  0.3786 -0.4975
 2685TIP3   OH229545   3.432   3.995  12.187 -0.3979 -0.1218  0.2800
 2685TIP3    H129546   3.519   4.035  12.189  0.5801 -2.1259  1.5002
 2685TIP3    H229547   3.375   4.056  12.233  0.7989  0.3623  1.1472
 2686TIP3   OH229548   5.020   3.699  17.005 -0.5174  0.3014  0.2986
 2686TIP3    H129549   4.941   3.737  16.967 -1.2131 -0.5182  0.8792
 2686TIP3    H229550   4.988   3.645  17.077  0.3193 -2.0486 -0.9715
 2687TIP3   OH229551   5.415   0.704  11.491  0.2397  0.3369  1.0590
 2687TIP3    H129552   5.320   0.701  11.500  0.3627 -0.2553  2.3557
 2687TIP3    H229553   5.442   0.612  11.492  0.8007  0.4744  0.1557
 2688TIP3   OH229554   1.898   4.331   4.398  0.3048 -0.2328  0.0013
 2688TIP3    H129555   1.927   4.271   4.467 -0.2426 -2.7556 -1.8319
 2688TIP3    H229556   1.929   4.291   4.317 -1.2781  1.2747 -1.4143
 2689TIP3   OH229557   4.910   4.604   5.275 -0.0935  0.2948 -0.6175
 2689TIP3    H129558   4.886   4.537   5.211  1.7908 -1.4169  0.3854
 2689TIP3    H229559   4.977   4.563   5.330  0.2997  2.6223  0.7771
 2690TIP3   OH229560   5.180   1.761  15.344  0.2052 -0.4726  0.2146
 2690TIP3    H129561   5.147   1.827  15.405 -1.7889 -2.2222  1.1418
 2690TIP3    H229562   5.147   1.789  15.259 -2.4271 -1.2644  0.8862
 2691TIP3   OH229563   4.405   1.458  15.328  0.3059 -0.2276  0.1061
 2691TIP3    H129564   4.485   1.504  15.303  1.6442 -2.2859  0.4066
 2691TIP3    H229565   4.420   1.431  15.418 -1.0503 -0.0417  0.4026
 2692TIP3   OH229566   3.800   2.786  16.160  0.0367  0.1993  0.2522
 2692TIP3    H129567   3.754   2.868  16.182  1.2514  1.0981 -0.4452
 2692TIP3    H229568   3.812   2.742  16.244 -2.1068 -0.1059  0.4662
 2693TIP3   OH229569   3.348   6.126   4.524 -0.1079  0.2178  0.6244
 2693TIP3    H129570   3.381   6.038   4.542 -1.7016 -0.4892  0.2942
 2693TIP3    H229571   3.291   6.115   4.447 -1.4295  1.2641  1.4145
 2694TIP3   OH229572   3.278   2.707  14.186 -0.2916  0.4505  0.7784
 2694TIP3    H129573   3.249   2.798  14.186  0.8762  0.8581 -0.3258
 2694TIP3    H229574   3.373   2.712  14.192 -0.0613 -0.5909 -1.0017
 2695TIP3   OH229575   0.564   5.668  13.352 -0.1173  0.0824  0.1285
 2695TIP3    H129576   0.614   5.588  13.368  0.1423  0.6688  2.6437
 2695TIP3    H229577   0.615   5.715  13.285  1.3713 -0.4627  0.8432
 2696TIP3   OH229578   3.150   1.743  12.402 -0.5160 -0.3071  0.1450
 2696TIP3    H129579   3.103   1.822  12.428 -2.9365 -1.2339 -1.1426
 2696TIP3    H229580   3.099   1.671  12.439  1.2272 -1.3419  0.6578
 2697TIP3   OH229581   2.991   4.942   5.910  0.2900 -0.3359  0.2440
 2697TIP3    H129582   2.915   4.913   5.961  0.5982 -0.7139  0.4884
 2697TIP3    H229583   2.972   4.914   5.821  1.4509 -3.0729  0.7717
 2698TIP3   OH229584   3.754   3.060   2.029  0.3268 -0.6614 -0.1677
 2698TIP3    H129585   3.804   3.138   2.054  1.2244 -1.0877 -0.5559
 2698TIP3    H229586   3.773   2.996   2.098  0.7991 -1.0151 -0.6138
 2699TIP3   OH229587   4.368   5.360   5.967 -0.7383 -0.1998 -0.0149
 2699TIP3    H129588   4.376   5.267   5.945  1.6503  0.2817 -1.4473
 2699TIP3    H229589   4.408   5.368   6.053  0.8427 -0.2259 -0.7249
 2700TIP3   OH229590   5.750   1.850   5.060 -0.4475  0.1073  0.2425
 2700TIP3    H129591   5.820   1.885   5.115  0.2493  0.3069 -0.7361
 2700TIP3    H229592   5.792   1.784   5.005 -0.6165  1.3974 -1.5442
 2701TIP3   OH229593   0.206   1.236   2.795 -0.5909 -0.0299  0.1013
 2701TIP3    H129594   0.119   1.248   2.832 -0.6730  0.6176 -0.3016
 2701TIP3    H229595   0.223   1.315   2.745 -0.3331 -0.7415 -0.9609
 2702TIP3   OH229596   1.861   0.759   5.078  0.4916  0.1820 -0.2056
 2702TIP3    H129597   1.825   0.725   4.996  0.2230  0.1267 -0.0667
 2702TIP3    H229598   1.916   0.833   5.052  0.7283 -0.0849 -0.4711
 2703TIP3   OH229599   0.243   3.199  13.983 -0.1863  0.0465 -0.0431
 2703TIP3    H129600   0.312   3.227  14.043  0.7782 -0.9247 -0.6591
 2703TIP3    H229601   0.203   3.280  13.952  0.4158  0.6092  0.6146
 2704TIP3   OH229602   5.646   1.942  13.834 -0.2892  0.1695  0.0798
 2704TIP3    H129603   5.728   1.895  13.823 -0.7855 -0.5096 -0.8385
 2704TIP3    H229604   5.612   1.911  13.918 -0.1077 -0.3393 -0.0317
 2705TIP3   OH229605   6.266   3.480  15.556 -0.2988 -0.0494 -0.1139
 2705TIP3    H129606   6.345   3.430  15.576  0.9767  2.4958  1.7071
 2705TIP3    H229607   6.298   3.566  15.530 -2.4490  0.6023 -0.7932
 2706TIP3   OH229608   3.164   3.899   4.348  0.5112  0.0568  0.5398
 2706TIP3    H129609   3.090   3.844   4.321  0.1488  0.9823 -0.3886
 2706TIP3    H229610   3.202   3.931   4.266  1.5595  0.1020  1.0282
 2707TIP3   OH229611   6.493   2.454  14.493  0.3871 -0.0906  0.0796
 2707TIP3    H129612   6.522   2.435  14.404 -1.5669 -1.0275 -0.4134
 2707TIP3    H229613   6.546   2.396  14.548 -1.0727 -2.4917 -0.8720
 2708TIP3   OH229614   4.910   2.351  16.482  0.1124 -0.0017 -0.1942
 2708TIP3    H129615   4.857   2.423  16.516  1.5153  0.7045  0.5822
 2708TIP3    H229616   4.978   2.393  16.429  2.2171 -0.4860  1.9147
 2709TIP3   OH229617   4.567   3.085   0.811  0.5853 -0.2168  0.0358
 2709TIP3    H129618   4.605   3.045   0.889  1.0559  0.0333 -0.0628
 2709TIP3    H229619   4.580   3.179   0.822 -1.7591  0.0706  0.9220
 2710TIP3   OH229620   6.233   4.496   3.553  0.1285  0.3006 -0.1863
 2710TIP3    H129621   6.186   4.466   3.630  0.5500  1.5542  0.5924
 2710TIP3    H229622   6.312   4.442   3.551 -0.3333 -0.3934 -0.3173
 2711TIP3   OH229623   3.207   4.470  15.969  0.2925  0.2322  0.2146
 2711TIP3    H129624   3.298   4.442  15.957  0.0403 -0.2280 -0.6603
 2711TIP3    H229625   3.195   4.542  15.907 -0.3927 -0.7433 -0.8004
 2712TIP3   OH229626   4.133   5.913  11.511  0.4130  0.0449  0.2921
 2712TIP3    H129627   4.192   5.902  11.585  1.4606  2.9865  0.0437
 2712TIP3    H229628   4.187   5.953  11.442 -1.3455  0.8471 -0.7080
 2713TIP3   OH229629   6.557   3.560   6.690 -0.0562  0.3588 -0.1037
 2713TIP3    H129630   6.522   3.606   6.614 -1.7556  0.9865  1.0025
 2713TIP3    H229631   6.591   3.630   6.747  0.8706 -0.0719 -0.0983
 2714TIP3   OH229632   6.559   5.574  12.085 -0.1329  0.2377 -0.1347
 2714TIP3    H129633   6.550   5.480  12.098 -0.2428 -0.0932 -2.2962
 2714TIP3    H229634   6.541   5.588  11.992  0.3503  2.3418  0.0271
 2715TIP3   OH229635   0.054   1.737  11.119  0.4834  0.5542 -0.4391
 2715TIP3    H129636   0.126   1.784  11.077  0.4525  0.7262 -0.3012
 2715TIP3    H229637   0.096   1.673  11.176  0.5536  1.7071  0.8506
 2716TIP3   OH229638   3.846   2.732   0.988 -0.6602  0.2073  0.2058
 2716TIP3    H129639   3.879   2.821   0.976  0.1206 -0.2995 -1.9084
 2716TIP3    H229640   3.903   2.694   1.056 -2.0563  1.7599  2.3594
 2717TIP3   OH229641   3.359   0.328  11.793  0.0913  0.3886 -0.4481
 2717TIP3    H129642   3.377   0.251  11.847  1.0270 -0.8065 -2.3085
 2717TIP3    H229643   3.291   0.299  11.732  0.8580  0.8259 -1.5422
 2718TIP3   OH229644   5.231   4.681  12.962  0.2546  0.9381  0.0636
 2718TIP3    H129645   5.283   4.730  12.899 -0.1386  1.7012  0.3180
 2718TIP3    H229646   5.295   4.648  13.025  0.7060 -0.2242 -0.9652
 2719TIP3   OH229647   0.931   2.391  13.540  0.0018  0.3310  0.0501
 2719TIP3    H129648   0.996   2.360  13.603  1.0389  1.1232 -0.5912
 2719TIP3    H229649   0.949   2.484  13.530 -3.4007  1.4465  2.3697
 2720TIP3   OH229650   2.954   4.512   5.615  0.7554 -0.2442  0.6482
 2720TIP3    H129651   2.960   4.570   5.539 -0.6319  0.9594  1.4099
 2720TIP3    H229652   2.893   4.444   5.588  0.4699  0.0328  0.5827
 2721TIP3   OH229653   4.275   4.171   6.453  0.1438 -0.3629 -0.5776
 2721TIP3    H129654   4.180   4.160   6.445  0.2308 -1.0323 -0.7824
 2721TIP3    H229655   4.301   4.107   6.519  0.3948  0.1302 -0.1974
 2722TIP3   OH229656   3.762   6.808  16.265  0.5998 -0.4261  0.0830
 2722TIP3    H129657   3.822   6.880  16.245 -0.1392 -0.5277 -3.0615
 2722TIP3    H229658   3.677   6.850  16.274  0.5816 -0.6435  0.9589
 2723TIP3   OH229659   6.043   5.955   5.564  0.2241  0.5277  0.2237
 2723TIP3    H129660   5.982   6.002   5.507  1.1248  0.8262 -0.5080
 2723TIP3    H229661   6.006   5.867   5.571  1.0768 -0.1097 -2.4044
 2724TIP3   OH229662   0.827   2.860   6.479 -0.4117  0.1940  0.2623
 2724TIP3    H129663   0.885   2.798   6.436  0.3015  1.8233 -1.2427
 2724TIP3    H229664   0.741   2.819   6.476  0.2768 -1.3854  0.7441
 2725TIP3   OH229665   4.828   6.354  11.486 -0.1016  0.3055 -0.0891
 2725TIP3    H129666   4.887   6.368  11.412 -1.8546  1.0566 -1.4211
 2725TIP3    H229667   4.883   6.364  11.564  1.8943 -1.0225 -1.2594
 2726TIP3   OH229668   5.582   1.775  10.985 -0.4550  0.2883  1.0315
 2726TIP3    H129669   5.593   1.861  11.027 -0.1056  0.6631  0.1886
 2726TIP3    H229670   5.670   1.749  10.959 -0.7739  0.5176 -0.3377
 2727TIP3   OH229671   3.531   5.150   3.792 -0.1738  0.1339  0.1926
 2727TIP3    H129672   3.485   5.213   3.737 -1.2175 -1.9498 -1.4631
 2727TIP3    H229673   3.619   5.145   3.754 -0.2976  0.0965 -0.0899
 2728TIP3   OH229674   4.718   5.279   5.189  0.2065 -0.9224 -0.1600
 2728TIP3    H129675   4.632   5.251   5.159 -0.5995 -0.4512  1.6112
 2728TIP3    H229676   4.736   5.358   5.137 -0.1600 -1.3223 -0.9230
 2729TIP3   OH229677   4.509   1.950   2.367 -0.0883 -0.2291 -0.2421
 2729TIP3    H129678   4.599   1.918   2.366 -0.1304 -0.3463 -0.1782
 2729TIP3    H229679   4.475   1.925   2.452  0.1736  0.8020  0.1827
 2730TIP3   OH229680   3.294   2.156   6.823 -0.1799 -0.4222  0.1723
 2730TIP3    H129681   3.376   2.172   6.869 -0.0296  1.7014 -0.7299
 2730TIP3    H229682   3.271   2.066   6.846  1.4524 -0.4601  1.8781
 2731TIP3   OH229683   3.115   0.685   2.398 -0.3115 -0.6262  0.3423
 2731TIP3    H129684   3.098   0.664   2.490 -3.0200 -0.7887 -0.1106
 2731TIP3    H229685   3.152   0.773   2.401  2.0825 -1.5795  1.6744
 2732TIP3   OH229686   1.230   2.688  11.380  0.3432 -0.2613 -0.1663
 2732TIP3    H129687   1.207   2.672  11.471  1.8898  0.8427  0.4608
 2732TIP3    H229688   1.322   2.663  11.373  0.1142 -0.8088 -1.5634
 2733TIP3   OH229689   3.955   0.905  16.296 -0.2968  0.0154 -0.1297
 2733TIP3    H129690   3.927   0.859  16.375 -1.3131  0.2317 -0.3543
 2733TIP3    H229691   4.033   0.953  16.323  1.0124 -2.0755  0.0318
 2734TIP3   OH229692   4.393   0.766   2.258 -0.3297  0.0455 -0.2827
 2734TIP3    H129693   4.412   0.753   2.351  1.3726  1.9144 -0.3061
 2734TIP3    H229694   4.404   0.678   2.220 -2.4768 -1.0629  1.4149
 2735TIP3   OH229695   0.662   1.522  12.623  0.2071  0.4977  0.0730
 2735TIP3    H129696   0.659   1.431  12.594  0.6165  0.2690  0.7202
 2735TIP3    H229697   0.583   1.532  12.676  0.2942  0.4450  0.2124
 2736TIP3   OH229698   2.610   4.291  12.778 -0.1846  0.2104 -0.0136
 2736TIP3    H129699   2.551   4.285  12.853 -0.0063  0.1911  0.1235
 2736TIP3    H229700   2.674   4.222  12.792 -1.4228 -1.2941 -1.2979
 2737TIP3   OH229701   0.900   3.262   4.119  0.5459 -0.0998 -0.3747
 2737TIP3    H129702   0.955   3.193   4.158  0.1042 -0.7627 -0.9114
 2737TIP3    H229703   0.824   3.268   4.177  0.5851 -0.0599 -0.3273
 2738TIP3   OH229704   5.674   2.636  12.720 -0.4977  0.5924  0.1842
 2738TIP3    H129705   5.598   2.641  12.662 -0.7449  0.3550  0.4823
 2738TIP3    H229706   5.638   2.606  12.804 -0.1442  0.9462  0.4632
 2739TIP3   OH229707   0.747   0.403  17.065 -0.3095  0.3572 -0.8823
 2739TIP3    H129708   0.678   0.468  17.079  0.9135  1.0762  3.1235
 2739TIP3    H229709   0.732   0.337  17.133  3.7437  1.4477  1.4263
 2740TIP3   OH229710   6.323   1.056  16.316 -0.0476 -0.5865 -0.3052
 2740TIP3    H129711   6.361   1.111  16.248 -0.7139  0.1277 -0.1161
 2740TIP3    H229712   6.362   0.969  16.301  2.0580  0.2025  0.2154
 2741TIP3   OH229713   6.303   6.417   6.062  0.2419  0.4724  0.7553
 2741TIP3    H129714   6.303   6.513   6.058  1.9272  0.5566  1.7341
 2741TIP3    H229715   6.293   6.397   6.155 -1.8960 -0.3752  0.3828
 2742TIP3   OH229716   6.262   3.254   6.303  0.6330 -0.0723 -0.2704
 2742TIP3    H129717   6.291   3.340   6.335  1.3961 -0.8730  1.3184
 2742TIP3    H229718   6.325   3.193   6.341 -0.1640 -1.3830 -1.0063
 2743TIP3   OH229719   3.851   5.514   5.849  0.1552 -0.4273  0.0686
 2743TIP3    H129720   3.828   5.571   5.922 -0.1841 -0.2968 -0.1404
 2743TIP3    H229721   3.842   5.569   5.771 -0.1334 -0.7551 -0.1308
 2744TIP3   OH229722   4.872   4.074  16.927  0.3395  0.4377  0.0075
 2744TIP3    H129723   4.954   4.118  16.903  1.0543 -0.7264  0.2281
 2744TIP3    H229724   4.889   4.039  17.015 -0.9988  1.6023  0.7638
 2745TIP3   OH229725   3.398   6.560  14.580  0.3939  0.0933 -0.4933
 2745TIP3    H129726   3.353   6.528  14.658  0.3687  0.6819 -0.2611
 2745TIP3    H229727   3.328   6.569  14.515  0.3394  0.0495 -0.4418
 2746TIP3   OH229728   5.370   5.231   4.060 -0.4102  0.0496 -0.5677
 2746TIP3    H129729   5.305   5.230   4.131  0.1651 -0.0576 -0.0344
 2746TIP3    H229730   5.383   5.139   4.039  0.5441 -0.0178  0.2454
 2747TIP3   OH229731   2.529   3.763  14.100 -0.6569  0.6369 -0.1935
 2747TIP3    H129732   2.623   3.778  14.091 -0.2320 -1.8681 -0.7199
 2747TIP3    H229733   2.495   3.768  14.011 -0.6150 -0.6237 -0.2953
 2748TIP3   OH229734   1.828   0.572   4.190 -0.4970  0.4999 -0.4187
 2748TIP3    H129735   1.792   0.656   4.163 -1.3816  0.3699  0.3106
 2748TIP3    H229736   1.820   0.571   4.285 -0.9918 -0.6195 -0.4564
 2749TIP3   OH229737   6.304   3.749   3.624  0.0786 -0.0504  0.7333
 2749TIP3    H129738   6.220   3.783   3.592 -0.1080 -0.7576  0.4644
 2749TIP3    H229739   6.332   3.813   3.689 -0.6608  0.2053  0.8090
 2750TIP3   OH229740   4.463   2.062  11.544 -0.1073 -0.1952  0.3114
 2750TIP3    H129741   4.444   2.090  11.634  0.1598 -1.9598  0.9646
 2750TIP3    H229742   4.556   2.078  11.533 -0.0470 -0.3829  0.5248
 2751TIP3   OH229743   1.389   4.977  14.015 -0.3294 -0.1866  0.3741
 2751TIP3    H129744   1.342   4.995  14.096 -1.7029  1.3321 -0.7054
 2751TIP3    H229745   1.478   5.008  14.032 -0.8658  1.1177  0.9806
 2752TIP3   OH229746   0.835   1.507  13.956 -0.4746  0.0868 -0.0064
 2752TIP3    H129747   0.818   1.424  14.001 -0.8880 -0.6872 -1.5228
 2752TIP3    H229748   0.807   1.574  14.018  0.9044 -0.8399  1.7050
 2753TIP3   OH229749   1.388   2.151  13.817  0.3009  0.0335 -0.1625
 2753TIP3    H129750   1.427   2.065  13.802 -0.4650 -0.0214 -2.0743
 2753TIP3    H229751   1.309   2.133  13.868  0.9672 -0.1898  0.8356
 2754TIP3   OH229752   0.679   4.436   1.465 -0.0549 -0.3539 -0.1714
 2754TIP3    H129753   0.627   4.473   1.393  0.0211  1.0178  0.4565
 2754TIP3    H229754   0.614   4.397   1.523 -0.2278 -0.3059 -0.3313
 2755TIP3   OH229755   4.988   3.477   5.452  0.4687 -0.0537  0.1920
 2755TIP3    H129756   4.922   3.412   5.474  0.2714  0.1848  0.3131
 2755TIP3    H229757   5.070   3.428   5.446  0.8221  0.0495  2.8667
 2756TIP3   OH229758   3.878   4.276   5.176 -0.8530 -0.0293 -0.0249
 2756TIP3    H129759   3.850   4.296   5.266  1.2370 -0.5192  0.7935
 2756TIP3    H229760   3.955   4.331   5.162  0.5039 -1.9419 -0.4650
 2757TIP3   OH229761   1.257   1.444   5.336 -0.1293  0.0611 -0.0823
 2757TIP3    H129762   1.265   1.472   5.427  1.9111 -0.2151 -0.1131
 2757TIP3    H229763   1.163   1.440   5.320 -0.5899 -1.1026  2.3875
 2758TIP3   OH229764   4.711   4.621  12.742 -0.3275  0.5201  0.9207
 2758TIP3    H129765   4.628   4.666  12.748 -0.0799  1.0970  0.0570
 2758TIP3    H229766   4.739   4.630  12.651 -0.5341 -1.8507  0.5398
 2759TIP3   OH229767   3.220   3.119  13.968 -0.4465  0.1511  0.4637
 2759TIP3    H129768   3.310   3.150  13.960 -0.1843 -0.4612  0.9132
 2759TIP3    H229769   3.171   3.195  13.997  0.2645  0.0776  1.9767
 2760TIP3   OH229770   0.930   1.954  13.514  0.1496  0.0503  0.0348
 2760TIP3    H129771   0.866   1.956  13.442  0.9264 -0.9816 -0.7168
 2760TIP3    H229772   1.006   1.908  13.477  0.5349 -0.5975  1.5504
 2761TIP3   OH229773   4.624   4.712   6.356  0.7485  0.3235 -0.0809
 2761TIP3    H129774   4.662   4.799   6.344 -0.0968  0.5104 -1.5796
 2761TIP3    H229775   4.677   4.654   6.301 -0.6261  0.4731 -1.6507
 2762TIP3   OH229776   1.327   2.753   4.889 -0.1310  0.5180  0.7359
 2762TIP3    H129777   1.399   2.699   4.922 -0.4411  0.8159  1.9529
 2762TIP3    H229778   1.271   2.691   4.842  1.1394  0.3679 -0.6397
 2763TIP3   OH229779   2.066   4.065   0.405  0.2727 -0.1799  0.2719
 2763TIP3    H129780   2.067   4.042   0.312  0.6230 -1.4455  0.5607
 2763TIP3    H229781   2.004   4.137   0.412 -1.0891 -1.2248 -0.6869
 2764TIP3   OH229782   3.952   3.920  12.693  0.1054  0.6369  0.8796
 2764TIP3    H129783   3.910   3.993  12.646  0.0675  0.3195  0.4129
 2764TIP3    H229784   3.996   3.962  12.767  1.0451  1.2797 -0.0176
 2765TIP3   OH229785   2.094   3.925   0.848  0.1734 -0.1468  0.0765
 2765TIP3    H129786   2.016   3.970   0.880 -0.1107 -0.8283  0.3460
 2765TIP3    H229787   2.164   3.989   0.858  0.0188 -0.2004  1.6750
 2766TIP3   OH229788   2.865   1.590  10.572 -0.0560 -0.4866 -0.2193
 2766TIP3    H129789   2.818   1.673  10.560 -0.3903 -0.5478  0.6050
 2766TIP3    H229790   2.947   1.615  10.614 -0.5227 -0.6426  0.8226
 2767TIP3   OH229791   6.661   2.550  11.525 -0.3252  0.0654  0.6450
 2767TIP3    H129792   6.742   2.560  11.574  0.6810 -0.3491 -0.8496
 2767TIP3    H229793   6.683   2.490  11.454 -1.8708  0.1676  0.0257
 2768TIP3   OH229794   5.184   6.113  14.379 -0.6886 -0.1545  0.3173
 2768TIP3    H129795   5.119   6.046  14.356 -1.7195  0.7942  0.3598
 2768TIP3    H229796   5.161   6.138  14.468  0.7686 -0.9400  0.9417
 2769TIP3   OH229797   4.846   3.471   4.335 -0.1785  0.5656 -0.0752
 2769TIP3    H129798   4.808   3.554   4.362  1.4751  0.8351  1.5991
 2769TIP3    H229799   4.922   3.459   4.391  1.5903 -0.4882 -2.4810
 2770TIP3   OH229800   0.048   6.363  11.617  0.6687  0.5198  0.4295
 2770TIP3    H129801   0.030   6.318  11.700  0.0364  0.7842  0.4415
 2770TIP3    H229802   0.010   6.306  11.550  0.3181  0.7785  0.4039
 2771TIP3   OH229803   5.709   3.833  11.262  0.4402 -0.3391 -0.6007
 2771TIP3    H129804   5.749   3.889  11.329 -1.4222 -0.5535  0.7528
 2771TIP3    H229805   5.686   3.894  11.192 -0.3893  0.4142  0.2998
 2772TIP3   OH229806   3.932   1.524  15.082  0.3291 -0.0613  0.3572
 2772TIP3    H129807   4.015   1.509  15.128  0.3774  0.4017  0.4309
 2772TIP3    H229808   3.934   1.618  15.061 -0.5444  0.1343  1.0902
 2773TIP3   OH229809   1.908   5.369   2.727  0.5338  0.0855  0.9462
 2773TIP3    H129810   1.851   5.422   2.671  2.0251  0.3568 -0.3796
 2773TIP3    H229811   1.887   5.397   2.816  0.0295  1.6240  0.3741
 2774TIP3   OH229812   3.764   0.050   1.139  0.2390  0.0619  0.1777
 2774TIP3    H129813   3.745   0.046   1.045  0.1894  0.1926  0.1833
 2774TIP3    H229814   3.693   0.001   1.180  1.0522 -1.3206  0.0340
 2775TIP3   OH229815   5.616   5.829   5.484  0.0534 -0.4576  0.2441
 2775TIP3    H129816   5.531   5.867   5.507  0.0051 -0.5897  0.2864
 2775TIP3    H229817   5.674   5.904   5.474 -0.4871 -0.2269 -1.5513
 2776TIP3   OH229818   6.817   4.251   5.671  0.4790  0.3083  0.3473
 2776TIP3    H129819   6.822   4.238   5.765 -0.1231 -2.1181  0.1020
 2776TIP3    H229820   6.726   4.274   5.654 -0.1334 -2.0185  0.1431
 2777TIP3   OH229821   3.782   6.222   4.083 -0.2974  0.1601 -0.2227
 2777TIP3    H129822   3.861   6.268   4.057  1.1499 -1.2485  1.4402
 2777TIP3    H229823   3.763   6.163   4.010  0.9215 -0.3822 -0.1113
 2778TIP3   OH229824   5.725   4.574  13.579  0.2467  0.2100 -0.1234
 2778TIP3    H129825   5.726   4.629  13.657  2.1810 -1.0817  0.8433
 2778TIP3    H229826   5.657   4.509  13.596  2.5999 -1.9563  2.0335
 2779TIP3   OH229827   4.779   1.793  16.621  0.4942 -0.2828 -0.3835
 2779TIP3    H129828   4.830   1.826  16.695 -2.0479 -0.0541  1.4168
 2779TIP3    H229829   4.749   1.871  16.575  2.3370 -0.4288 -1.9502
 2780TIP3   OH229830   1.808   2.976  14.414  0.0030  0.2949  0.2758
 2780TIP3    H129831   1.806   2.885  14.385  1.2755  0.4087 -0.2596
 2780TIP3    H229832   1.730   2.986  14.469  0.5449 -1.4891  1.4659
 2781TIP3   OH229833   6.114   3.346   0.404  0.3597  0.5407 -0.3308
 2781TIP3    H129834   6.102   3.317   0.494  0.3660 -1.0305 -0.8115
 2781TIP3    H229835   6.038   3.311   0.357  1.0036  0.2359 -1.1712
 2782TIP3   OH229836   6.813   6.541  12.346  0.0389 -0.6074 -0.2851
 2782TIP3    H129837   6.830   6.461  12.395 -0.0757 -0.8128 -0.5821
 2782TIP3    H229838   6.821   6.516  12.254  0.3708 -0.1981 -0.3765
 2783TIP3   OH229839   4.973   1.024  11.121  0.2313 -0.0620  0.1658
 2783TIP3    H129840   4.925   0.952  11.079 -0.9738  0.5114  0.5050
 2783TIP3    H229841   4.993   1.084  11.049 -1.5845  0.7834  0.3010
 2784TIP3   OH229842   5.279   5.960  13.330  0.1778  0.5484 -0.0665
 2784TIP3    H129843   5.226   6.038  13.351 -0.8900 -0.7087  2.3622
 2784TIP3    H229844   5.362   5.975  13.375  0.0792  0.4128  0.1609
 2785TIP3   OH229845   4.276   2.131  15.708 -0.3859  0.2216 -0.4161
 2785TIP3    H129846   4.251   2.224  15.700 -2.4759 -0.3678 -1.7875
 2785TIP3    H229847   4.370   2.131  15.695 -0.0636  2.3030  1.2590
 2786TIP3   OH229848   3.746   5.033   4.880 -0.4837 -0.1982 -0.4643
 2786TIP3    H129849   3.729   4.939   4.874 -1.1577 -0.0244 -1.5966
 2786TIP3    H229850   3.665   5.074   4.850  0.3970  0.7142 -1.7037
 2787TIP3   OH229851   4.676   0.583   4.779  0.6025 -0.9001  0.0358
 2787TIP3    H129852   4.609   0.619   4.721 -0.3388 -0.0283  1.5829
 2787TIP3    H229853   4.701   0.500   4.739 -0.4216 -0.5918 -1.3018
 2788TIP3   OH229854   2.128   6.120   2.604 -0.5788  0.3003 -0.2010
 2788TIP3    H129855   2.146   6.132   2.697  0.8750  1.6301 -0.5955
 2788TIP3    H229856   2.034   6.137   2.595 -0.5384  1.2243  0.8862
 2789TIP3   OH229857   1.327   1.165   5.038 -0.4569  0.4169 -0.3667
 2789TIP3    H129858   1.242   1.120   5.046 -0.2606  0.0735 -0.2086
 2789TIP3    H229859   1.360   1.170   5.128  0.2751 -0.5819 -0.5667
 2790TIP3   OH229860   3.931   5.392   2.930  0.0801 -0.4357 -0.0760
 2790TIP3    H129861   3.956   5.431   3.014 -0.1856  1.4221 -0.8203
 2790TIP3    H229862   3.993   5.428   2.867  0.3022 -1.8479 -0.7034
 2791TIP3   OH229863   2.088   3.877  16.491 -0.2205 -0.0696  0.2428
 2791TIP3    H129864   2.172   3.877  16.537  1.2904  0.4415 -2.3102
 2791TIP3    H229865   2.050   3.963  16.511  0.0379 -0.1443  1.1038
 2792TIP3   OH229866   5.473   4.468   3.102  0.3387 -0.1726  0.1560
 2792TIP3    H129867   5.460   4.418   3.022 -2.8179  0.0479  0.4022
 2792TIP3    H229868   5.429   4.416   3.170  0.6361  0.9296  1.2300
 2793TIP3   OH229869   6.208   0.746   4.047  0.0006 -0.0415 -0.3477
 2793TIP3    H129870   6.219   0.823   3.993 -0.5814  0.9609  0.9095
 2793TIP3    H229871   6.116   0.747   4.074  0.0301 -1.0562 -0.1491
 2794TIP3   OH229872   4.773   3.498   1.119  0.3776  0.1335  0.1153
 2794TIP3    H129873   4.785   3.403   1.118 -0.3426 -0.0687 -3.4073
 2794TIP3    H229874   4.764   3.522   1.026  0.9283  3.7159  0.8466
 2795TIP3   OH229875   4.567   5.016   3.910 -0.5286 -0.1817 -0.0628
 2795TIP3    H129876   4.512   4.939   3.923  0.8168 -1.1301  0.3402
 2795TIP3    H229877   4.534   5.057   3.830 -1.6333 -0.8588  0.0309
 2796TIP3   OH229878   1.975   3.207   0.971 -0.3018 -0.1149  0.2171
 2796TIP3    H129879   1.997   3.154   1.047 -0.5468 -0.7741 -0.1605
 2796TIP3    H229880   2.041   3.277   0.971  0.5926 -0.9275  0.2238
 2797TIP3   OH229881   5.092   1.927   5.876  0.1732  0.8644  0.6748
 2797TIP3    H129882   5.141   2.008   5.890 -0.2453  1.4706 -1.0836
 2797TIP3    H229883   5.053   1.908   5.961  0.5728  2.3223  1.2225
 2798TIP3   OH229884   2.089   0.346  15.422 -0.6204  0.1219  0.5828
 2798TIP3    H129885   2.088   0.362  15.516 -3.1082  1.3567  0.4209
 2798TIP3    H229886   2.048   0.424  15.384  0.2247 -0.3949 -1.5334
 2799TIP3   OH229887   0.826   3.638   2.648 -0.5580  0.1956  0.4303
 2799TIP3    H129888   0.855   3.591   2.726  1.2276 -0.4637 -0.5740
 2799TIP3    H229889   0.898   3.699   2.628 -1.3151  0.8822 -0.2862
 2800TIP3   OH229890   6.797   3.791   1.005 -0.7300 -0.4945  0.7250
 2800TIP3    H129891   6.885   3.818   0.978 -0.7478 -1.0112  0.1108
 2800TIP3    H229892   6.769   3.731   0.936 -2.4044  1.2194 -0.1772
 2801TIP3   OH229893   5.313   1.408  14.588  0.3135  0.1814 -0.0753
 2801TIP3    H129894   5.251   1.400  14.516  1.5524  0.3586 -1.1988
 2801TIP3    H229895   5.281   1.346  14.654 -2.2598  1.8082  0.3185
 2802TIP3   OH229896   0.677   3.037   2.060 -0.0413 -0.1393 -0.1462
 2802TIP3    H129897   0.697   2.944   2.056  2.2653  0.2956 -0.0582
 2802TIP3    H229898   0.714   3.074   1.980 -0.4046  0.7950  0.0951
 2803TIP3   OH229899   2.649   3.399   4.349  0.1876 -0.1837  0.0869
 2803TIP3    H129900   2.624   3.419   4.439  1.2666 -1.4131  0.6895
 2803TIP3    H229901   2.735   3.441   4.338 -0.3091  0.7018 -0.6901
 2804TIP3   OH229902   1.585   5.953   2.189 -0.2614 -0.2262  0.0124
 2804TIP3    H129903   1.594   6.047   2.204  0.7614 -0.3336  0.1496
 2804TIP3    H229904   1.496   5.933   2.217 -0.4815  0.6926  0.0117
 2805TIP3   OH229905   6.453   3.944  12.995 -0.1855 -0.2479 -0.7964
 2805TIP3    H129906   6.365   3.977  12.980 -0.8156 -2.3819 -2.2468
 2805TIP3    H229907   6.494   3.944  12.909  1.1952  0.4610 -0.1866
 2806TIP3   OH229908   5.324   3.080   0.722  0.1052 -0.0322  0.0211
 2806TIP3    H129909   5.317   3.138   0.798 -1.2629 -0.8835  0.5772
 2806TIP3    H229910   5.379   3.008   0.751  0.8072  0.3626 -0.2909
 2807TIP3   OH229911   4.488   0.642   1.746  0.2157  0.3391  0.4496
 2807TIP3    H129912   4.399   0.672   1.726  0.9832  0.7582 -2.8566
 2807TIP3    H229913   4.521   0.608   1.663  1.9652 -3.1485  2.3629
 2808TIP3   OH229914   1.611   1.056  11.740  0.3066  0.3171  0.1128
 2808TIP3    H129915   1.653   0.971  11.757 -1.3270 -0.4655  0.5007
 2808TIP3    H229916   1.547   1.037  11.671 -0.3104  1.1512  0.4341
 2809TIP3   OH229917   2.357   5.908   0.552  0.5509  0.4434  0.3661
 2809TIP3    H129918   2.412   5.830   0.551 -1.3021 -0.9479 -1.5389
 2809TIP3    H229919   2.326   5.914   0.643 -0.9097 -2.3631  0.1690
 2810TIP3   OH229920   4.025   1.335   1.945  0.0457  0.0000 -0.3207
 2810TIP3    H129921   4.010   1.260   2.003  0.9897 -0.0824 -0.1774
 2810TIP3    H229922   4.040   1.295   1.859 -0.8259  0.0997 -0.5328
 2811TIP3   OH229923   6.608   1.023  10.977 -0.3943  0.7294  0.2668
 2811TIP3    H129924   6.579   0.942  10.934  2.2325  0.8031 -1.9372
 2811TIP3    H229925   6.689   1.046  10.932 -0.3079  3.8804  1.7630
 2812TIP3   OH229926   4.970   3.118   1.862 -0.2137 -0.3020  0.1598
 2812TIP3    H129927   5.061   3.109   1.890 -0.1335  0.9490  0.3259
 2812TIP3    H229928   4.975   3.115   1.766 -0.3952 -3.6621  0.1374
 2813TIP3   OH229929   0.196   6.123  11.453  0.4818  0.1334  0.2311
 2813TIP3    H129930   0.151   6.063  11.395 -1.0165  0.2605  1.2180
 2813TIP3    H229931   0.238   6.186  11.395  1.7064 -1.5513 -0.8052
 2814TIP3   OH229932   1.581   2.951  16.008 -0.4757  0.0382  0.3513
 2814TIP3    H129933   1.506   2.908  16.049 -2.0947 -0.9999 -3.2438
 2814TIP3    H229934   1.621   2.883  15.954  1.1624  1.3671 -0.1978
 2815TIP3   OH229935   0.250   4.590   2.701 -0.3464  0.3981  0.2242
 2815TIP3    H129936   0.226   4.558   2.788 -0.2686  2.9747  1.3052
 2815TIP3    H229937   0.225   4.520   2.641  0.5304 -1.8966  2.3833
 2816TIP3   OH229938   1.553   1.208  12.819  0.3285 -0.6085 -0.0543
 2816TIP3    H129939   1.495   1.262  12.766 -0.4071 -1.8296 -0.5190
 2816TIP3    H229940   1.515   1.120  12.817  0.6452 -0.8495  1.9596
 2817TIP3   OH229941   3.686   6.273  11.943  0.1432 -0.2293  0.2682
 2817TIP3    H129942   3.737   6.354  11.946  1.6244 -1.1332  0.5908
 2817TIP3    H229943   3.664   6.262  11.851 -0.9817  1.0500  0.3491
 2818TIP3   OH229944   4.087   3.559  14.584 -0.2373 -0.2556  0.3657
 2818TIP3    H129945   4.101   3.590  14.495 -2.8261  3.7042  1.0580
 2818TIP3    H229946   3.999   3.521  14.583  0.4565 -1.9399  0.8974
 2819TIP3   OH229947   3.827   4.118   0.610 -0.5068 -0.1291  0.2195
 2819TIP3    H129948   3.758   4.184   0.610 -0.7214 -0.3461 -0.4872
 2819TIP3    H229949   3.829   4.085   0.700 -1.1378  0.0712  0.3092
 2820TIP3   OH229950   3.803   6.816   5.667 -0.5201  0.4904  0.3191
 2820TIP3    H129951   3.848   6.851   5.590 -1.3896  1.7427  0.3472
 2820TIP3    H229952   3.732   6.762   5.632 -0.3129  0.2669  0.2480
 2821TIP3   OH229953   5.971   6.487   3.975 -0.3101  0.2945  0.0890
 2821TIP3    H129954   5.883   6.523   3.967 -0.1662  1.0068  1.3545
 2821TIP3    H229955   5.971   6.409   3.920 -1.7191  0.3051  0.0494
 2822TIP3   OH229956   0.779   2.178  12.647  0.6542 -0.7142 -0.6279
 2822TIP3    H129957   0.729   2.244  12.695 -0.0310 -0.3625 -1.7754
 2822TIP3    H229958   0.724   2.099  12.651  0.6597 -0.7225 -0.7017
 2823TIP3   OH229959   2.395   3.028   1.538  0.4846  0.6485  0.1956
 2823TIP3    H129960   2.466   2.977   1.498  0.1117  0.0689  0.2703
 2823TIP3    H229961   2.433   3.115   1.551  0.6402  0.8480 -1.3778
 2824TIP3   OH229962   6.717   0.436  16.822 -0.3905 -0.2728 -0.0894
 2824TIP3    H129963   6.694   0.353  16.781  1.2676  0.2282 -2.2260
 2824TIP3    H229964   6.790   0.415  16.880 -1.2075 -0.5847  0.8581
 2825TIP3   OH229965   0.095   4.098   0.027  0.4461 -0.2010 -0.2487
 2825TIP3    H129966   0.153   4.048  -0.029 -0.5391 -0.9534 -0.6204
 2825TIP3    H229967   0.094   4.050   0.110 -0.5205 -0.8312 -0.6145
 2826TIP3   OH229968   0.809   4.877   1.161 -0.0350  0.1396  0.0306
 2826TIP3    H129969   0.796   4.821   1.085  2.6214  0.4154 -0.7321
 2826TIP3    H229970   0.783   4.823   1.236 -1.6079 -0.5337 -0.9672
 2827TIP3   OH229971   2.626   3.363   2.595  0.0466  0.1987 -0.3641
 2827TIP3    H129972   2.564   3.305   2.552  0.3069  0.1895 -0.7369
 2827TIP3    H229973   2.579   3.398   2.671 -1.0405  1.6036 -1.6344
 2828TIP3   OH229974   5.463   0.368  11.451  0.1337  0.2747 -0.1369
 2828TIP3    H129975   5.500   0.421  11.380  0.2684 -0.1940 -0.4227
 2828TIP3    H229976   5.454   0.280  11.413 -1.9710  0.5174 -0.3206
 2829TIP3   OH229977   0.739   1.921   3.167  0.1137  0.8581 -0.6657
 2829TIP3    H129978   0.740   2.017   3.159 -1.1018  0.8231 -1.4180
 2829TIP3    H229979   0.677   1.892   3.101  0.6252 -0.4823 -0.5809
 2830TIP3   OH229980   1.724   5.349  11.470  0.4320 -0.1313 -0.5823
 2830TIP3    H129981   1.747   5.369  11.379  2.3785 -0.3552 -0.1848
 2830TIP3    H229982   1.739   5.254  11.477  0.0900 -0.1487 -0.0776
 2831TIP3   OH229983   1.889   3.077   4.680  0.0430 -0.4138  0.1247
 2831TIP3    H129984   1.947   3.026   4.735  1.3480  1.2455  0.3713
 2831TIP3    H229985   1.808   3.027   4.677  0.8118 -1.8026  1.4270
 2832TIP3   OH229986   4.919   2.976  10.974  0.2376  0.1344 -0.1883
 2832TIP3    H129987   4.933   2.889  10.936 -0.8670 -0.3521  0.4579
 2832TIP3    H229988   4.964   3.035  10.914  2.9330 -1.0426  0.5279
 2833TIP3   OH229989   0.211   1.482  16.426  0.1095 -0.0829  1.0606
 2833TIP3    H129990   0.220   1.390  16.402  0.6039  0.2529 -0.1778
 2833TIP3    H229991   0.281   1.526  16.376 -1.1336  1.1584  0.3279
 2834TIP3   OH229992   5.229   0.173   5.851 -0.6807 -0.1400 -0.1266
 2834TIP3    H129993   5.164   0.130   5.907 -0.8090 -0.1198 -0.2608
 2834TIP3    H229994   5.193   0.167   5.763 -0.6210  0.0972 -0.1688
 2835TIP3   OH229995   2.716   6.763  14.507 -0.1701  0.2595  0.0018
 2835TIP3    H129996   2.639   6.744  14.454 -0.7240 -3.2054  1.7473
 2835TIP3    H229997   2.763   6.831  14.458 -3.2724  1.1138 -2.0924
 2836TIP3   OH229998   0.943   6.125   4.328  0.2952 -0.5152 -0.7408
 2836TIP3    H129999   0.880   6.118   4.399  1.9062  1.0060  0.9597
 2836TIP3    H230000   0.898   6.175   4.259 -0.3588  0.5401  0.4228
 2837TIP3   OH230001   2.677   3.850  13.813  0.3873 -0.4260  0.4601
 2837TIP3    H130002   2.685   3.765  13.856 -3.3271 -0.3208  1.7505
 2837TIP3    H230003   2.627   3.832  13.733  1.0705  0.3696 -0.1715
 2838TIP3   OH230004   5.573   1.128  12.707  0.1625  0.1233  0.3110
 2838TIP3    H130005   5.593   1.070  12.633  0.4031  0.1394  0.3617
 2838TIP3    H230006   5.486   1.102  12.735 -0.6280  1.1977 -1.0130
 2839TIP3   OH230007   6.839   1.985  16.712  0.6483 -0.3126  0.3503
 2839TIP3    H130008   6.914   2.039  16.738  1.4882 -0.3491 -1.7949
 2839TIP3    H230009   6.764   2.043  16.723  1.1077  0.1182  1.3941
 2840TIP3   OH230010   2.988   0.448  14.619 -0.3068 -0.1445 -0.7768
 2840TIP3    H130011   3.026   0.362  14.635  1.1081  0.5972  0.1232
 2840TIP3    H230012   3.024   0.503  14.688 -1.5037  1.0859 -1.0862
 2841TIP3   OH230013   6.359   4.916  13.782  0.5866  0.0861 -0.1642
 2841TIP3    H130014   6.293   4.914  13.713  0.4457  0.4244 -0.0411
 2841TIP3    H230015   6.310   4.931  13.863  0.7039 -0.7224  0.0706
 2842TIP3   OH230016   0.335   1.384   5.179  0.0097  0.0448 -0.6467
 2842TIP3    H130017   0.291   1.377   5.264  0.1531  0.7977 -0.4989
 2842TIP3    H230018   0.386   1.465   5.186 -1.7736  1.3729 -2.2905
 2843TIP3   OH230019   5.398   2.818  13.049 -0.3528  0.6519 -0.2646
 2843TIP3    H130020   5.304   2.820  13.067 -0.1064  1.0833  1.0449
 2843TIP3    H230021   5.418   2.725  13.039 -0.9909  0.5858 -0.9837
 2844TIP3   OH230022   2.156   2.143   2.955  0.4686 -0.5112 -0.2058
 2844TIP3    H130023   2.135   2.074   3.018 -0.2579  0.8237  1.0849
 2844TIP3    H230024   2.231   2.188   2.994  1.0286 -0.6578 -1.1050
 2845TIP3   OH230025   5.452   1.228   5.438  0.0207 -0.3413 -0.1239
 2845TIP3    H130026   5.420   1.237   5.527 -0.6365 -2.2224 -0.1275
 2845TIP3    H230027   5.496   1.143   5.437 -1.2799 -1.0491 -1.9377
 2846TIP3   OH230028   1.636   0.282   5.751 -0.4042  0.6402  0.3687
 2846TIP3    H130029   1.691   0.359   5.735  0.4546  0.4045  1.9167
 2846TIP3    H230030   1.685   0.232   5.817 -0.7956 -1.3901 -0.7868
 2847TIP3   OH230031   2.360   0.223  15.986  0.9490 -0.5210  0.7027
 2847TIP3    H130032   2.335   0.291  16.048 -0.5384  0.2346 -0.6758
 2847TIP3    H230033   2.291   0.157  15.993 -0.1979  0.3885 -1.3391
 2848TIP3   OH230034   4.188   6.306  11.553 -0.5701  0.0975 -0.2568
 2848TIP3    H130035   4.150   6.341  11.634  0.2992  0.3816  0.0445
 2848TIP3    H230036   4.222   6.220  11.578 -1.2296 -0.2650 -0.5879
 2849TIP3   OH230037   5.191   6.009  12.995 -0.7843 -0.4227  0.0284
 2849TIP3    H130038   5.132   6.078  13.024  0.7208  1.6312 -1.5479
 2849TIP3    H230039   5.272   6.025  13.042  0.0760 -0.1270 -1.5069
 2850TIP3   OH230040   1.273   2.444  11.716 -0.3479  0.1265 -0.1200
 2850TIP3    H130041   1.238   2.356  11.700 -1.8532  0.7700 -0.5678
 2850TIP3    H230042   1.203   2.503  11.686  0.6235  1.4739  0.1948
 2851TIP3   OH230043   1.787   6.624   1.247 -0.0696 -0.5147  0.4668
 2851TIP3    H130044   1.695   6.644   1.265  0.1161 -0.0261  0.8882
 2851TIP3    H230045   1.832   6.708   1.252  0.6895 -0.9860  2.0760
 2852TIP3   OH230046   3.896   1.453  17.054  0.2378 -0.4153 -0.0666
 2852TIP3    H130047   3.973   1.508  17.043 -0.0630  0.4844  1.8539
 2852TIP3    H230048   3.889   1.439  17.149 -1.6949 -0.8397 -0.2152
 2853TIP3   OH230049   3.069   2.073   1.549 -0.5683  0.2238 -0.0613
 2853TIP3    H130050   3.042   1.984   1.574 -0.6960  0.9386  2.6076
 2853TIP3    H230051   3.057   2.125   1.628  1.9994  2.1057 -0.7732
 2854TIP3   OH230052   5.037   3.979  13.159 -0.7758 -0.3565  0.0252
 2854TIP3    H130053   5.019   3.986  13.253 -1.3744  3.3743 -0.2063
 2854TIP3    H230054   5.116   4.031  13.145 -0.4743 -1.1520 -1.5315
 2855TIP3   OH230055   2.828   1.467  16.385 -0.3240  0.2933 -0.3218
 2855TIP3    H130056   2.811   1.384  16.340 -1.9101 -0.0995  0.9065
 2855TIP3    H230057   2.806   1.534  16.321 -1.6362 -0.2596 -0.4887
 2856TIP3   OH230058   2.636   5.176   1.325  0.5219 -0.5573 -0.3393
 2856TIP3    H130059   2.729   5.180   1.347 -0.1249  0.9580  2.5674
 2856TIP3    H230060   2.597   5.120   1.393 -0.9894  0.6414 -0.1671
 2857TIP3   OH230061   3.465   4.277   5.113  0.4719  0.5458  0.4025
 2857TIP3    H130062   3.471   4.354   5.056 -1.1233  0.3672 -0.0615
 2857TIP3    H230063   3.371   4.258   5.117  0.5878  0.1268  2.5300
 2858TIP3   OH230064   1.696   2.807   5.820  0.2742 -0.0648 -0.6347
 2858TIP3    H130065   1.632   2.842   5.758  0.1527  0.3644 -0.2705
 2858TIP3    H230066   1.746   2.883   5.848 -0.8678  0.0609  1.1811
 2859TIP3   OH230067   1.088   6.397   2.415 -0.0153 -0.2028 -0.1871
 2859TIP3    H130068   1.070   6.461   2.484 -1.6282 -0.2167 -0.5463
 2859TIP3    H230069   1.102   6.449   2.336  3.1836 -0.1075  0.3143
 2860TIP3   OH230070   3.010   6.145  13.482 -0.0793  0.6437  0.5800
 2860TIP3    H130071   3.037   6.227  13.441  0.7040 -0.0697 -0.3761
 2860TIP3    H230072   3.070   6.134  13.556  1.2741 -0.1533 -0.6086
 2861TIP3   OH230073   1.660   0.220  13.675 -0.0039 -0.2751 -0.4273
 2861TIP3    H130074   1.719   0.295  13.688 -0.0978  0.1179 -2.0589
 2861TIP3    H230075   1.693   0.154  13.736  1.6495  0.2111 -0.7287
 2862TIP3   OH230076   6.668   3.782  16.538 -0.3958  0.0478 -0.2080
 2862TIP3    H130077   6.580   3.787  16.500 -0.8249  1.9108  0.9166
 2862TIP3    H230078   6.653   3.750  16.627  0.0223  0.7173  0.1021
 2863TIP3   OH230079   5.847   0.017   2.181 -0.0339 -0.3508 -0.0105
 2863TIP3    H130080   5.928   0.034   2.134 -1.2890  0.8289 -1.8930
 2863TIP3    H230081   5.797   0.099   2.173 -1.5573 -1.1581  0.7630
 2864TIP3   OH230082   4.237   3.632   4.553  0.2134 -0.5646 -0.1464
 2864TIP3    H130083   4.161   3.633   4.494  1.6475 -0.6824 -2.1120
 2864TIP3    H230084   4.264   3.724   4.558  1.4306 -0.7938 -1.6010
 2865TIP3   OH230085   6.442   2.214  15.854  0.1519  0.4456  0.5693
 2865TIP3    H130086   6.523   2.166  15.869  0.6740  1.4040  0.8877
 2865TIP3    H230087   6.427   2.208  15.760 -0.5786 -1.5581  0.7633
 2866TIP3   OH230088   0.306   2.294  16.571 -0.5181  0.0017  0.3536
 2866TIP3    H130089   0.222   2.250  16.561 -1.6369  1.9273  0.8743
 2866TIP3    H230090   0.341   2.300  16.483 -1.3395 -0.0559  0.0162
 2867TIP3   OH230091   1.616   3.657   2.374  0.1141 -0.4221  0.1630
 2867TIP3    H130092   1.577   3.574   2.403 -0.7513 -0.4855 -1.0441
 2867TIP3    H230093   1.540   3.710   2.349  0.7528 -0.5636 -2.3343
 2868TIP3   OH230094   4.170   0.513  16.424  0.0907  0.3642 -0.2519
 2868TIP3    H130095   4.207   0.430  16.456  0.7612 -0.1237 -2.1869
 2868TIP3    H230096   4.246   0.569  16.408 -0.2755  0.8602 -0.2846
 2869TIP3   OH230097   1.271   5.153  11.841 -0.0548  0.1295  0.2889
 2869TIP3    H130098   1.193   5.152  11.786  0.9511  0.2733 -1.1883
 2869TIP3    H230099   1.343   5.139  11.781  1.0645 -0.1667  1.6495
 2870TIP3   OH230100   2.160   2.727  15.828  0.1356  0.1707 -0.2591
 2870TIP3    H130101   2.089   2.666  15.848  0.1036 -0.1224 -1.2331
 2870TIP3    H230102   2.128   2.811  15.860  0.3867 -0.3746  1.5707
 2871TIP3   OH230103   2.950   2.535  15.055 -0.2084 -0.0532  0.1768
 2871TIP3    H130104   3.024   2.484  15.089 -0.0173 -0.6137 -1.0318
 2871TIP3    H230105   2.911   2.479  14.989 -0.3371  1.1577 -0.8023
 2872TIP3   OH230106   2.389   4.507   4.114 -0.3249 -0.0787  0.0123
 2872TIP3    H130107   2.448   4.433   4.096  2.0571  1.0923  2.2711
 2872TIP3    H230108   2.312   4.467   4.154 -1.4656 -1.7166 -3.4175
 2873TIP3   OH230109   4.861   6.252  14.828  0.4387  0.4269  0.0086
 2873TIP3    H130110   4.812   6.184  14.874  0.3440  1.1826  1.0566
 2873TIP3    H230111   4.914   6.293  14.897 -0.1184  1.9557 -0.4429
 2874TIP3   OH230112   3.075   1.551   4.170 -0.2818  0.2424  0.1850
 2874TIP3    H130113   3.000   1.604   4.144 -0.5825  0.1502  0.8364
 2874TIP3    H230114   3.151   1.599   4.139 -0.3505  2.5721  3.1677
 2875TIP3   OH230115   4.764   1.748  14.111 -0.0490 -0.0658  0.1357
 2875TIP3    H130116   4.833   1.705  14.060  0.4770  0.8455  0.0649
 2875TIP3    H230117   4.802   1.757  14.198 -0.5755 -0.7210  0.4414
 2876TIP3   OH230118   2.435   6.445   1.776  0.2895  0.2893  0.0934
 2876TIP3    H130119   2.454   6.365   1.824  1.2365  0.8401  0.6623
 2876TIP3    H230120   2.388   6.500   1.839 -1.4089 -0.2432 -0.6496
 2877TIP3   OH230121   3.301   5.808   3.191  0.2707  0.6166 -0.1609
 2877TIP3    H130122   3.237   5.752   3.235 -0.5543  2.6100  1.2736
 2877TIP3    H230123   3.248   5.868   3.138  0.5284  4.3170  3.3589
 2878TIP3   OH230124   5.851   2.741   5.224 -0.2767  0.8332 -0.6736
 2878TIP3    H130125   5.923   2.708   5.170  1.0316 -0.5633  1.7458
 2878TIP3    H230126   5.890   2.751   5.312 -2.6885  1.4224  0.4056
 2879TIP3   OH230127   5.967   1.613   5.825 -0.3963  0.4241  0.7348
 2879TIP3    H130128   5.950   1.662   5.906 -0.2380 -1.5902  2.0516
 2879TIP3    H230129   6.016   1.536   5.853  1.8801  0.8785 -1.6453
 2880TIP3   OH230130   3.370   1.440   3.233  0.0551 -0.1396 -0.1220
 2880TIP3    H130131   3.336   1.523   3.202 -1.6064 -0.8875 -0.4446
 2880TIP3    H230132   3.433   1.413   3.167 -1.7342 -0.6069 -1.7255
 2881TIP3   OH230133   2.741   5.113   5.753 -0.0483 -0.2819 -0.1283
 2881TIP3    H130134   2.752   5.126   5.847 -4.1271 -0.7646  0.5952
 2881TIP3    H230135   2.808   5.048   5.729  0.3125 -1.0470  2.6772
 2882TIP3   OH230136   1.524   4.505  17.083  0.1976  0.2211  0.0043
 2882TIP3    H130137   1.589   4.438  17.099  1.4422  1.5971  0.9901
 2882TIP3    H230138   1.464   4.500  17.157  1.1220  1.1023  0.8390
 2883TIP3   OH230139   4.790   6.561  12.565 -0.4026 -0.3816  0.5863
 2883TIP3    H130140   4.710   6.602  12.597 -0.2783 -0.8182  1.4842
 2883TIP3    H230141   4.767   6.468  12.556 -0.6008 -0.1994 -1.1531
 2884TIP3   OH230142   3.052   0.966   4.073  0.6494  0.3541 -0.2172
 2884TIP3    H130143   3.120   0.918   4.120  0.6925 -0.1337 -0.7584
 2884TIP3    H230144   2.999   0.898   4.031  1.1381  0.7843 -1.5843
 2885TIP3   OH230145   3.182   3.133   0.727 -0.5567 -0.0306 -0.1364
 2885TIP3    H130146   3.093   3.098   0.727 -1.0659  1.1834  1.1273
 2885TIP3    H230147   3.173   3.221   0.692  0.1418  0.1354  0.0867
 2886TIP3   OH230148   1.233   2.534   3.619 -0.0477 -0.1231 -0.1921
 2886TIP3    H130149   1.255   2.531   3.526  1.1023 -1.8415  0.0863
 2886TIP3    H230150   1.223   2.442   3.644  2.9630 -0.0119  2.0821
 2887TIP3   OH230151   3.720   3.417  13.566  0.4302  0.6615 -0.3277
 2887TIP3    H130152   3.707   3.331  13.527 -1.2350  0.6800  0.1008
 2887TIP3    H230153   3.714   3.478  13.493 -2.8704  0.7163 -0.1825
 2888TIP3   OH230154   4.730   3.610   3.941 -0.2114  0.1379  0.1157
 2888TIP3    H130155   4.782   3.547   3.990 -1.3784 -1.2370 -0.3229
 2888TIP3    H230156   4.644   3.610   3.984 -0.0695  1.9549  0.5065
 2889TIP3   OH230157   0.669   0.231  12.673  0.4918 -0.5070 -0.4807
 2889TIP3    H130158   0.595   0.221  12.613 -0.8254 -0.4438  1.0651
 2889TIP3    H230159   0.691   0.324  12.667 -0.9792 -0.0373  0.5674
 2890TIP3   OH230160   6.208   1.701  12.185 -0.4001 -0.5922  0.6261
 2890TIP3    H130161   6.240   1.777  12.137 -1.2555  0.1248  1.1624
 2890TIP3    H230162   6.276   1.684  12.251 -0.1193 -0.4115  0.3854
 2891TIP3   OH230163   5.080   4.318   0.340  0.3189  0.0609 -0.5540
 2891TIP3    H130164   5.143   4.381   0.305  2.1773 -1.5487 -0.2555
 2891TIP3    H230165   5.048   4.271   0.263 -1.0974  1.3078 -0.7814
 2892TIP3   OH230166   3.016   6.049   5.981 -0.2866 -0.4129  0.5644
 2892TIP3    H130167   3.094   6.056   5.926  0.1614 -0.1634  1.2175
 2892TIP3    H230168   3.001   5.955   5.990 -1.5282 -0.4804 -1.5793
 2893TIP3   OH230169   3.163   1.593  14.267 -0.0928  0.0535  0.3438
 2893TIP3    H130170   3.114   1.630  14.194 -2.8079  1.4305  2.6372
 2893TIP3    H230171   3.116   1.512  14.289 -1.0251  1.0165  2.1339
 2894TIP3   OH230172   4.742   2.710  11.715  0.3080 -0.4246 -0.0145
 2894TIP3    H130173   4.815   2.654  11.743  0.5151  0.1101  0.5533
 2894TIP3    H230174   4.783   2.780  11.665  0.4111  0.7482  1.6071
 2895TIP3   OH230175   0.991   5.309  16.888  0.3911  0.1518  0.4575
 2895TIP3    H130176   0.989   5.321  16.983  0.1837 -1.2184  0.6536
 2895TIP3    H230177   1.061   5.245  16.873  0.5618  0.5119 -0.3347
 2896TIP3   OH230178   0.994   2.100  14.563  0.2574  0.2984 -0.5141
 2896TIP3    H130179   0.995   2.123  14.470  1.4040  2.2714 -0.0800
 2896TIP3    H230180   1.072   2.046  14.576 -0.7546 -1.3408 -0.9475
 2897TIP3   OH230181   5.320   0.959  14.964 -0.0720 -0.0951  0.0805
 2897TIP3    H130182   5.373   0.953  14.885 -0.7890 -0.4633 -0.3889
 2897TIP3    H230183   5.379   0.993  15.031  0.7751 -0.6093 -0.3973
 2898TIP3   OH230184   0.055   3.528  11.315 -0.0172  0.0193 -0.3241
 2898TIP3    H130185   0.037   3.532  11.409  0.0962  0.4928 -0.3178
 2898TIP3    H230186   0.040   3.618  11.284 -3.3091 -0.7568 -1.3793
 2899TIP3   OH230187   2.268   0.271  15.689 -0.6580 -0.2534 -0.1660
 2899TIP3    H130188   2.286   0.206  15.622  0.6004  1.7670 -1.9149
 2899TIP3    H230189   2.335   0.257  15.756  0.5258  0.1564 -1.2488
 2900TIP3   OH230190   3.522   4.545   0.450  0.1254  0.6891 -0.3753
 2900TIP3    H130191   3.457   4.604   0.488 -0.3533 -0.0653 -0.0019
 2900TIP3    H230192   3.581   4.603   0.401 -0.9713  1.3517 -0.9414
 2901TIP3   OH230193   4.763   2.636  15.649 -0.3960  0.2872 -0.1217
 2901TIP3    H130194   4.716   2.565  15.605 -1.0554  0.5194  0.1972
 2901TIP3    H230195   4.716   2.716  15.623 -0.4822  0.4749  0.6039
 2902TIP3   OH230196   2.930   0.112   4.914 -0.6124  0.2197 -0.2807
 2902TIP3    H130197   3.023   0.120   4.893 -0.5080 -0.8069 -0.2742
 2902TIP3    H230198   2.904   0.199   4.944  0.5721  0.2794  0.6248
 2903TIP3   OH230199   2.937   3.450   2.914 -0.2894 -0.2473  0.5796
 2903TIP3    H130200   2.845   3.463   2.890 -0.3603 -2.1249 -0.3827
 2903TIP3    H230201   2.934   3.402   2.996 -0.1731 -0.6161  0.3685
 2904TIP3   OH230202   4.709   5.595   4.180 -0.2882 -0.1532  0.3757
 2904TIP3    H130203   4.625   5.598   4.226 -0.3213  1.9006  0.2479
 2904TIP3    H230204   4.693   5.536   4.106 -2.1008  1.3700 -0.5141
 2905TIP3   OH230205   2.898   2.462  14.512 -0.4543 -0.2114  0.2265
 2905TIP3    H130206   2.971   2.509  14.471 -0.7877  0.1175 -0.0079
 2905TIP3    H230207   2.939   2.403  14.574  0.1540 -1.4432 -1.2724
 2906TIP3   OH230208   3.700   6.802  15.082 -0.5758  0.5626 -0.3703
 2906TIP3    H130209   3.615   6.843  15.065  0.2008  1.9662 -1.0252
 2906TIP3    H230210   3.751   6.871  15.126 -0.0974 -0.5974  0.9559
 2907TIP3   OH230211   5.690   4.106   3.057 -0.1633 -0.8571  0.2040
 2907TIP3    H130212   5.598   4.094   3.081 -0.7081  2.0651 -0.0022
 2907TIP3    H230213   5.688   4.126   2.964  0.2903  1.8350  0.6853
 2908TIP3   OH230214   3.975   0.468  17.097  0.5278  0.2639  0.2693
 2908TIP3    H130215   3.883   0.445  17.110  0.5334  0.1205  0.0561
 2908TIP3    H230216   4.004   0.498  17.183  0.0070  1.2974  0.1080
 2909TIP3   OH230217   6.066   1.034   2.382  0.3273  0.1304 -0.3336
 2909TIP3    H130218   6.021   1.064   2.461  1.1814 -0.3127  0.3466
 2909TIP3    H230219   6.156   1.017   2.411  0.1242 -2.1986 -0.8696
 2910TIP3   OH230220   3.990   4.268   2.276  0.0765 -0.0063  0.2894
 2910TIP3    H130221   3.913   4.302   2.322 -0.6515 -2.6443  1.2058
 2910TIP3    H230222   3.958   4.246   2.188 -0.2539 -1.1343  0.6811
 2911TIP3   OH230223   4.792   2.510   4.327  0.1404  0.1422  0.1771
 2911TIP3    H130224   4.874   2.462   4.340 -0.2396 -1.0069 -1.3665
 2911TIP3    H230225   4.723   2.448   4.352 -0.3296  0.1556 -1.0368
 2912TIP3   OH230226   4.553   4.095   1.894 -0.6961 -1.4693  0.5511
 2912TIP3    H130227   4.500   4.077   1.971 -0.5222 -2.1694  0.5077
 2912TIP3    H230228   4.493   4.137   1.832 -0.0017  3.1802  2.5658
 2913TIP3   OH230229   5.269   4.605   2.196  0.1335  0.1792 -0.5116
 2913TIP3    H130230   5.253   4.538   2.262 -0.0131  1.1883  0.4892
 2913TIP3    H230231   5.361   4.593   2.172  0.3671  0.2197  0.3516
 2914TIP3   OH230232   1.205   2.344  15.820  0.5430  0.0765  0.2145
 2914TIP3    H130233   1.282   2.384  15.778  0.6878 -2.1539 -1.8681
 2914TIP3    H230234   1.134   2.406  15.803  1.3365  0.9173 -0.1806
 2915TIP3   OH230235   2.469   4.576  13.755  0.1505 -0.1646  0.6602
 2915TIP3    H130236   2.488   4.577  13.661 -1.4992  1.6305  0.2790
 2915TIP3    H230237   2.468   4.484  13.778  0.9188 -0.6361 -1.0081
 2916TIP3   OH230238   1.728   5.932  14.911 -0.1858 -0.4265 -0.2637
 2916TIP3    H130239   1.757   5.848  14.873 -0.4932 -0.6341 -0.0413
 2916TIP3    H230240   1.748   5.997  14.843  0.2825 -0.6447 -0.3394
 2917TIP3   OH230241   3.603   2.407  14.291  0.4681  0.4902 -0.2187
 2917TIP3    H130242   3.509   2.407  14.274  0.4026  2.7433 -0.1814
 2917TIP3    H230243   3.613   2.451  14.375  1.6114  1.6424 -0.9145
 2918TIP3   OH230244   3.906   2.056   5.307  0.0546 -0.1302  0.4473
 2918TIP3    H130245   3.891   2.065   5.401 -0.0077  1.5842  0.3129
 2918TIP3    H230246   3.841   2.115   5.267  0.2814 -0.6087 -0.6506
 2919TIP3   OH230247   6.655   3.781   5.592 -0.1222 -0.5842 -0.0219
 2919TIP3    H130248   6.721   3.805   5.527 -0.2783 -0.5412 -0.1648
 2919TIP3    H230249   6.590   3.851   5.588  2.0437  1.9839  3.3802
 2920TIP3   OH230250   0.808   2.787   4.773  0.1362  0.2861  0.7507
 2920TIP3    H130251   0.750   2.726   4.729 -0.7252  1.6339 -0.0446
 2920TIP3    H230252   0.750   2.851   4.814  1.0209  1.4223  0.3010
 2921TIP3   OH230253   2.214   4.457  13.918  0.6156 -0.3623 -0.0473
 2921TIP3    H130254   2.217   4.368  13.953  1.8293 -0.3118  0.0092
 2921TIP3    H230255   2.246   4.449  13.828  0.1415 -0.0771 -0.2421
 2922TIP3   OH230256   0.722   0.520   4.757  0.2574 -0.2946 -0.6048
 2922TIP3    H130257   0.630   0.496   4.760 -0.8356  3.3762  0.3043
 2922TIP3    H230258   0.737   0.570   4.837  3.1554 -1.0143 -0.5855
 2923TIP3   OH230259   5.616   0.545  16.585 -0.4336 -0.3009  0.2738
 2923TIP3    H130260   5.556   0.558  16.659 -0.4560 -0.9335  0.3686
 2923TIP3    H230261   5.641   0.634  16.559 -0.1218 -0.0874  1.2889
 2924TIP3   OH230262   1.415   3.106   0.376  0.0762 -0.8631  0.1805
 2924TIP3    H130263   1.365   3.187   0.381  0.9249  0.0156 -2.9812
 2924TIP3    H230264   1.503   3.133   0.349  0.2948 -2.8109 -1.3126
 2925TIP3   OH230265   2.465   0.338   2.809 -0.0274  0.2306 -0.5705
 2925TIP3    H130266   2.522   0.372   2.878  0.7284 -1.1695 -0.4642
 2925TIP3    H230267   2.486   0.392   2.732 -1.1361  2.0308  0.3372
 2926TIP3   OH230268   5.321   0.412  11.790  0.1740 -0.4298  0.3551
 2926TIP3    H130269   5.286   0.378  11.708  1.0139  0.5288 -0.4395
 2926TIP3    H230270   5.251   0.398  11.854  0.2725 -3.0957 -0.0010
 2927TIP3   OH230271   4.052   3.064  11.496  0.2774 -0.3532 -0.0176
 2927TIP3    H130272   4.103   3.108  11.427  0.4998 -0.1500  0.2749
 2927TIP3    H230273   4.078   3.108  11.577 -0.9782  0.3356  0.0532
 2928TIP3   OH230274   2.671   5.492  11.359  0.0337 -0.1613  0.3772
 2928TIP3    H130275   2.657   5.436  11.435 -0.4823  0.4390  0.7356
 2928TIP3    H230276   2.747   5.454  11.315 -1.1191 -1.9586 -0.1749
 2929TIP3   OH230277   3.640   6.845   1.479  0.0046 -0.6638 -0.8753
 2929TIP3    H130278   3.719   6.898   1.474  0.1981 -0.9130 -0.5212
 2929TIP3    H230279   3.620   6.840   1.572 -0.9400  0.1361 -1.0151
 2930TIP3   OH230280   6.750   1.164   1.415  0.0204  0.1108 -0.1434
 2930TIP3    H130281   6.716   1.181   1.503  1.1183  1.2792  0.0785
 2930TIP3    H230282   6.775   1.250   1.382  0.6430 -0.4462 -1.1758
 2931TIP3   OH230283   4.981   2.030   1.479 -0.2743  0.2305 -0.0336
 2931TIP3    H130284   4.886   2.031   1.492 -0.0616  2.7107  2.1314
 2931TIP3    H230285   4.995   2.083   1.400 -0.6479  0.9130  0.3478
 2932TIP3   OH230286   0.424   2.945   0.949  0.3754  0.0056 -0.4668
 2932TIP3    H130287   0.510   2.952   0.907  0.4901  0.2284 -0.1913
 2932TIP3    H230288   0.396   2.855   0.930  0.5213  0.0376 -0.8427
 2933TIP3   OH230289   0.278   3.109   1.559 -0.3117  0.2050 -0.1293
 2933TIP3    H130290   0.332   3.142   1.487 -2.2207  0.3455 -1.5585
 2933TIP3    H230291   0.320   3.026   1.584  0.8977  0.5949 -0.7960
 2934TIP3   OH230292   1.037   0.287  12.134 -0.0111 -0.2637  0.4600
 2934TIP3    H130293   0.994   0.234  12.066 -0.6487  1.3916 -0.4974
 2934TIP3    H230294   1.084   0.224  12.188 -0.3566 -1.7442 -0.8974
 2935TIP3   OH230295   4.522   3.236   4.977 -0.2350  0.4205  0.0642
 2935TIP3    H130296   4.532   3.174   5.050  0.2873  2.1350  1.5096
 2935TIP3    H230297   4.443   3.285   4.997 -2.8614 -2.1405 -3.0043
 2936TIP3   OH230298   0.368   4.963  10.402  0.0611 -0.4723 -0.3506
 2936TIP3    H130299   0.393   4.948  10.310 -1.0111 -0.0315 -0.7316
 2936TIP3    H230300   0.429   5.031  10.432  1.4058 -1.6597 -0.2472
 2937TIP3   OH230301   3.456   1.302  12.938 -0.2175 -0.6412 -0.6935
 2937TIP3    H130302   3.426   1.211  12.934  1.3635 -1.1899 -0.9080
 2937TIP3    H230303   3.551   1.295  12.944 -0.1880  0.9373  2.2163
 2938TIP3   OH230304   0.850   3.108   0.707  0.4631  0.2595  0.6912
 2938TIP3    H130305   0.801   3.177   0.663 -0.0797  1.0488  2.4598
 2938TIP3    H230306   0.864   3.140   0.796 -0.2382 -2.1025  1.7480
 2939TIP3   OH230307   5.227   4.213  14.868 -0.2875 -0.1989 -0.4471
 2939TIP3    H130308   5.155   4.169  14.913 -0.4210  2.1563  1.8314
 2939TIP3    H230309   5.301   4.204  14.927  0.3510  0.4717 -1.1155
 2940TIP3   OH230310   2.206   5.656  10.633 -0.2306 -0.1573  0.1244
 2940TIP3    H130311   2.268   5.652  10.706  0.2615  0.3126 -0.2594
 2940TIP3    H230312   2.133   5.710  10.666  0.5657  1.1152 -0.1336
 2941TIP3   OH230313   1.843   3.002   1.378  0.1216  0.1756 -0.1004
 2941TIP3    H130314   1.829   3.085   1.422 -1.3057  0.5388 -1.1604
 2941TIP3    H230315   1.928   2.971   1.410 -0.1107  1.1935  1.6117
 2942TIP3   OH230316   3.438   4.650   3.507 -0.3543 -0.1721  0.0230
 2942TIP3    H130317   3.360   4.703   3.520 -0.2885 -0.4592  2.0210
 2942TIP3    H230318   3.409   4.560   3.522  0.2519 -0.3210  0.3366
 2943TIP3   OH230319   3.152   0.527   4.945 -0.2820 -0.0262 -0.1697
 2943TIP3    H130320   3.124   0.576   4.868  0.6936  0.4124 -0.2662
 2943TIP3    H230321   3.086   0.546   5.012 -1.0426 -0.2700 -0.8396
 2944TIP3   OH230322   1.277   1.014   2.386 -0.2992  0.0409 -0.4693
 2944TIP3    H130323   1.269   1.013   2.291 -1.4721 -1.1112 -0.3815
 2944TIP3    H230324   1.294   0.923   2.410 -0.7331  0.2016  0.4830
 2945TIP3   OH230325   4.656   6.134   4.248 -0.4620 -0.7684  0.3000
 2945TIP3    H130326   4.651   6.103   4.338 -0.3323 -2.7901 -0.3428
 2945TIP3    H230327   4.592   6.081   4.200  0.7117 -1.0085 -1.0963
 2946TIP3   OH230328   0.998   3.484   2.204  0.0177 -0.1058 -0.3710
 2946TIP3    H130329   0.967   3.517   2.119  0.0090  0.9394  0.0216
 2946TIP3    H230330   0.951   3.537   2.268 -0.1359 -1.0384  0.2972
 2947TIP3   OH230331   3.381   4.180   1.188  0.0462 -0.4141 -0.2418
 2947TIP3    H130332   3.420   4.097   1.216  2.7684  0.8682  0.0953
 2947TIP3    H230333   3.388   4.237   1.265 -1.9083  0.1228 -0.4200
 2948TIP3   OH230334   0.773   2.152   0.549  0.1408  0.3225  0.0848
 2948TIP3    H130335   0.697   2.118   0.595 -0.7156  0.0167 -1.4763
 2948TIP3    H230336   0.754   2.245   0.536 -0.3911  0.0748 -1.0433
 2949TIP3   OH230337   6.138   4.404   2.061 -0.2643 -0.2816 -0.2051
 2949TIP3    H130338   6.205   4.427   1.996 -1.8588  1.3073 -1.3973
 2949TIP3    H230339   6.180   4.422   2.145  1.5069 -1.4015 -0.7776
 2950TIP3   OH230340   0.610   1.061  15.054 -0.0001  0.1707  0.0497
 2950TIP3    H130341   0.536   1.043  14.996  0.1003  3.9251 -1.5355
 2950TIP3    H230342   0.665   0.983  15.048 -1.8988 -1.1273 -1.8782
 2951TIP3   OH230343   4.645   1.782   0.478  0.0409 -0.1523 -0.0400
 2951TIP3    H130344   4.688   1.834   0.546  0.9949 -1.2398  0.2030
 2951TIP3    H230345   4.655   1.834   0.399  2.3211 -0.6134 -0.1084
 2952TIP3   OH230346   3.551   3.515  13.166 -0.2827 -0.1527 -0.1662
 2952TIP3    H130347   3.458   3.512  13.191  0.0550  0.7606  1.3973
 2952TIP3    H230348   3.598   3.505  13.249  0.9823  1.1077 -0.6797
 2953TIP3   OH230349   5.986   0.129   3.647  0.2022 -0.4604  0.8189
 2953TIP3    H130350   5.949   0.041   3.654 -0.8542 -0.0223  1.0246
 2953TIP3    H230351   5.951   0.176   3.724 -0.8763  0.6890 -0.3269
 2954TIP3   OH230352   3.093   5.464  16.195 -0.8092  0.1364  0.3043
 2954TIP3    H130353   3.142   5.540  16.163  1.2506 -1.0584  0.4445
 2954TIP3    H230354   3.079   5.410  16.116  0.8090 -0.9429  0.7106
 2955TIP3   OH230355   2.104   2.250  15.099 -0.3033 -0.1324  0.1801
 2955TIP3    H130356   2.065   2.252  15.011  3.2478 -0.9372 -1.6174
 2955TIP3    H230357   2.195   2.277  15.085 -0.0415  1.6625  4.0107
 2956TIP3   OH230358   5.161   2.092   4.513 -0.6784  0.2489  0.1622
 2956TIP3    H130359   5.212   2.029   4.564  0.8566  0.2340 -1.2787
 2956TIP3    H230360   5.154   2.169   4.569 -1.7846 -0.8199  1.5877
 2957TIP3   OH230361   0.178   4.652  11.843  0.2976  0.4810 -0.6249
 2957TIP3    H130362   0.105   4.674  11.901  1.3956 -0.8320  1.3498
 2957TIP3    H230363   0.236   4.599  11.896  0.9878 -1.5293 -3.1747
 2958TIP3   OH230364   5.674   1.663   0.630  0.1883 -0.2184 -0.1723
 2958TIP3    H130365   5.684   1.698   0.541 -1.3697  1.7543  0.3302
 2958TIP3    H230366   5.628   1.580   0.618  1.3370 -0.7255 -1.2757
 2959TIP3   OH230367   4.273   0.894  15.073 -0.2973  0.2095 -0.0700
 2959TIP3    H130368   4.300   0.986  15.067  0.5191  0.0164  0.4207
 2959TIP3    H230369   4.323   0.851  15.004 -0.0626  0.0066  0.2239
 2960TIP3   OH230370   4.108   0.078   4.849  0.5027  0.3301 -0.2799
 2960TIP3    H130371   4.060   0.141   4.903  0.8424  1.9062 -1.7390
 2960TIP3    H230372   4.158   0.026   4.912 -1.0865  0.3703  1.0847
 2961TIP3   OH230373   6.678   5.552  14.068  0.6854  0.8221  0.3836
 2961TIP3    H130374   6.640   5.559  14.155  2.2069  1.0168  1.0793
 2961TIP3    H230375   6.655   5.634  14.024 -1.7052 -0.0565 -0.1349
 2962TIP3   OH230376   0.010   1.676   0.166 -0.1515 -0.3377 -0.8941
 2962TIP3    H130377  -0.071   1.714   0.131 -0.5184 -0.0651  0.2133
 2962TIP3    H230378   0.056   1.750   0.205 -0.8692 -0.9805  1.2873
 2963TIP3   OH230379   4.041   6.288   2.701 -0.1858  0.2934  0.7918
 2963TIP3    H130380   4.026   6.371   2.655 -0.4617  0.6468  1.5038
 2963TIP3    H230381   4.134   6.271   2.689  0.0930  1.2328  1.4860
 2964TIP3   OH230382   1.392   5.612   6.143  0.7341 -0.4188  0.1362
 2964TIP3    H130383   1.463   5.588   6.203  0.8162  1.4153  0.8442
 2964TIP3    H230384   1.344   5.680   6.189 -0.0601  0.0364 -1.3123
 2965TIP3   OH230385   3.750   1.382  15.782  0.1837 -0.0768  0.1783
 2965TIP3    H130386   3.792   1.359  15.699 -0.3048 -0.8858  0.1426
 2965TIP3    H230387   3.662   1.411  15.757  0.6492  1.5023  0.2608
 2966TIP3   OH230388   4.036   3.940  14.930  0.4356 -0.0988  0.0521
 2966TIP3    H130389   3.995   3.855  14.911 -2.4964  0.9705  0.9793
 2966TIP3    H230390   4.099   3.952  14.859 -0.3039 -2.2976 -1.0864
 2967TIP3   OH230391   5.312   0.548  16.040 -0.3519 -0.5628 -0.1142
 2967TIP3    H130392   5.219   0.526  16.036 -0.2841 -0.7890 -0.5925
 2967TIP3    H230393   5.352   0.478  16.091 -0.3334 -0.8609 -0.5368
 2968TIP3   OH230394   4.631   3.067  13.961 -0.4782  0.1817  0.3314
 2968TIP3    H130395   4.542   3.097  13.941 -0.7317 -0.6166  0.2215
 2968TIP3    H230396   4.686   3.112  13.897 -0.7495  0.9947  0.6615
 2969TIP3   OH230397   2.762   5.853  13.591  0.1948 -0.0514  0.5641
 2969TIP3    H130398   2.701   5.908  13.640  0.6405 -0.0214  1.0999
 2969TIP3    H230399   2.738   5.763  13.616 -1.3559 -0.2031 -1.2772
 2970TIP3   OH230400   1.797   2.597  15.601  0.0175  0.6276 -0.2543
 2970TIP3    H130401   1.789   2.659  15.528  2.7289 -0.4285 -1.5784
 2970TIP3    H230402   1.783   2.511  15.561 -0.4667  0.1436  0.9117
 2971TIP3   OH230403   4.327   4.740  15.681 -0.6542  0.3737 -0.1639
 2971TIP3    H130404   4.392   4.792  15.634 -1.9880  0.6463 -1.8360
 2971TIP3    H230405   4.331   4.654  15.639 -0.4103 -0.0274  0.6708
 2972TIP3   OH230406   2.500   1.715   6.098 -0.5838 -0.4801 -0.0156
 2972TIP3    H130407   2.491   1.751   6.186 -0.5272  0.4222 -0.3639
 2972TIP3    H230408   2.417   1.734   6.055 -0.1416  0.2912 -0.5650
 2973TIP3   OH230409   4.102   2.069  15.488  0.6201 -0.1390 -0.9928
 2973TIP3    H130410   4.129   2.127  15.560 -1.6159 -0.6401  0.3432
 2973TIP3    H230411   4.007   2.081  15.482  0.6788 -0.4529 -3.6367
 2974TIP3   OH230412   1.316   1.271   5.558 -0.3734 -0.0141  0.3080
 2974TIP3    H130413   1.248   1.236   5.501 -0.5241 -1.3456  1.2518
 2974TIP3    H230414   1.268   1.312   5.630 -0.1878  1.6856 -0.4948
 2975TIP3   OH230415   1.203   6.715   1.206  0.4329  0.0509 -0.7448
 2975TIP3    H130416   1.262   6.783   1.238 -0.7941  1.2203 -0.8545
 2975TIP3    H230417   1.124   6.763   1.179 -0.5181 -1.4353 -0.7129
 2976TIP3   OH230418   0.621   4.960   2.800 -0.0820  0.4740  0.3166
 2976TIP3    H130419   0.549   4.929   2.856  1.4969 -1.2234  1.5476
 2976TIP3    H230420   0.674   5.015   2.858  0.8134 -0.1425  0.1025
 2977TIP3   OH230421   5.678   3.945   1.022 -0.1575 -0.2954 -0.3146
 2977TIP3    H130422   5.684   4.012   1.090  0.1664 -0.3965 -0.2453
 2977TIP3    H230423   5.686   3.862   1.070 -1.0454 -0.4042 -0.3358
 2978TIP3   OH230424   1.804   6.130  14.717  0.3540  0.0700  0.2265
 2978TIP3    H130425   1.831   6.196  14.654 -0.9169 -0.1716 -0.6001
 2978TIP3    H230426   1.749   6.070  14.668 -0.0629 -0.5476  1.3995
 2979TIP3   OH230427   5.603   6.273  17.016 -0.9638  1.4957  0.2650
 2979TIP3    H130428   5.531   6.248  16.958 -1.2480  2.0826  0.3573
 2979TIP3    H230429   5.591   6.218  17.094  0.1654 -0.2221 -0.7195
 2980TIP3   OH230430   3.044   6.110  16.863 -0.1221  0.1491  0.0818
 2980TIP3    H130431   3.045   6.017  16.885 -1.5385 -0.1935 -1.1190
 2980TIP3    H230432   3.134   6.139  16.876  0.7305 -1.7726 -1.0410
 2981TIP3   OH230433   1.063   5.969   3.370 -0.0261 -0.1791 -0.1053
 2981TIP3    H130434   1.080   6.060   3.396 -0.8033 -0.5081  1.7010
 2981TIP3    H230435   1.085   5.918   3.448 -3.1761 -1.1850  0.2298
 2982TIP3   OH230436   6.428   0.285   0.318 -0.3964  0.2915  0.3560
 2982TIP3    H130437   6.407   0.206   0.368 -0.0960  0.0511  0.1082
 2982TIP3    H230438   6.387   0.357   0.367 -1.5427 -0.1239  0.0364
 2983TIP3   OH230439   0.213   4.025   5.274  0.6345  0.5788 -0.2593
 2983TIP3    H130440   0.237   3.935   5.255 -1.6169  0.1780 -1.5778
 2983TIP3    H230441   0.170   4.022   5.359  1.5336  0.6308  0.2117
 2984TIP3   OH230442   1.844   1.150  12.781 -0.1698  0.9691  0.3655
 2984TIP3    H130443   1.859   1.242  12.802  1.8024  0.7424  0.1155
 2984TIP3    H230444   1.752   1.136  12.801 -0.1264  2.5766  1.9309
 2985TIP3   OH230445   3.721   2.889  14.458  0.2641  0.3523 -0.0705
 2985TIP3    H130446   3.777   2.954  14.500 -0.9193  1.5345 -0.2381
 2985TIP3    H230447   3.774   2.852  14.388  1.1998  0.6310  0.4824
 2986TIP3   OH230448   3.779   1.971   5.967  0.0989 -0.1067  0.4103
 2986TIP3    H130449   3.804   1.921   6.045  1.4181 -0.1692 -0.0277
 2986TIP3    H230450   3.834   2.049   5.970 -0.6795  0.4593  0.1489
 2987TIP3   OH230451   5.180   6.243   2.618 -0.3149  0.3399  0.1496
 2987TIP3    H130452   5.120   6.318   2.619 -0.4221  0.2568 -0.0493
 2987TIP3    H230453   5.266   6.282   2.606 -0.2510  0.5102  1.0593
 2988TIP3   OH230454   2.845   5.550  12.908 -0.3487 -0.3730 -0.0012
 2988TIP3    H130455   2.784   5.530  12.838  0.2710 -1.0287 -0.3610
 2988TIP3    H230456   2.876   5.638  12.888 -0.8580 -0.1968 -0.0391
 2989TIP3   OH230457   0.530   4.361  11.757  0.3598 -0.0618 -0.0587
 2989TIP3    H130458   0.499   4.386  11.844  3.0439  0.3555  0.8584
 2989TIP3    H230459   0.543   4.266  11.763 -0.5182 -0.2093 -0.3865
 2990TIP3   OH230460   5.702   3.764  10.695  0.4205 -0.0294  0.1602
 2990TIP3    H130461   5.612   3.781  10.723 -0.5942 -0.3300 -2.5912
 2990TIP3    H230462   5.714   3.820  10.619  1.6652 -1.7895 -1.0277
 2991TIP3   OH230463   1.568   3.402  12.401  0.9468 -0.1946 -0.2388
 2991TIP3    H130464   1.620   3.389  12.481 -0.8780  0.2965  1.0843
 2991TIP3    H230465   1.569   3.316  12.359 -0.0961 -1.1891  1.6245
 2992TIP3   OH230466   4.056   0.981  17.055  1.1782  0.2203 -0.1271
 2992TIP3    H130467   4.129   0.942  17.006  0.3733 -2.8390  0.9259
 2992TIP3    H230468   3.990   0.999  16.988  0.8354 -2.1330 -0.5114
 2993TIP3   OH230469   4.182   3.490   4.252  0.6691 -0.2041 -0.7031
 2993TIP3    H130470   4.178   3.397   4.274 -0.5119  0.2359  1.1468
 2993TIP3    H230471   4.101   3.507   4.205 -0.0237  0.2604  0.6282
 2994TIP3   OH230472   2.870   1.178  16.421  0.7142 -0.0252  0.5275
 2994TIP3    H130473   2.819   1.112  16.375 -0.7422  2.1031 -1.0877
 2994TIP3    H230474   2.957   1.174  16.379  0.2676 -0.0834 -0.4148
 2995TIP3   OH230475   4.563   3.019  11.199  0.3437  0.4620 -0.4910
 2995TIP3    H130476   4.568   3.065  11.283  2.2884 -2.1509  0.9783
 2995TIP3    H230477   4.632   3.059  11.146 -0.4329  1.6527 -0.6540
 2996TIP3   OH230478   6.753   5.007  14.695 -0.0522 -0.1723  0.0811
 2996TIP3    H130479   6.799   4.923  14.694 -0.0738 -0.2257  1.5425
 2996TIP3    H230480   6.661   4.984  14.706 -0.1330  0.0261 -0.1764
 2997TIP3   OH230481   3.787   0.796  15.260  0.0086  0.1092 -0.3122
 2997TIP3    H130482   3.741   0.877  15.242 -0.8441  0.0610  1.4364
 2997TIP3    H230483   3.871   0.805  15.215  0.7671  2.8141  1.4414
 2998TIP3   OH230484   4.996   2.168  13.888 -0.2090 -0.0764 -0.0643
 2998TIP3    H130485   5.039   2.119  13.818 -0.9684 -0.4877 -0.2634
 2998TIP3    H230486   4.961   2.246  13.845 -2.1726 -1.1577 -0.5537
 2999TIP3   OH230487   6.517   5.429   1.836 -0.1660  0.0044 -0.2009
 2999TIP3    H130488   6.474   5.497   1.784  0.7133  0.2814 -0.5904
 2999TIP3    H230489   6.582   5.391   1.777 -0.2063 -0.7341  0.2178
 3000TIP3   OH230490   5.124   2.374   6.024  0.6573 -0.0928 -0.4904
 3000TIP3    H130491   5.213   2.408   6.026  0.2251  1.0646  0.1984
 3000TIP3    H230492   5.113   2.330   6.108  0.1113  1.0795  0.0739
 3001TIP3   OH230493   5.281   2.735   1.133  0.1027 -0.5261 -0.2941
 3001TIP3    H130494   5.260   2.644   1.156 -1.3530 -0.9225 -2.8710
 3001TIP3    H230495   5.213   2.761   1.071  1.8173  1.5332 -1.4428
 3002TIP3   OH230496   5.782   3.332  15.810  0.1076 -0.8215  0.4891
 3002TIP3    H130497   5.719   3.387  15.857  0.4284 -1.6519  1.9542
 3002TIP3    H230498   5.866   3.354  15.849  0.8241  0.4988 -1.6634
 3003TIP3   OH230499   2.026   2.590  13.682 -0.0097  0.1824  0.1375
 3003TIP3    H130500   2.096   2.546  13.633 -1.5785 -0.8282 -1.3056
 3003TIP3    H230501   2.069   2.620  13.762  1.7733 -1.5555 -0.0748
 3004TIP3   OH230502   0.499   5.148  15.175  0.4158 -0.0120 -0.1529
 3004TIP3    H130503   0.589   5.178  15.178  0.1691  0.8756  3.2718
 3004TIP3    H230504   0.502   5.058  15.209  0.1120 -0.4551 -1.2489
 3005TIP3   OH230505   5.106   1.928  12.269  0.5361 -0.3558 -0.3136
 3005TIP3    H130506   5.112   1.836  12.291  1.1413 -0.1436  0.4640
 3005TIP3    H230507   5.186   1.946  12.220 -0.0177 -0.4446 -1.2769
 3006TIP3   OH230508   2.428   1.975  16.750  0.2481  0.7905 -0.1095
 3006TIP3    H130509   2.410   1.886  16.720  0.2591  0.2612  1.3551
 3006TIP3    H230510   2.372   2.031  16.698 -0.2931 -0.1530 -0.5520
 3007TIP3   OH230511   0.282   6.596  15.485  0.0744  0.1935 -0.1847
 3007TIP3    H130512   0.298   6.609  15.392  0.7691  2.9249  0.2451
 3007TIP3    H230513   0.367   6.612  15.527 -0.9736  2.6675  1.1710
 3008TIP3   OH230514   2.101   3.827   0.558  0.0699  0.0283 -0.4084
 3008TIP3    H130515   2.099   3.844   0.652 -0.7434 -3.4970  0.3438
 3008TIP3    H230516   2.098   3.914   0.518 -0.6356  1.6273  2.7884
 3009TIP3   OH230517   6.233   1.791  12.568  0.3396 -0.3356 -0.2488
 3009TIP3    H130518   6.294   1.740  12.514  1.0828  0.6014 -0.3373
 3009TIP3    H230519   6.288   1.830  12.636 -0.1522  0.5442 -0.3409
 3010TIP3   OH230520   4.680   4.371  16.716 -0.0473 -0.3338 -0.5985
 3010TIP3    H130521   4.680   4.404  16.626 -0.1942 -0.0294 -0.4860
 3010TIP3    H230522   4.613   4.302  16.716  0.2787 -0.6514 -0.8376
 3011TIP3   OH230523   1.331   3.784  14.281  0.3961 -0.2700  0.0883
 3011TIP3    H130524   1.341   3.868  14.235  2.1539 -0.1915  0.5237
 3011TIP3    H230525   1.263   3.800  14.346  1.1898  1.0669  0.6338
 3012TIP3   OH230526   3.473   5.484  16.616  0.8703  0.0376 -0.8183
 3012TIP3    H130527   3.417   5.469  16.539 -0.1049 -0.9759  0.0546
 3012TIP3    H230528   3.449   5.571  16.647 -0.0385 -0.2712 -0.6262
 3013TIP3   OH230529   2.560   5.073  16.131 -0.2091 -0.0388  0.4990
 3013TIP3    H130530   2.602   5.066  16.217  0.4878 -0.0726  0.1700
 3013TIP3    H230531   2.606   5.008  16.078 -0.5439  0.0786  0.0682
 3014TIP3   OH230532   3.963   2.009   3.007  0.3598 -0.7870 -0.5605
 3014TIP3    H130533   3.935   1.917   3.011 -0.8781 -0.4086 -0.1973
 3014TIP3    H230534   3.886   2.056   2.976  1.1508  0.0733 -1.2422
 3015TIP3   OH230535   1.573   2.875   5.540 -0.0080 -0.0133 -0.4969
 3015TIP3    H130536   1.590   2.906   5.451  1.1149  0.5158 -0.1207
 3015TIP3    H230537   1.575   2.955   5.594 -0.6110 -0.3354  0.0096
 3016TIP3   OH230538   6.024   5.301  16.568 -0.4549 -0.3745  0.2877
 3016TIP3    H130539   6.024   5.355  16.489 -1.3779 -1.4478 -0.4861
 3016TIP3    H230540   5.947   5.244  16.558  0.3621 -1.6927  1.1552
 3017TIP3   OH230541   4.586   3.059   2.241 -0.0869 -0.0941  0.0927
 3017TIP3    H130542   4.492   3.068   2.228  0.1148  3.6524  0.0495
 3017TIP3    H230543   4.613   2.993   2.178 -2.3291  0.7781 -1.9215
 3018TIP3   OH230544   3.460   0.585   3.799  0.9934  0.2657 -0.0855
 3018TIP3    H130545   3.477   0.675   3.826 -0.5944  0.2553  1.0830
 3018TIP3    H230546   3.422   0.592   3.712 -0.3476  0.8508  0.5259
 3019TIP3   OH230547   1.426   5.481   2.620  0.9109  0.2113 -0.2672
 3019TIP3    H130548   1.465   5.403   2.658  0.4979  0.1906  0.1278
 3019TIP3    H230549   1.351   5.500   2.677  0.0688 -0.0270 -1.2819
 3020TIP3   OH230550   1.226   3.347  11.534 -0.5395  0.0496 -0.1270
 3020TIP3    H130551   1.204   3.284  11.602  0.7889 -0.5019 -0.1911
 3020TIP3    H230552   1.271   3.296  11.467 -1.6087  0.6144 -1.3421
 3021TIP3   OH230553   5.686   5.940  15.719 -0.5447  0.8088  0.3577
 3021TIP3    H130554   5.715   5.919  15.808  2.3374 -1.4136 -0.9055
 3021TIP3    H230555   5.645   5.859  15.688 -1.3199  1.4804 -0.4147
 3022TIP3   OH230556   3.730   3.157   0.579 -0.0938  0.3981 -0.1323
 3022TIP3    H130557   3.757   3.232   0.526  0.3255  1.9401  2.1424
 3022TIP3    H230558   3.639   3.176   0.602 -0.1154 -0.0072  0.1224
 3023TIP3   OH230559   5.510   0.583  13.308 -0.0868 -0.0891  0.3183
 3023TIP3    H130560   5.542   0.674  13.307 -1.9176  0.5929  0.2624
 3023TIP3    H230561   5.589   0.530  13.294  0.9939  1.4907  0.1371
 3024TIP3   OH230562   4.914   4.035  16.494 -0.0628 -0.6238 -1.1282
 3024TIP3    H130563   4.880   4.020  16.405 -2.6019  0.4643 -0.4188
 3024TIP3    H230564   4.838   4.024  16.551  0.9504  1.1354  0.6694
 3025TIP3   OH230565   5.583   2.152   2.702 -0.0556 -0.6259 -0.8406
 3025TIP3    H130566   5.531   2.096   2.760  0.3760 -0.4967 -0.3289
 3025TIP3    H230567   5.668   2.159   2.745 -0.6427  1.9269  0.0978
 3026TIP3   OH230568   4.546   1.897  11.277 -0.3536 -0.0401  0.3753
 3026TIP3    H130569   4.625   1.896  11.332 -1.1340  0.3559  1.5522
 3026TIP3    H230570   4.483   1.845  11.326 -1.0935  0.3645 -0.1365
 3027TIP3   OH230571   0.093   6.520   1.822  0.5211  0.1339 -0.4149
 3027TIP3    H130572   0.159   6.589   1.829  0.4336  0.1224  0.6743
 3027TIP3    H230573   0.079   6.492   1.912 -0.0771 -0.7138 -0.7666
 3028TIP3   OH230574   3.170   0.271   4.853 -0.1174 -0.5035 -0.2395
 3028TIP3    H130575   3.156   0.361   4.881  0.6800 -0.5075  0.2256
 3028TIP3    H230576   3.249   0.243   4.901 -0.0330 -1.2627 -0.7951
 3029TIP3   OH230577   6.281   0.450   1.073 -0.3194  0.6156  0.1658
 3029TIP3    H130578   6.219   0.490   1.133 -1.4556 -0.1913 -0.4077
 3029TIP3    H230579   6.226   0.401   1.012  0.8744  0.2082 -0.6254
 3030TIP3   OH230580   6.775   0.846  11.543  0.3357  0.6443  0.1843
 3030TIP3    H130581   6.708   0.862  11.609 -0.7503 -0.4393 -0.6180
 3030TIP3    H230582   6.848   0.809  11.593  0.5431  2.1987  1.1239
 3031TIP3   OH230583   1.156   0.130   3.255  0.1569 -0.7286  0.5144
 3031TIP3    H130584   1.190   0.215   3.227  2.0623 -1.3130  0.9344
 3031TIP3    H230585   1.103   0.149   3.332  0.3761  0.0941  0.4710
 3032TIP3   OH230586   3.870   1.580   4.987 -0.6181  0.3204 -0.4618
 3032TIP3    H130587   3.823   1.503   5.017 -0.2914  0.1885 -0.2816
 3032TIP3    H230588   3.870   1.572   4.891  1.5416 -1.2184 -0.3991
 3033TIP3   OH230589   0.273   0.181   4.065  0.0067  0.3665  0.0186
 3033TIP3    H130590   0.192   0.207   4.020  1.4840 -0.7601 -3.6451
 3033TIP3    H230591   0.329   0.258   4.061  1.1259 -0.4437 -2.8378
 3034TIP3   OH230592   4.631   6.844  13.631  0.2831  0.2762  0.3293
 3034TIP3    H130593   4.707   6.901  13.619  0.6639 -0.2332  0.2916
 3034TIP3    H230594   4.664   6.756  13.613 -0.7432  0.2119 -1.5444
 3035TIP3   OH230595   2.126   6.436  15.955 -0.4505 -0.1848 -0.1029
 3035TIP3    H130596   2.168   6.420  16.040 -0.3955 -0.1067 -0.1153
 3035TIP3    H230597   2.199   6.446  15.894 -0.3575  2.3485  0.2753
 3036TIP3   OH230598   0.934   2.098  11.712 -0.1629 -0.4695 -0.0397
 3036TIP3    H130599   0.887   2.101  11.629 -1.7541  0.3228  0.8428
 3036TIP3    H230600   0.898   2.022  11.757 -0.3125 -0.0843  0.4944
 3037TIP3   OH230601   0.833   2.289  13.312 -0.1721 -0.5319  0.0469
 3037TIP3    H130602   0.751   2.331  13.286 -0.8931 -2.2247 -0.6036
 3037TIP3    H230603   0.847   2.317  13.402 -0.0895  1.8024 -0.6430
 3038TIP3   OH230604   0.200   5.831  13.702  0.7564  0.1278  0.5925
 3038TIP3    H130605   0.113   5.819  13.666  0.1721  1.6816  1.3805
 3038TIP3    H230606   0.259   5.816  13.628 -0.2162 -0.1370 -0.1461
 3039TIP3   OH230607   5.405   1.899   2.091  0.0732 -0.5058  0.2516
 3039TIP3    H130608   5.353   1.820   2.078  1.0637 -1.0175 -0.8019
 3039TIP3    H230609   5.417   1.905   2.185 -1.6789 -0.4975  0.5041
 3040TIP3   OH230610   4.742   1.556  11.462  0.2762 -0.2474 -0.1930
 3040TIP3    H130611   4.647   1.552  11.474  0.2145  1.2405  0.1014
 3040TIP3    H230612   4.777   1.564  11.550  0.5719  0.5021 -0.3687
 3041TIP3   OH230613   3.447   5.902   2.554  0.0361 -0.3530  0.1660
 3041TIP3    H130614   3.443   5.842   2.629 -1.8753 -2.9313 -1.8276
 3041TIP3    H230615   3.474   5.848   2.481 -0.8794  1.4221 -1.5970
 3042TIP3   OH230616   3.459   0.679  15.558  0.2249 -0.2902  0.3403
 3042TIP3    H130617   3.551   0.703  15.541  0.5321 -1.2466  0.5882
 3042TIP3    H230618   3.460   0.642  15.646  0.4230 -4.1458 -1.0851
 3043TIP3   OH230619   1.273   3.839   2.830  0.1244 -0.1272 -0.0907
 3043TIP3    H130620   1.207   3.856   2.896 -0.0662 -1.5811  0.1206
 3043TIP3    H230621   1.299   3.926   2.799 -1.9374  0.4801 -0.2610
 3044TIP3   OH230622   5.629   2.521   3.852 -0.3677 -0.1490  0.0066
 3044TIP3    H130623   5.618   2.445   3.910 -0.8212 -0.5549 -0.5947
 3044TIP3    H230624   5.560   2.511   3.786  0.6462 -0.1557 -1.0912
 3045TIP3   OH230625   2.857   2.037   0.624  0.4782 -0.4626 -0.3540
 3045TIP3    H130626   2.804   2.103   0.669  0.8302 -0.5913  0.2732
 3045TIP3    H230627   2.848   1.958   0.678  0.1823 -0.8851 -1.0169
 3046TIP3   OH230628   5.756   2.531  13.992  0.1588  0.0448  0.0054
 3046TIP3    H130629   5.813   2.487  14.055 -0.7174 -2.5165 -0.8580
 3046TIP3    H230630   5.674   2.543  14.040 -0.1888 -1.0089 -0.2876
 3047TIP3   OH230631   1.134   1.018   4.031 -0.5262  0.1263 -0.1029
 3047TIP3    H130632   1.165   1.027   3.941 -0.1765 -1.1146 -0.1241
 3047TIP3    H230633   1.040   1.000   4.022 -0.1562 -1.8824 -0.3436
 3048TIP3   OH230634   2.441   0.577  12.363  0.4130  0.6527  0.8779
 3048TIP3    H130635   2.371   0.586  12.428 -0.1651  1.4605  0.1687
 3048TIP3    H230636   2.405   0.617  12.284  0.9768 -0.6407 -0.0527
 3049TIP3   OH230637   0.389   1.031   5.556  0.0184  0.6680  0.2032
 3049TIP3    H130638   0.440   1.097   5.508 -0.8267 -0.1237 -1.8968
 3049TIP3    H230639   0.454   0.968   5.588  0.5437  0.8137 -0.5585
 3050TIP3   OH230640   4.321   2.615   1.565 -0.7273 -0.1891  0.6796
 3050TIP3    H130641   4.399   2.559   1.576 -0.8181 -0.5974 -0.6411
 3050TIP3    H230642   4.274   2.606   1.648  0.7445  0.2638  1.6063
 3051TIP3   OH230643   5.605   5.059   5.303 -0.3125 -0.4000 -0.3107
 3051TIP3    H130644   5.573   5.128   5.360 -1.6069  0.3305 -1.8616
 3051TIP3    H230645   5.701   5.062   5.314 -0.3273  1.6535 -0.3630
 3052TIP3   OH230646   3.308   5.623  15.023  0.2580 -0.4521  0.8377
 3052TIP3    H130647   3.386   5.571  15.001  1.1367  1.8604 -2.2545
 3052TIP3    H230648   3.261   5.630  14.940 -0.1647  2.9841  1.2348
 3053TIP3   OH230649   5.567   2.577  14.171  0.1774  0.1806 -0.1406
 3053TIP3    H130650   5.603   2.604  14.255  0.3720  0.9509 -0.4598
 3053TIP3    H230651   5.525   2.493  14.188  0.2209  0.3269  0.7191
 3054TIP3   OH230652   0.632   0.458   5.589 -0.6734 -0.1161  0.2796
 3054TIP3    H130653   0.616   0.384   5.648  0.7895 -0.9245 -0.2584
 3054TIP3    H230654   0.708   0.431   5.538 -0.6517  1.4141 -0.5626
 3055TIP3   OH230655   5.812   0.708   3.032  0.2783  0.2887  0.2209
 3055TIP3    H130656   5.748   0.662   3.087 -1.6894  1.8085 -0.6641
 3055TIP3    H230657   5.869   0.638   2.998  0.0780 -0.9459  2.2375
 3056TIP3   OH230658   2.679   5.960   1.504 -0.1656  0.2148 -0.4561
 3056TIP3    H130659   2.768   5.946   1.536 -0.6477  0.1532  0.9274
 3056TIP3    H230660   2.653   6.045   1.540  0.3189  1.6810 -3.2444
 3057TIP3   OH230661   1.350   1.438   1.359 -0.0969  0.7769 -0.0872
 3057TIP3    H130662   1.262   1.458   1.392 -0.2125 -0.5236  0.4439
 3057TIP3    H230663   1.340   1.441   1.264 -1.7626 -3.1148 -0.2317
 3058TIP3   OH230664   1.113   2.070  10.131 -0.1988  0.3117 -0.8089
 3058TIP3    H130665   1.071   2.157  10.138  0.0034  0.3698 -0.2039
 3058TIP3    H230666   1.201   2.084  10.165  0.0273 -0.0072 -1.2664
 3059TIP3   OH230667   0.767   0.086   1.842 -0.1610 -0.6301 -0.1611
 3059TIP3    H130668   0.690   0.092   1.785  0.0832  2.1985 -0.3444
 3059TIP3    H230669   0.840   0.069   1.783 -0.5405 -3.2019 -0.0001
 3060TIP3   OH230670   0.906   4.552   3.736  0.1086 -0.2555 -0.8354
 3060TIP3    H130671   0.883   4.507   3.817 -1.5107 -0.1132 -1.1722
 3060TIP3    H230672   0.957   4.628   3.765 -2.1153  0.9287  0.3128
 3061TIP3   OH230673   3.593   5.698  12.348  0.2838  0.1698 -0.0385
 3061TIP3    H130674   3.662   5.663  12.292  0.3823 -0.4614  0.4670
 3061TIP3    H230675   3.544   5.757  12.292 -0.5249 -1.5492 -1.2165
 3062TIP3   OH230676   4.900   2.221  13.007  0.2218  0.0581  0.0544
 3062TIP3    H130677   4.856   2.170  12.939 -0.1824 -0.8443  0.9696
 3062TIP3    H230678   4.856   2.306  13.007  0.9587  0.4879 -1.5506
 3063TIP3   OH230679   5.099   6.657   3.832 -0.5269 -0.2091  0.5624
 3063TIP3    H130680   5.140   6.642   3.747 -1.0023 -0.0390  0.3028
 3063TIP3    H230681   5.093   6.570   3.871 -3.6879 -0.8754 -1.1258
 3064TIP3   OH230682   5.096   2.426  14.644 -0.3633 -0.5451 -0.1167
 3064TIP3    H130683   5.068   2.461  14.728 -1.8172  2.5259 -1.7006
 3064TIP3    H230684   5.043   2.347  14.631 -1.0654 -0.3217  1.2636
 3065TIP3   OH230685   6.318   5.563   4.338  0.2971 -0.1038  0.2918
 3065TIP3    H130686   6.297   5.575   4.431 -0.9190  2.7807 -0.2360
 3065TIP3    H230687   6.347   5.650   4.309  0.3918 -0.8683 -2.0870
 3066TIP3   OH230688   0.171   5.765   4.315  0.0918  0.4243  0.2039
 3066TIP3    H130689   0.130   5.849   4.299 -0.2955  0.6123  1.9438
 3066TIP3    H230690   0.102   5.712   4.356  1.1382  0.3006  1.9259
 3067TIP3   OH230691   2.752   4.187  15.669  0.5835  0.2122  0.4937
 3067TIP3    H130692   2.807   4.153  15.599 -0.5521 -0.4354 -0.1176
 3067TIP3    H230693   2.749   4.116  15.734  0.6268  0.3251  0.6210
 3068TIP3   OH230694   2.822   3.174  15.618  0.1217 -0.1264 -0.5210
 3068TIP3    H130695   2.812   3.241  15.685  1.7300 -0.6955  0.3437
 3068TIP3    H230696   2.889   3.115  15.653 -1.5596 -2.4757 -0.9994
 3069TIP3   OH230697   4.397   4.338  13.861  0.0279 -0.3450  0.1264
 3069TIP3    H130698   4.427   4.262  13.812  1.8355 -0.2736  1.0135
 3069TIP3    H230699   4.336   4.302  13.926 -1.4443 -0.5905 -1.3517
 3070TIP3   OH230700   5.821   5.625   2.518  0.7004  0.3749 -0.5699
 3070TIP3    H130701   5.822   5.712   2.477  0.2650  0.2749 -0.7918
 3070TIP3    H230702   5.756   5.633   2.588  1.6944  0.6520  0.3498
 3071TIP3   OH230703   4.376   0.522   6.551  0.2204  0.2692 -0.3359
 3071TIP3    H130704   4.444   0.470   6.509 -0.6059 -1.4180  0.3226
 3071TIP3    H230705   4.356   0.475   6.632  0.3697  2.3631  1.0027
 3072TIP3   OH230706   1.381   3.212   3.752 -0.3955  0.3169 -0.4632
 3072TIP3    H130707   1.310   3.267   3.718  0.3431  1.6480  0.0805
 3072TIP3    H230708   1.461   3.255   3.722  0.2240 -1.5102 -1.6076
 3073TIP3   OH230709   0.979   5.203   1.083  0.1570 -0.1371 -0.2208
 3073TIP3    H130710   0.890   5.180   1.111  0.1706 -0.8073 -0.7061
 3073TIP3    H230711   1.033   5.187   1.160 -0.4502  2.5752  0.8701
 3074TIP3   OH230712   4.801   1.228  10.749  0.5438 -0.5364  0.0412
 3074TIP3    H130713   4.811   1.157  10.685 -1.2166 -0.5995 -0.2195
 3074TIP3    H230714   4.757   1.186  10.824 -0.8562  0.3202 -0.2652
 3075TIP3   OH230715   1.248   2.200  12.467  0.1966  0.5935 -0.0413
 3075TIP3    H130716   1.269   2.171  12.378 -1.0109  0.3404 -0.2633
 3075TIP3    H230717   1.199   2.282  12.455 -0.8945  0.0177  0.3152
 3076TIP3   OH230718   2.205   2.633  12.333  0.2580 -0.6097  0.5582
 3076TIP3    H130719   2.300   2.631  12.331  0.2437 -1.8717 -0.4358
 3076TIP3    H230720   2.183   2.705  12.392  1.8144  0.4792 -0.1299
 3077TIP3   OH230721   3.155   0.372   1.431  0.3473  0.1152 -0.3991
 3077TIP3    H130722   3.119   0.398   1.347  0.2665  0.0656 -0.3795
 3077TIP3    H230723   3.158   0.276   1.428  0.3969  0.1157 -0.3679
 3078TIP3   OH230724   4.602   4.782   4.088  0.0325 -0.1939 -0.7817
 3078TIP3    H130725   4.630   4.720   4.020 -0.3319 -0.6380 -0.5330
 3078TIP3    H230726   4.512   4.804   4.065  0.5926  1.3208 -1.6404
 3079TIP3   OH230727   4.131   0.124   3.207  0.9613 -0.1151  0.7437
 3079TIP3    H130728   4.223   0.149   3.218  0.4010  1.2992  2.7227
 3079TIP3    H230729   4.114   0.136   3.113  2.5925  0.2771  0.4644
 3080TIP3   OH230730   3.429   4.597   4.689 -0.1983  0.3882 -0.0073
 3080TIP3    H130731   3.370   4.552   4.628  0.8755  0.1864 -0.9452
 3080TIP3    H230732   3.471   4.665   4.635  2.6902 -1.4228 -0.2560
 3081TIP3   OH230733   6.202   1.918   3.185 -0.1672  0.2120  0.4898
 3081TIP3    H130734   6.140   1.973   3.232  0.3087  0.5265  0.7683
 3081TIP3    H230735   6.173   1.919   3.094  0.0066  1.1817  0.4345
 3082TIP3   OH230736   4.315   4.544  10.502  0.4163 -0.5279  0.5361
 3082TIP3    H130737   4.241   4.484  10.493  0.8141 -0.8756 -0.6066
 3082TIP3    H230738   4.351   4.526  10.588 -2.2640  1.3289  2.2102
 3083TIP3   OH230739   2.452   2.932   0.168 -0.6069 -0.3634 -0.2232
 3083TIP3    H130740   2.524   2.964   0.222  0.6555 -2.3636 -0.5862
 3083TIP3    H230741   2.400   3.010   0.146  1.2628  1.0915  0.3189
 3084TIP3   OH230742   1.951   1.340  15.499 -0.6619 -1.2265 -0.5502
 3084TIP3    H130743   1.867   1.332  15.543 -0.9435  1.0838 -0.5087
 3084TIP3    H230744   1.954   1.431  15.469  1.8798 -1.1813 -0.4440
 3085TIP3   OH230745   2.094   1.106   0.830  0.1942  0.0235 -0.2618
 3085TIP3    H130746   2.157   1.057   0.777  1.3660  1.6935 -0.5161
 3085TIP3    H230747   2.122   1.197   0.821 -2.1442  0.8118 -0.1636
 3086TIP3   OH230748   0.787   5.760  12.448 -0.2850 -0.0077 -0.3714
 3086TIP3    H130749   0.702   5.727  12.418 -1.6227  1.0234  2.0229
 3086TIP3    H230750   0.792   5.849  12.414 -0.8116  0.3933  0.5487
 3087TIP3   OH230751   6.666   1.314   2.456  0.0749 -0.1430 -0.3417
 3087TIP3    H130752   6.727   1.240   2.462  0.1207 -0.0272  0.7407
 3087TIP3    H230753   6.657   1.329   2.362  1.1357 -0.6369 -0.5405
 3088TIP3   OH230754   0.796   2.823  15.913 -0.4237  0.5601 -0.0971
 3088TIP3    H130755   0.769   2.731  15.918 -2.9141  1.1911 -0.5556
 3088TIP3    H230756   0.797   2.842  15.819 -0.8143  1.2074  0.0234
 3089TIP3   OH230757   6.478   3.012   2.141  0.1251 -0.4055  0.1926
 3089TIP3    H130758   6.414   2.941   2.138  0.1923 -0.4400 -1.0145
 3089TIP3    H230759   6.503   3.026   2.049  1.5825 -0.1595  0.5909
 3090TIP3   OH230760   3.678   1.896   4.956  0.6903  1.1155  0.0687
 3090TIP3    H130761   3.769   1.868   4.945  0.0786 -2.3469  2.3036
 3090TIP3    H230762   3.642   1.896   4.867  2.0495 -0.8916 -0.5546
 3091TIP3   OH230763   2.870   1.987   4.379  0.1307  0.2744 -0.2042
 3091TIP3    H130764   2.797   1.958   4.434 -1.3033  0.1020 -2.1121
 3091TIP3    H230765   2.923   2.041   4.437 -1.4815  0.3590  1.2783
 3092TIP3   OH230766   4.568   1.017   0.407 -0.2510  0.4054  0.4376
 3092TIP3    H130767   4.652   0.994   0.369 -0.8437  2.0201 -2.0952
 3092TIP3    H230768   4.586   1.094   0.461 -0.4675  2.7740 -2.6362
 3093TIP3   OH230769   3.549   5.567  14.915  0.1755  0.1701 -0.5213
 3093TIP3    H130770   3.587   5.492  14.961 -2.3004  0.1511  1.7672
 3093TIP3    H230771   3.576   5.643  14.966 -1.9693  0.2263  0.6494
 3094TIP3   OH230772   4.047   5.461   3.231 -0.4377 -0.2535  0.0263
 3094TIP3    H130773   4.002   5.377   3.240 -0.1845 -0.3422  0.4989
 3094TIP3    H230774   4.118   5.457   3.296 -1.3329  0.9374  1.1122
 3095TIP3   OH230775   0.645   1.839  13.265  0.3922 -0.3320  0.5424
 3095TIP3    H130776   0.739   1.845  13.281  0.2516  1.8460  0.7759
 3095TIP3    H230777   0.631   1.892  13.187 -0.8887  1.0143  1.6433
 3096TIP3   OH230778   4.751   2.296   6.509  0.1827 -0.2350  0.2170
 3096TIP3    H130779   4.661   2.328   6.514  0.0189  0.0728 -2.8065
 3096TIP3    H230780   4.748   2.210   6.551 -1.4898 -0.1752  0.2966
 3097TIP3   OH230781   0.999   4.366  12.314  0.1363  0.1510  0.0905
 3097TIP3    H130782   0.973   4.327  12.230 -3.1115 -0.8829  1.4064
 3097TIP3    H230783   1.087   4.333  12.330  1.2313  1.0729 -3.2264
 3098TIP3   OH230784   6.542   0.689   2.514  0.1137 -0.6249 -0.3784
 3098TIP3    H130785   6.490   0.611   2.497  0.7689 -1.3235  0.7090
 3098TIP3    H230786   6.561   0.725   2.427  0.6652 -2.2506 -0.9712
 3099TIP3   OH230787   4.197   5.718   1.276 -0.5549  0.3264  0.0980
 3099TIP3    H130788   4.219   5.727   1.183  1.5518 -1.9072  0.3012
 3099TIP3    H230789   4.152   5.800   1.297  0.3721  1.6176 -2.4700
 3100TIP3   OH230790   0.183   2.750   0.385  0.0941 -0.2433 -0.1776
 3100TIP3    H130791   0.090   2.769   0.390 -0.3028 -1.9714 -0.3809
 3100TIP3    H230792   0.210   2.738   0.476  0.1351  0.2669 -0.1183
 3101TIP3   OH230793   5.183   3.691   5.768  0.2963  0.0277 -0.0927
 3101TIP3    H130794   5.252   3.753   5.794 -0.2641  0.1935  1.0615
 3101TIP3    H230795   5.123   3.743   5.715  0.2957  0.2580  0.1294
 3102TIP3   OH230796   5.302   5.037   1.607 -0.0265 -0.0256 -0.3239
 3102TIP3    H130797   5.284   4.945   1.588  0.6341 -0.6060  1.5942
 3102TIP3    H230798   5.287   5.082   1.524  1.7257 -2.1393 -1.9341
 3103TIP3   OH230799   6.720   1.578  10.267  0.5447  0.1336 -0.0707
 3103TIP3    H130800   6.748   1.504  10.321 -0.8219 -1.5314 -1.5097
 3103TIP3    H230801   6.798   1.602  10.216  1.7215  1.4410  2.2188
 3104TIP3   OH230802   3.100   2.419   3.578  0.2553  0.1188  0.2263
 3104TIP3    H130803   3.019   2.397   3.623  0.9314 -1.1626  0.8784
 3104TIP3    H230804   3.097   2.514   3.568 -2.9831 -0.0623 -3.0265
 3105TIP3   OH230805   1.989   0.156  14.491  0.5017  0.0017 -0.2830
 3105TIP3    H130806   1.924   0.213  14.532  0.6506 -0.4240  0.5852
 3105TIP3    H230807   1.973   0.070  14.530  3.7818  0.5248  2.7210
 3106TIP3   OH230808   1.245   1.978  16.538 -0.0343 -0.6758  0.0106
 3106TIP3    H130809   1.315   1.940  16.592  0.5877  0.2962 -0.0810
 3106TIP3    H230810   1.253   1.935  16.454 -1.0910 -2.3013  0.6957
 3107TIP3   OH230811   1.924   3.657  12.544  0.1143  0.1640 -0.0396
 3107TIP3    H130812   1.981   3.716  12.593  1.2229  0.4805 -1.6408
 3107TIP3    H230813   1.935   3.572  12.588  1.4731  0.3256 -0.0251
 3108TIP3   OH230814   6.563   5.803  16.759  0.1186  0.5008  0.2703
 3108TIP3    H130815   6.622   5.765  16.824 -0.0877 -0.6114 -0.1663
 3108TIP3    H230816   6.528   5.881  16.801 -0.2751 -0.3851  1.6599
 3109TIP3   OH230817   3.255   2.907  11.182  0.8385  0.5297 -0.3868
 3109TIP3    H130818   3.304   2.827  11.164 -0.7705 -0.1189 -2.3045
 3109TIP3    H230819   3.241   2.947  11.096 -2.6077  0.2278 -0.1295
 3110TIP3   OH230820   0.213   2.745   2.138 -0.1982  0.6457  0.4164
 3110TIP3    H130821   0.308   2.737   2.145 -0.0967  0.6064 -0.7955
 3110TIP3    H230822   0.196   2.744   2.044 -1.3793  0.9202  0.6145
 3111TIP3   OH230823   0.958   1.871  10.239  0.3209 -0.2160 -0.4673
 3111TIP3    H130824   1.018   1.803  10.269 -1.0853 -0.7814  1.2775
 3111TIP3    H230825   1.014   1.936  10.197  2.1301 -0.8202  0.8727
 3112TIP3   OH230826   5.573   5.289   2.749 -0.2122  0.9494 -0.0568
 3112TIP3    H130827   5.517   5.346   2.696  0.4580  0.2427 -1.5776
 3112TIP3    H230828   5.647   5.269   2.692 -0.2396 -1.1303  0.5639
 3113TIP3   OH230829   2.495   1.175   1.056  0.3347 -0.2688  0.4455
 3113TIP3    H130830   2.486   1.100   0.997 -0.7846 -0.1326  0.4133
 3113TIP3    H230831   2.540   1.241   1.005  0.2980 -0.5203  0.0842
 3114TIP3   OH230832   3.733   0.163   5.245  0.1513 -0.2504 -0.2133
 3114TIP3    H130833   3.755   0.239   5.299 -0.1560 -0.5323  0.3179
 3114TIP3    H230834   3.771   0.183   5.160  2.1031 -0.5063  0.5333
 3115TIP3   OH230835   6.240   4.302   0.077 -0.1158  0.2855  0.1110
 3115TIP3    H130836   6.295   4.339   0.145 -0.8914 -0.6802  1.3123
 3115TIP3    H230837   6.170   4.366   0.065 -0.3302  0.1663  0.6973
 3116TIP3   OH230838   5.736   1.071   6.031  0.2307 -0.4115 -0.5819
 3116TIP3    H130839   5.787   1.009   6.084 -0.4696 -1.8310 -1.5068
 3116TIP3    H230840   5.646   1.060   6.061  0.2890  1.4899  0.4717
 3117TIP3   OH230841   1.346   6.266   1.634  0.1430 -0.1400 -0.3394
 3117TIP3    H130842   1.384   6.272   1.722 -0.3775 -0.1460 -0.1148
 3117TIP3    H230843   1.422   6.261   1.576  0.4864 -0.5909  0.1420
 3118TIP3   OH230844   5.662   5.308   1.868 -0.9317 -0.0750 -0.2530
 3118TIP3    H130845   5.652   5.355   1.785 -2.0697  0.3131  0.0877
 3118TIP3    H230846   5.580   5.260   1.878 -0.0081 -1.7431 -0.3240
 3119TIP3   OH230847   1.160   0.744   3.540 -0.1306 -0.1523  0.4810
 3119TIP3    H130848   1.230   0.738   3.475 -1.7551 -0.0692 -1.3609
 3119TIP3    H230849   1.126   0.833   3.530 -0.8834 -0.3771  0.9308
 3120TIP3   OH230850   5.950   3.856   5.271 -0.4869 -0.0483  0.0799
 3120TIP3    H130851   5.909   3.885   5.189 -0.3451 -1.0643 -0.3786
 3120TIP3    H230852   5.986   3.770   5.249 -0.0281 -0.1215  1.0894
 3121TIP3   OH230853   0.617   5.218  16.350  0.6697  0.0099  0.0678
 3121TIP3    H130854   0.552   5.282  16.320  1.0341  0.2047 -0.3096
 3121TIP3    H230855   0.593   5.136  16.308  0.0909 -0.1544  0.6961
 3122TIP3   OH230856   2.023   6.053  15.508  0.1224  0.4041  0.6845
 3122TIP3    H130857   2.114   6.072  15.530  0.3287  0.3087 -0.0530
 3122TIP3    H230858   1.978   6.049  15.592  0.8261  0.3266  1.0626
 3123TIP3   OH230859   3.142   3.815  13.584 -0.2681 -0.3737 -0.1887
 3123TIP3    H130860   3.074   3.849  13.526  0.6010 -0.5405 -1.3400
 3123TIP3    H230861   3.095   3.757  13.644 -1.3739  0.8101  0.1318
 3124TIP3   OH230862   0.920   1.097  15.722  0.1462 -0.1850  0.3112
 3124TIP3    H130863   0.843   1.043  15.744  0.4266 -0.8955 -0.4181
 3124TIP3    H230864   0.902   1.130  15.634 -0.6226  2.0283  1.2179
 3125TIP3   OH230865   2.804   6.716  12.110  0.2375  0.5995  0.3983
 3125TIP3    H130866   2.818   6.701  12.017 -3.8647 -0.3304 -0.2953
 3125TIP3    H230867   2.785   6.629  12.146 -0.4850  1.2173  1.5942
 3126TIP3   OH230868   5.620   0.199   4.499 -0.3188  0.5576 -0.1208
 3126TIP3    H130869   5.640   0.280   4.546 -0.2746 -0.0603  0.9769
 3126TIP3    H230870   5.655   0.130   4.556 -1.5931 -0.3011 -0.3473
 3127TIP3   OH230871   2.068   4.667   4.837 -0.2796  0.7481  0.0898
 3127TIP3    H130872   1.994   4.616   4.806  0.6551 -0.3044 -0.5007
 3127TIP3    H230873   2.098   4.716   4.760  1.5076 -1.2034 -0.5446
 3128TIP3   OH230874   6.330   3.106   1.386 -0.4734 -0.4992  0.3570
 3128TIP3    H130875   6.281   3.044   1.441 -0.0514 -1.1051  0.0501
 3128TIP3    H230876   6.362   3.054   1.313 -0.1965  0.1065  0.0399
 3129TIP3   OH230877   6.325   4.711   3.898  0.1849 -0.2238  0.6892
 3129TIP3    H130878   6.314   4.712   3.803  0.3680 -0.1336  0.6684
 3129TIP3    H230879   6.314   4.803   3.924  0.1868 -0.2405  0.7488
 3130TIP3   OH230880   1.418   0.927   3.136 -0.4223  0.2609  0.1325
 3130TIP3    H130881   1.378   0.974   3.210 -1.0012  2.5449 -1.5057
 3130TIP3    H230882   1.374   0.842   3.134 -3.0619  1.5280  0.2553
 3131TIP3   OH230883   2.205   0.760   4.155  0.1829  0.3871  0.1509
 3131TIP3    H130884   2.156   0.704   4.094  1.5981 -2.3341  1.3864
 3131TIP3    H230885   2.157   0.753   4.237  0.3942  0.9916  0.3295
 3132TIP3   OH230886   2.355   6.687  14.002 -0.0217 -0.6420 -0.2822
 3132TIP3    H130887   2.407   6.756  13.960  1.4248 -1.4768  0.0852
 3132TIP3    H230888   2.405   6.607  13.989 -0.7894 -1.3388  0.8487
 3133TIP3   OH230889   6.817   2.330   0.640 -0.1067 -0.2122 -0.3094
 3133TIP3    H130890   6.783   2.288   0.719  1.5253  0.0598  0.5845
 3133TIP3    H230891   6.822   2.260   0.575 -1.6924 -0.3865 -0.2762
 3134TIP3   OH230892   1.650   1.938   1.382 -0.5725  0.7416  0.3589
 3134TIP3    H130893   1.585   1.903   1.443 -0.0890  0.6238  0.8193
 3134TIP3    H230894   1.654   1.873   1.312  0.0964 -0.0041  1.0567
 3135TIP3   OH230895   6.134   1.344  16.030 -0.1562  0.4740  0.1607
 3135TIP3    H130896   6.087   1.268  16.063  1.4407 -2.4442 -3.4818
 3135TIP3    H230897   6.085   1.370  15.952  0.4786  1.8359  0.1954
 3136TIP3   OH230898   3.612   5.332  13.968 -0.1117  0.0496  0.5117
 3136TIP3    H130899   3.653   5.405  13.922 -1.0008 -0.4982 -1.2336
 3136TIP3    H230900   3.581   5.369  14.050 -0.9797  1.7556 -0.5401
 3137TIP3   OH230901   3.791   4.585  14.919 -0.0933 -0.0471  0.5062
 3137TIP3    H130902   3.792   4.493  14.894 -1.2857  0.2108 -0.6407
 3137TIP3    H230903   3.809   4.632  14.837 -1.4410  0.7664  0.6364
 3138TIP3   OH230904   1.012   2.439  16.451 -0.1962  0.8950  0.1350
 3138TIP3    H130905   1.013   2.356  16.497  0.7098  0.1828 -1.1146
 3138TIP3    H230906   0.927   2.441  16.407 -0.7470  1.2351  1.1835
 3139TIP3   OH230907   5.051   0.861  14.114 -0.3999 -0.2360  0.3955
 3139TIP3    H130908   5.090   0.847  14.200  0.1790 -0.9921  0.0242
 3139TIP3    H230909   4.970   0.910  14.132 -0.3798 -0.5348  1.3761
 3140TIP3   OH230910   2.636   3.910  12.609  0.1342  0.3988  0.1625
 3140TIP3    H130911   2.633   3.831  12.555  1.6294 -0.2914  1.0361
 3140TIP3    H230912   2.674   3.977  12.552 -1.5036  0.6385 -0.7096
 3141TIP3   OH230913   2.960   6.092   1.466  1.2027  0.8357 -0.4927
 3141TIP3    H130914   2.978   6.116   1.557 -0.1189 -0.1427  0.0626
 3141TIP3    H230915   2.996   6.004   1.457  1.1597  0.8533 -0.8467
 3142TIP3   OH230916   5.717   5.337   4.665 -0.5839 -0.4840 -0.4714
 3142TIP3    H130917   5.688   5.281   4.737 -2.2366  1.0880  0.1555
 3142TIP3    H230918   5.763   5.409   4.708  1.0582 -1.0310 -1.2320
 3143TIP3   OH230919   5.613   6.278  16.198  0.0595 -0.0834 -0.0797
 3143TIP3    H130920   5.543   6.316  16.145  0.3329  0.2592 -0.2010
 3143TIP3    H230921   5.574   6.266  16.284 -0.0742  0.3525 -0.0762
 3144TIP3   OH230922   4.049   6.469  16.812 -0.2840 -0.3603  0.0226
 3144TIP3    H130923   4.028   6.560  16.794 -0.4235 -0.2362  0.7736
 3144TIP3    H230924   4.018   6.421  16.735 -0.1193  0.2332 -0.4184
 3145TIP3   OH230925   4.478   2.253  16.052 -0.2679  0.3262  0.3418
 3145TIP3    H130926   4.512   2.228  15.966  1.0028  4.2888 -0.5001
 3145TIP3    H230927   4.542   2.220  16.114 -0.4843 -1.3767 -0.2780
 3146TIP3   OH230928   3.357   0.109   4.293  0.0407  0.1124  0.2708
 3146TIP3    H130929   3.347   0.043   4.362  1.6035 -0.6227 -0.1635
 3146TIP3    H230930   3.323   0.066   4.214 -0.4179  0.4298  0.2909
 3147TIP3   OH230931   2.274   4.231  15.940 -0.0509  0.3258 -0.4539
 3147TIP3    H130932   2.306   4.171  15.873 -1.5209 -0.7593 -0.2222
 3147TIP3    H230933   2.185   4.253  15.913 -0.2062  0.9053  0.4648
 3148TIP3   OH230934   5.552   0.134  16.242 -0.5468 -0.1878  0.3738
 3148TIP3    H130935   5.637   0.177  16.251 -0.2012 -0.4343 -1.4182
 3148TIP3    H230936   5.573   0.041  16.236 -1.1578 -0.5005  2.3634
 3149TIP3   OH230937   4.791   6.020  14.015 -0.2758 -0.2614  0.0064
 3149TIP3    H130938   4.841   6.098  14.040 -0.1894 -0.3422  0.0865
 3149TIP3    H230939   4.794   5.964  14.092  0.3144 -0.6792 -0.3062
 3150TIP3   OH230940   5.772   6.819  14.216  0.4375 -0.0025 -0.2342
 3150TIP3    H130941   5.695   6.841  14.269 -1.2047 -1.8945 -1.6534
 3150TIP3    H230942   5.756   6.861  14.131 -0.2227 -2.2221 -1.2765
 3151TIP3   OH230943   2.734   1.879   2.456  0.0938 -0.4659 -0.3081
 3151TIP3    H130944   2.696   1.838   2.534  1.0960 -3.3160 -1.1827
 3151TIP3    H230945   2.706   1.822   2.384  0.7057  1.0605 -1.8111
 3152TIP3   OH230946   5.264   1.434  16.297 -0.3550  0.1377  0.3840
 3152TIP3    H130947   5.216   1.395  16.224  0.4718 -0.3829  0.1169
 3152TIP3    H230948   5.353   1.446  16.265 -0.2030  0.7513  1.0056
 3153TIP3   OH230949   3.581   3.015  16.286  0.2995 -0.3793  0.0855
 3153TIP3    H130950   3.485   3.018  16.282  0.2448  0.2219  1.2000
 3153TIP3    H230951   3.600   2.946  16.349  0.4745  1.3509  2.0403
 3154TIP3   OH230952   2.307   1.019  12.256 -0.1350  0.5221 -0.5289
 3154TIP3    H130953   2.401   1.036  12.251  0.3628 -2.0713 -1.0829
 3154TIP3    H230954   2.286   1.033  12.349  0.7125  1.3557 -0.4388
 3155TIP3   OH230955   4.101   1.874  13.231 -0.7055 -0.3535 -0.3064
 3155TIP3    H130956   4.103   1.958  13.185 -0.1104 -0.4972 -0.5472
 3155TIP3    H230957   4.081   1.810  13.163 -1.3369 -0.3970 -0.0922
 3156TIP3   OH230958   3.392   3.484  11.915 -0.2227 -0.0313  0.2225
 3156TIP3    H130959   3.304   3.447  11.922 -0.2130 -0.0484  0.2508
 3156TIP3    H230960   3.449   3.417  11.952 -0.3947  0.8505  2.1849
 3157TIP3   OH230961   0.424   3.355   4.701 -0.0109 -0.3068  0.3083
 3157TIP3    H130962   0.345   3.409   4.695 -0.4085 -0.8054  0.8815
 3157TIP3    H230963   0.488   3.398   4.644 -0.7864 -0.0479 -0.3842
 3158TIP3   OH230964   2.112   4.243   2.441 -0.4571  0.0180 -0.1841
 3158TIP3    H130965   2.045   4.182   2.410  1.8004 -1.6631 -2.1914
 3158TIP3    H230966   2.157   4.196   2.511  0.3405 -0.0076 -0.7062
 3159TIP3   OH230967   3.529   4.366  15.560  0.1188 -0.1513  0.1317
 3159TIP3    H130968   3.586   4.443  15.559  1.2558 -0.9545  0.2095
 3159TIP3    H230969   3.556   4.316  15.483 -1.2322 -0.0483 -0.4272
 3160TIP3   OH230970   0.375   6.154   5.730 -0.3923  0.0947  0.3260
 3160TIP3    H130971   0.421   6.070   5.728 -0.6246 -0.0306  0.2807
 3160TIP3    H230972   0.382   6.184   5.821  2.3459  1.4902 -0.2381
 3161TIP3   OH230973   4.521   5.333  13.688 -0.1855  0.0469 -0.0227
 3161TIP3    H130974   4.482   5.421  13.690  3.3775  1.8131  1.9602
 3161TIP3    H230975   4.560   5.326  13.601 -0.8650  0.2045 -0.3475
 3162TIP3   OH230976   2.032   5.805   0.741 -0.6893 -0.0373  0.0303
 3162TIP3    H130977   2.062   5.723   0.781 -0.0692  0.5723  0.8614
 3162TIP3    H230978   2.104   5.866   0.756 -0.9444  0.5345 -1.0119
 3163TIP3   OH230979   6.450   4.129   0.116 -0.7978  0.0638  0.0555
 3163TIP3    H130980   6.358   4.123   0.140 -0.9676  0.9426 -0.3274
 3163TIP3    H230981   6.496   4.085   0.187 -1.5453 -0.9880 -0.0873
 3164TIP3   OH230982   5.161   5.482  15.211  0.5501 -0.4354  0.1593
 3164TIP3    H130983   5.134   5.560  15.260  0.2349  0.9427 -2.0912
 3164TIP3    H230984   5.228   5.442  15.266  1.2410  1.8260  1.0902
 3165TIP3   OH230985   3.673   6.143  13.036 -0.0093 -0.5663  0.1024
 3165TIP3    H130986   3.689   6.125  13.129  0.6545 -1.4156 -0.1600
 3165TIP3    H230987   3.736   6.212  13.014 -1.0564  0.5935  0.5747
 3166TIP3   OH230988   2.697   3.389   0.842 -0.0484 -0.2709 -0.3672
 3166TIP3    H130989   2.692   3.485   0.850  1.0503 -0.2537  0.1995
 3166TIP3    H230990   2.628   3.357   0.900 -0.0175  0.1591 -0.0844
 3167TIP3   OH230991   4.379   1.782  12.406 -0.1601 -0.1920 -0.0120
 3167TIP3    H130992   4.309   1.744  12.458  1.1605  0.5427  2.4587
 3167TIP3    H230993   4.338   1.854  12.357 -1.5609 -1.3025 -0.5282
 3168TIP3   OH230994   4.934   5.304  11.443  0.5502  0.5128  0.0903
 3168TIP3    H130995   4.962   5.378  11.390 -0.7048  0.3320 -0.8541
 3168TIP3    H230996   5.009   5.244  11.441  0.0830 -0.0957 -2.6204
 3169TIP3   OH230997   5.926   2.469  11.188 -0.1957  0.4036  0.5373
 3169TIP3    H130998   5.894   2.498  11.274  0.0340 -0.0015  0.7610
 3169TIP3    H230999   5.895   2.379  11.179  0.4942  0.1592  0.5635
 3170TIP3   OH231000   3.512   0.326  13.769 -0.1603 -0.8384 -0.0723
 3170TIP3    H131001   3.500   0.243  13.816 -1.9072 -1.6264 -1.7846
 3170TIP3    H231002   3.500   0.304  13.677 -1.7460  1.4569 -0.5053
 3171TIP3   OH231003   2.557   4.218   2.744  0.0187 -0.4131 -0.2390
 3171TIP3    H131004   2.593   4.237   2.831  0.5341 -0.5284 -0.4258
 3171TIP3    H231005   2.534   4.125   2.747 -1.0894 -0.1406  0.1693
 3172TIP3   OH231006   2.190   4.375  11.643 -0.1044  0.2811  0.6097
 3172TIP3    H131007   2.244   4.453  11.658 -1.6965  1.8771 -1.3185
 3172TIP3    H231008   2.216   4.345  11.556  0.0389 -0.9912  1.0795
 3173TIP3   OH231009   5.123   5.020   0.664 -0.0495  0.0418 -0.2403
 3173TIP3    H131010   5.192   5.022   0.598  1.5902  2.9485  1.3379
 3173TIP3    H231011   5.055   5.078   0.629  0.2197  0.5125  0.0026
 3174TIP3   OH231012   0.180   1.664   5.189 -0.1938 -0.5422  0.3124
 3174TIP3    H131013   0.189   1.653   5.095 -0.4559  1.5660  0.0019
 3174TIP3    H231014   0.150   1.578   5.220 -1.4130 -0.9055 -1.6891
 3175TIP3   OH231015   2.789   3.358   1.786 -0.1850  0.5956  0.2068
 3175TIP3    H131016   2.800   3.453   1.781  1.2775  0.5055  1.2389
 3175TIP3    H231017   2.818   3.326   1.700  2.1564  0.8915  0.8147
 3176TIP3   OH231018   2.748   1.961   3.984 -0.2648 -0.4576  0.0512
 3176TIP3    H131019   2.663   1.983   3.946 -0.3553 -1.6107 -0.4497
 3176TIP3    H231020   2.763   2.029   4.050 -1.0354  0.4191 -0.6467
 3177TIP3   OH231021   4.113   6.187   5.854  0.0929 -0.2634  0.2121
 3177TIP3    H131022   4.137   6.117   5.915 -2.3089 -1.2612  0.1249
 3177TIP3    H231023   4.114   6.266   5.907  1.8169 -0.4744  0.5698
 3178TIP3   OH231024   1.640   2.212  14.611  0.4073 -0.8281  0.0474
 3178TIP3    H131025   1.642   2.231  14.705  0.9896 -0.3824 -0.0502
 3178TIP3    H231026   1.552   2.240  14.584  0.5358 -0.1429  0.3001
 3179TIP3   OH231027   0.141   6.123  12.698  0.0913 -0.0048  0.3211
 3179TIP3    H131028   0.208   6.137  12.631 -0.4102  0.0785 -0.1643
 3179TIP3    H231029   0.070   6.077  12.654 -0.7073  1.0000  0.5082
 3180TIP3   OH231030   5.326   4.167  15.822 -0.5833  0.2458 -0.3163
 3180TIP3    H131031   5.258   4.120  15.774 -0.2480 -0.8829  0.2908
 3180TIP3    H231032   5.279   4.216  15.889 -0.8550 -0.0141 -0.3167
 3181TIP3   OH231033   4.404   5.524   3.123  0.1235  0.7813 -0.1565
 3181TIP3    H131034   4.435   5.479   3.201 -0.5870  0.9580  0.2319
 3181TIP3    H231035   4.425   5.616   3.139 -1.8764  1.1248  0.7705
 3182TIP3   OH231036   2.009   5.285  14.293  0.0033  0.2891  0.1855
 3182TIP3    H131037   2.072   5.299  14.222 -2.3717 -0.1462 -2.1838
 3182TIP3    H231038   1.928   5.324  14.260 -1.3015 -0.2109  2.5877
 3183TIP3   OH231039   4.505   3.521   0.361  0.0993 -0.4233 -0.0479
 3183TIP3    H131040   4.483   3.608   0.396 -1.4255 -0.7243 -0.1947
 3183TIP3    H231041   4.584   3.496   0.410 -1.3194 -0.3637  2.4814
 3184TIP3   OH231042   1.249   4.353   2.214  0.3817  0.3488  0.0206
 3184TIP3    H131043   1.194   4.280   2.244 -0.9032  0.8515 -1.0175
 3184TIP3    H231044   1.236   4.355   2.120  0.4314  1.9064  0.0283
 3185TIP3   OH231045   6.217   4.549   4.813  0.3317 -0.4071 -0.6122
 3185TIP3    H131046   6.207   4.601   4.893 -0.0387 -1.7068  0.2221
 3185TIP3    H231047   6.241   4.612   4.746 -0.8012  0.9439  0.2051
 3186TIP3   OH231048   5.787   6.612   5.546 -0.2821 -0.3807  1.0467
 3186TIP3    H131049   5.799   6.560   5.466 -0.6768 -0.8961  1.3213
 3186TIP3    H231050   5.848   6.686   5.535  0.8988 -1.3192  1.0246
 3187TIP3   OH231051   5.655   0.838  11.517  0.0036  0.3599 -0.1549
 3187TIP3    H131052   5.572   0.791  11.512  0.0784  0.2725 -0.6312
 3187TIP3    H231053   5.683   0.847  11.426  0.3261  0.7290 -0.0219
 3188TIP3   OH231054   6.850   1.144   2.387  0.5190 -0.3610 -0.4656
 3188TIP3    H131055   6.899   1.077   2.435  0.2046 -0.7614 -0.6897
 3188TIP3    H231056   6.810   1.096   2.314 -0.1362 -0.0277 -0.3334
 3189TIP3   OH231057   1.497   1.897  13.826  0.1941  0.7769  0.0488
 3189TIP3    H131058   1.477   1.834  13.895  0.0754  1.5177  0.7066
 3189TIP3    H231059   1.483   1.849  13.744  0.6755 -0.2168  0.5343
 3190TIP3   OH231060   3.642   0.301  11.966 -0.2984 -0.1721  0.1649
 3190TIP3    H131061   3.722   0.252  11.986 -0.1442  0.3917  0.9846
 3190TIP3    H231062   3.575   0.234  11.955 -0.3382 -0.5859  2.3483
 3191TIP3   OH231063   1.345   4.937  10.763 -0.5332  0.1263  0.0690
 3191TIP3    H131064   1.281   4.948  10.693 -0.6666 -1.0297 -0.0209
 3191TIP3    H231065   1.426   4.973  10.727 -1.2077  1.9953  0.3478
 3192TIP3   OH231066   1.394   1.918  14.859  0.0300  0.5687  0.4847
 3192TIP3    H131067   1.377   1.830  14.891 -0.2246  1.1327  2.0261
 3192TIP3    H231068   1.484   1.916  14.827 -0.0288 -0.2741  0.3665
 3193TIP3   OH231069   4.630   5.349   4.827  0.0807 -0.2305 -0.2383
 3193TIP3    H131070   4.621   5.263   4.869 -0.9216  0.8469  1.8905
 3193TIP3    H231071   4.663   5.406   4.897  1.1690  1.0484 -1.7336
 3194TIP3   OH231072   5.832   2.302  16.694 -0.2010  0.3375 -0.1140
 3194TIP3    H131073   5.866   2.316  16.606  0.1070  0.0832 -0.0378
 3194TIP3    H231074   5.872   2.371  16.747 -0.9285  0.9196 -0.3064
 3195TIP3   OH231075   0.581   6.160  16.298 -0.4724  0.3620 -0.8799
 3195TIP3    H131076   0.616   6.076  16.268  0.2109 -0.5237  2.1207
 3195TIP3    H231077   0.651   6.223  16.281  0.0405 -0.1708 -0.7515
 3196TIP3   OH231078   0.642   3.273  15.928  0.1838  0.3636  0.1824
 3196TIP3    H131079   0.556   3.286  15.969 -0.6757 -0.7860 -1.1408
 3196TIP3    H231080   0.640   3.331  15.852 -0.1910 -0.9790 -0.8716
 3197TIP3   OH231081   0.746   4.594   1.843 -0.5477  0.5213 -0.2446
 3197TIP3    H131082   0.713   4.584   1.932  0.0764  2.3961  0.2391
 3197TIP3    H231083   0.675   4.637   1.795 -0.5977  0.2095 -0.4534
 3198TIP3   OH231084   4.430   1.062   0.168 -0.2641  0.2857  0.0482
 3198TIP3    H131085   4.472   1.068   0.254 -1.0387  1.2600  0.3774
 3198TIP3    H231086   4.369   1.136   0.165  0.1050  0.5740 -1.5405
 3199TIP3   OH231087   1.823   3.761   0.277 -0.2958  0.2629 -0.9068
 3199TIP3    H131088   1.887   3.832   0.268 -1.2864  1.3441  0.1209
 3199TIP3    H231089   1.848   3.716   0.357 -0.5686  0.4424 -0.7162
 3200TIP3   OH231090   2.522   2.967  12.176  0.2345 -0.6054  0.1047
 3200TIP3    H131091   2.585   2.986  12.106  1.4861 -1.1628  1.0344
 3200TIP3    H231092   2.451   2.921  12.132  0.3638  0.2158 -1.0127
 3201TIP3   OH231093   3.574   6.701   4.233  0.0133  0.0257 -0.2618
 3201TIP3    H131094   3.593   6.781   4.183  0.4633 -0.6364 -1.1710
 3201TIP3    H231095   3.656   6.653   4.235 -0.6268 -1.1513 -1.0846
 3202TIP3   OH231096   1.841   2.769  10.735 -0.5622 -0.5102  0.3015
 3202TIP3    H131097   1.846   2.754  10.641 -0.4801  1.3010 -0.0239
 3202TIP3    H231098   1.929   2.749  10.767 -0.6100 -1.2057  0.0253
 3203TIP3   OH231099   5.350   0.003   4.382  0.3616  0.4073 -0.1674
 3203TIP3    H131100   5.380  -0.059   4.315 -1.6923  0.2738 -1.0415
 3203TIP3    H231101   5.264   0.031   4.351 -0.1067  1.2915  1.8175
 3204TIP3   OH231102   3.140   2.637   2.625  0.6541 -0.2996 -0.1193
 3204TIP3    H131103   3.160   2.549   2.593 -0.7837 -0.0258 -1.9412
 3204TIP3    H231104   3.148   2.693   2.548  0.4116  0.9771  0.7605
 3205TIP3   OH231105   3.162   0.933  11.120  0.2420  0.4062  0.6797
 3205TIP3    H131106   3.200   0.874  11.185 -0.7073 -0.7778  0.1936
 3205TIP3    H231107   3.067   0.921  11.128  0.1088 -0.7883 -1.7780
 3206TIP3   OH231108   4.204   5.547  13.705 -0.2772  0.2248 -0.2225
 3206TIP3    H131109   4.258   5.578  13.778 -0.2633 -3.0046  1.3289
 3206TIP3    H231110   4.149   5.622  13.682 -0.1592  1.4575  3.0209
 3207TIP3   OH231111   5.386   3.601   5.016 -0.1955 -0.2250 -0.4192
 3207TIP3    H131112   5.331   3.580   4.940 -2.0966  1.6091  0.3370
 3207TIP3    H231113   5.443   3.671   4.985 -0.3825 -0.0705 -0.4234
 3208TIP3   OH231114   3.117   5.615   3.297  0.4664  0.2929  0.2956
 3208TIP3    H131115   3.081   5.630   3.384 -0.7359  4.9998 -0.7336
 3208TIP3    H231116   3.059   5.549   3.258 -2.5979  2.1785  1.2846
 3209TIP3   OH231117   3.344   3.768  11.061 -0.1879 -0.3457 -0.3229
 3209TIP3    H131118   3.317   3.721  10.981 -1.3561  0.0691 -0.1950
 3209TIP3    H231119   3.346   3.860  11.035 -1.3657 -0.1270  0.3178
 3210TIP3   OH231120   0.081   3.126   5.232  0.4000 -0.4423  1.0828
 3210TIP3    H131121   0.119   3.161   5.312  1.8502  2.2862 -0.6610
 3210TIP3    H231122  -0.012   3.147   5.238  0.7265  0.9571  1.4860
 3211TIP3   OH231123   1.807   1.388  16.433 -0.3161 -0.9128 -0.0159
 3211TIP3    H131124   1.810   1.473  16.477 -3.0754 -1.2296  0.9910
 3211TIP3    H231125   1.797   1.409  16.340  1.6749 -0.2124 -0.1094
 3212TIP3   OH231126   4.699   6.411  15.176 -0.0747 -0.1720  0.1271
 3212TIP3    H131127   4.735   6.446  15.257  2.0519  0.9740 -1.2352
 3212TIP3    H231128   4.687   6.487  15.119 -0.4562 -1.0552 -1.0201
 3213TIP3   OH231129   1.917   4.689   5.881  0.2003  0.1860  0.3530
 3213TIP3    H131130   1.822   4.686   5.869  0.2107 -3.0497  0.0979
 3213TIP3    H231131   1.929   4.726   5.968 -1.2453  1.1241  0.1875
 3214TIP3   OH231132   5.881   3.018  16.179  0.0371  0.3157  0.0576
 3214TIP3    H131133   5.891   2.995  16.086  0.2216 -0.1444  0.1872
 3214TIP3    H231134   5.789   3.003  16.198  0.2056 -0.5803  0.2036
 3215TIP3   OH231135   2.248   6.534   2.619 -0.6612  0.0481 -0.3474
 3215TIP3    H131136   2.166   6.577   2.644 -0.7551 -0.2037 -0.2069
 3215TIP3    H231137   2.246   6.531   2.524 -0.6948  0.2729 -0.3534
 3216TIP3   OH231138   3.124   0.267   4.359 -0.4692  0.2311  0.8076
 3216TIP3    H131139   3.209   0.228   4.338  0.7027  1.7362  2.4227
 3216TIP3    H231140   3.089   0.214   4.430 -0.2012  0.4735  1.1185
 3217TIP3   OH231141   1.725   0.060   2.465 -0.1536  0.1736  0.4385
 3217TIP3    H131142   1.632   0.036   2.470  0.3310 -1.6946  1.5351
 3217TIP3    H231143   1.746   0.056   2.372 -0.4796 -2.4935  0.4057
 3218TIP3   OH231144   6.320   5.754   2.080  0.1198 -0.5831 -0.6980
 3218TIP3    H131145   6.311   5.775   2.173 -0.3856 -0.2232 -0.8223
 3218TIP3    H231146   6.393   5.692   2.076  2.7646  2.2119 -0.4404
 3219TIP3   OH231147   3.099   0.885   5.489 -0.0486 -0.1321  0.1408
 3219TIP3    H131148   3.010   0.917   5.499  0.3725  0.9458  0.6486
 3219TIP3    H231149   3.093   0.790   5.504 -1.3104 -0.3145 -1.2754
 3220TIP3   OH231150   1.383   6.563   0.265 -0.1632  0.6088 -0.0129
 3220TIP3    H131151   1.410   6.544   0.355  4.7620  0.5274 -1.2163
 3220TIP3    H231152   1.368   6.658   0.265  0.2294  0.6820  0.8212
 3221TIP3   OH231153   6.215   4.865  16.362 -0.0738 -0.2292 -0.4051
 3221TIP3    H131154   6.269   4.817  16.425  0.7077 -1.6160 -2.0313
 3221TIP3    H231155   6.226   4.957  16.385  0.5262 -0.6680  1.1811
 3222TIP3   OH231156   5.055   3.211  15.720  0.0987 -0.0190 -0.0925
 3222TIP3    H131157   4.981   3.219  15.660 -0.3497  1.2383  0.5840
 3222TIP3    H231158   5.128   3.183  15.664 -0.5737 -0.0054 -1.0074
 3223TIP3   OH231159   2.198   1.313   2.571  0.2142 -0.2000  0.5993
 3223TIP3    H131160   2.213   1.341   2.481 -0.3495  1.4327  0.9788
 3223TIP3    H231161   2.103   1.320   2.582  0.2962 -0.2700  1.3593
 3224TIP3   OH231162   1.895   3.621   0.517 -0.1077 -0.3557  0.0636
 3224TIP3    H131163   1.855   3.600   0.601 -1.6814  1.6012 -0.1212
 3224TIP3    H231164   1.985   3.645   0.538 -0.2641 -0.6285  1.0826
 3225TIP3   OH231165   1.671   1.924   3.692  0.1915 -0.0024 -0.6247
 3225TIP3    H131166   1.666   1.884   3.779 -0.8631  0.7659 -0.3182
 3225TIP3    H231167   1.763   1.949   3.682  0.4292 -0.5780  0.0424
 3226TIP3   OH231168   5.988   6.197  15.891 -0.4762  0.2566  0.0184
 3226TIP3    H131169   5.936   6.208  15.970  1.2683 -0.7034  1.3630
 3226TIP3    H231170   6.031   6.282  15.879 -2.2176  1.0442 -1.0813
 3227TIP3   OH231171   2.715   2.827   1.760  0.7163  0.0494  0.3328
 3227TIP3    H131172   2.763   2.874   1.692 -0.0670 -0.1653 -0.3812
 3227TIP3    H231173   2.733   2.876   1.840  0.7660  0.9623 -0.2212
 3228TIP3   OH231174   6.583   1.911  17.035  0.1978 -0.2559  0.1199
 3228TIP3    H131175   6.656   1.942  17.087  0.0165 -0.8328  0.7295
 3228TIP3    H231176   6.513   1.975  17.050 -0.2066 -0.9801  1.4475
 3229TIP3   OH231177   4.662   3.574   0.020  0.1472 -0.2738  0.5751
 3229TIP3    H131178   4.698   3.524   0.094 -2.2969  0.6826  2.5241
 3229TIP3    H231179   4.587   3.621   0.056 -2.1741 -0.9602 -2.8667
 3230TIP3   OH231180   4.760   4.994   1.085 -0.0349  0.6002 -0.2050
 3230TIP3    H131181   4.684   5.028   1.132 -0.8732  2.3421 -2.6181
 3230TIP3    H231182   4.723   4.944   1.012  1.2082 -1.0917  0.2442
 3231TIP3   OH231183   5.148   0.082   2.055 -0.0659  0.0687  0.4599
 3231TIP3    H131184   5.149   0.089   2.150  1.6875  3.1849  0.3563
 3231TIP3    H231185   5.057   0.064   2.033 -0.5298 -0.6021  2.7046
 3232TIP3   OH231186   5.098   0.619   5.593 -0.3595  0.2397  0.2388
 3232TIP3    H131187   5.107   0.698   5.645 -2.1524  0.3967  0.3598
 3232TIP3    H231188   5.022   0.573   5.630 -1.0269 -0.1782 -1.5199
 3233TIP3   OH231189   3.512   1.620  15.111 -0.4065  0.3322  0.1572
 3233TIP3    H131190   3.447   1.668  15.163 -0.0837  0.5922  0.3260
 3233TIP3    H231191   3.568   1.689  15.075 -0.4880  0.1377 -0.3488
 3234TIP3   OH231192   1.951   2.245  14.860  0.4144 -0.3146 -0.3016
 3234TIP3    H131193   1.856   2.254  14.855  0.5047  2.8364  1.0315
 3234TIP3    H231194   1.984   2.310  14.797  1.6059  0.4662  1.0680
 3235TIP3   OH231195   4.242   1.096   5.996 -0.9358  0.1318  0.8079
 3235TIP3    H131196   4.230   1.150   5.918  0.0100 -1.3010 -0.3717
 3235TIP3    H231197   4.233   1.158   6.069  0.7560  2.0153 -0.4860
 3236TIP3   OH231198   1.499   3.599  14.867 -0.1485  0.0657  0.5423
 3236TIP3    H131199   1.461   3.568  14.950 -0.4259 -0.0451  0.3764
 3236TIP3    H231200   1.524   3.518  14.822 -0.6292  0.0908  0.2217
 3237TIP3   OH231201   0.279   4.715   5.614  0.4351  1.1161  0.0090
 3237TIP3    H131202   0.224   4.637   5.615  0.4067  1.1307 -0.4310
 3237TIP3    H231203   0.282   4.743   5.706 -0.2302  1.0758  0.0486
 3238TIP3   OH231204   2.659   6.544  16.056 -0.2465 -0.1803  0.3293
 3238TIP3    H131205   2.662   6.521  16.149 -0.1802  0.1915  0.4213
 3238TIP3    H231206   2.741   6.509  16.019 -0.0883  0.0185  0.4919
 3239TIP3   OH231207   5.187   5.517  12.166  0.2367 -0.0208 -0.2402
 3239TIP3    H131208   5.251   5.468  12.115 -0.4423  0.9760 -2.1569
 3239TIP3    H231209   5.234   5.595  12.197  0.0735  0.5469 -1.3723
 3240TIP3   OH231210   4.320   1.566  12.775  0.0532  0.3673  0.2852
 3240TIP3    H131211   4.301   1.492  12.832  2.2422  0.3605  1.1208
 3240TIP3    H231212   4.356   1.632  12.834  3.1443  0.0867 -1.0902
 3241TIP3   OH231213   5.859   6.166  11.897 -0.6240  0.1953  0.0055
 3241TIP3    H131214   5.901   6.178  11.982 -2.2969  1.6615  0.6895
 3241TIP3    H231215   5.823   6.077  11.901  1.5908 -0.7976 -0.3011
 3242TIP3   OH231216   2.146   1.701  12.706 -0.9437 -0.4413  0.2761
 3242TIP3    H131217   2.148   1.769  12.638 -0.1501  0.2952  1.0127
 3242TIP3    H231218   2.202   1.632  12.672 -1.3209 -0.4951 -0.2441
 3243TIP3   OH231219   6.065   1.026   4.642 -0.5231  0.3976  0.2235
 3243TIP3    H131220   5.973   1.031   4.669 -1.0404  1.4923 -1.5547
 3243TIP3    H231221   6.066   1.064   4.554  1.4343 -0.7833 -0.3202
 3244TIP3   OH231222   1.282   0.777  11.206  1.0924 -0.6411  0.0236
 3244TIP3    H131223   1.267   0.772  11.300 -2.9667 -1.5566 -0.4735
 3244TIP3    H231224   1.270   0.870  11.185  0.1789 -0.7070  0.2203
 3245TIP3   OH231225   0.880   2.720   3.754 -0.0302 -0.1897  0.3054
 3245TIP3    H131226   0.885   2.792   3.691 -0.8979 -1.3333 -1.1525
 3245TIP3    H231227   0.810   2.746   3.814 -0.6312  0.0053 -0.4603
 3246TIP3   OH231228   5.662   4.267   2.201  0.0296 -0.3415  0.4749
 3246TIP3    H131229   5.657   4.203   2.273  1.2326 -1.1216 -0.0908
 3246TIP3    H231230   5.712   4.340   2.238  0.0449 -0.4344  0.6416
 3247TIP3   OH231231   0.056   3.439  13.561  0.9976 -0.2276  0.0017
 3247TIP3    H131232   0.116   3.389  13.505  1.3922  0.5715 -0.3210
 3247TIP3    H231233   0.066   3.529  13.530 -1.0001 -0.1834 -0.6068
 3248TIP3   OH231234   0.303   5.664   1.839  0.0953  0.6212 -0.4221
 3248TIP3    H131235   0.321   5.609   1.763  1.0375 -0.0796  0.2818
 3248TIP3    H231236   0.360   5.739   1.828 -2.0285  2.1188 -1.9874
 3249TIP3   OH231237   2.343   0.255   3.612  0.1252  0.3901  0.0426
 3249TIP3    H131238   2.254   0.239   3.581  0.4566 -2.2920  0.3044
 3249TIP3    H231239   2.393   0.272   3.532 -0.3540  0.5867 -0.2229
 3250TIP3   OH231240   1.980   6.727   6.276  0.1721  0.3089  0.0478
 3250TIP3    H131241   2.056   6.778   6.302  0.5983 -0.3750  0.1636
 3250TIP3    H231242   1.924   6.789   6.230 -0.1073  1.2977  1.6465
 3251TIP3   OH231243   2.401   1.716  12.885  0.0744 -1.0708  0.3892
 3251TIP3    H131244   2.337   1.668  12.833 -0.4445 -0.0522  0.0559
 3251TIP3    H231245   2.376   1.699  12.976 -2.2119  1.2135  0.2981
 3252TIP3   OH231246   3.882   3.700  14.818  0.5574 -0.2072 -0.0742
 3252TIP3    H131247   3.936   3.626  14.847  1.8963  0.7693 -0.0061
 3252TIP3    H231248   3.882   3.693  14.722  1.2627  0.0843 -0.1030
 3253TIP3   OH231249   3.328   1.194  14.374  0.0578  0.9429 -0.0456
 3253TIP3    H131250   3.354   1.192  14.282 -1.0247  0.7581 -0.3672
 3253TIP3    H231251   3.285   1.109  14.389  1.3794  0.4271  0.9974
 3254TIP3   OH231252   6.173   3.426  15.027  0.0380 -0.1384 -0.3403
 3254TIP3    H131253   6.222   3.413  15.108 -2.7082 -0.6210  1.3587
 3254TIP3    H231254   6.139   3.515  15.033 -3.0697 -1.2679  0.8707
 3255TIP3   OH231255   2.378   0.490   4.296 -0.6179 -0.5069 -0.0246
 3255TIP3    H131256   2.300   0.524   4.339 -1.5233 -0.5464 -1.5618
 3255TIP3    H231257   2.350   0.472   4.207  1.3455  0.2579 -0.8608
 3256TIP3   OH231258   4.622   3.947   3.803  1.1466  0.3933 -0.2448
 3256TIP3    H131259   4.572   3.876   3.843  0.7046 -0.0763 -1.5769
 3256TIP3    H231260   4.627   3.924   3.711  4.7616 -0.1725 -0.0678
 3257TIP3   OH231261   4.491   5.794   1.795  0.5573 -0.6460 -0.7078
 3257TIP3    H131262   4.561   5.848   1.832  1.0998 -1.5756 -0.3150
 3257TIP3    H231263   4.527   5.761   1.713  0.2808 -0.5106 -0.8826
 3258TIP3   OH231264   0.431   4.889  10.986 -0.0306  0.1220 -1.0833
 3258TIP3    H131265   0.375   4.940  11.044  1.3855  1.9471 -1.1930
 3258TIP3    H231266   0.446   4.947  10.911  0.9687 -0.7955 -1.6233
 3259TIP3   OH231267   3.796   5.644  16.014 -0.6450  0.3114 -0.0193
 3259TIP3    H131268   3.809   5.597  15.931  2.4051  1.1606 -0.1314
 3259TIP3    H231269   3.835   5.730  15.999 -0.7361  0.7657  2.0543
 3260TIP3   OH231270   1.509   6.199  15.367 -0.5021 -0.2929 -0.3377
 3260TIP3    H131271   1.599   6.203  15.399 -0.7230  0.0092  0.2511
 3260TIP3    H231272   1.497   6.107  15.341  0.1034 -0.2465 -0.8207
 3261TIP3   OH231273   0.862   0.911  12.268  0.3773  0.1895  0.3911
 3261TIP3    H131274   0.848   0.958  12.350  0.5046  0.9563 -0.0209
 3261TIP3    H231275   0.800   0.951  12.207  0.5994 -0.0779 -0.0081
 3262TIP3   OH231276   3.132   5.083   5.365 -0.1741 -0.1345  0.0875
 3262TIP3    H131277   3.094   5.081   5.452  0.4879  0.8734  0.4186
 3262TIP3    H231278   3.159   5.175   5.352 -0.8608 -0.1177 -1.4334
 3263TIP3   OH231279   3.468   6.830  15.752 -0.1715  0.0491  0.6772
 3263TIP3    H131280   3.406   6.807  15.683  0.2826  0.0551  0.2605
 3263TIP3    H231281   3.491   6.921  15.733  0.1137 -0.0157  0.7109
 3264TIP3   OH231282   6.619   6.366  14.034 -0.0599 -0.2132  0.4958
 3264TIP3    H131283   6.603   6.353  14.128 -1.0420  0.1966  0.3987
 3264TIP3    H231284   6.533   6.357  13.993 -0.0620  1.8799 -0.0941
 3265TIP3   OH231285   3.180   5.537  14.465 -0.4282 -0.2351 -0.5747
 3265TIP3    H131286   3.097   5.573  14.496  0.4383  0.8454  0.5981
 3265TIP3    H231287   3.222   5.502  14.544  1.0476  0.9294 -0.7959
 3266TIP3   OH231288   1.902   2.843   6.099  0.2548  0.5091 -0.7003
 3266TIP3    H131289   1.860   2.912   6.150  0.1863 -0.8834  1.2029
 3266TIP3    H231290   1.831   2.787   6.070  0.3875  0.7814 -1.6053
 3267TIP3   OH231291   3.869   3.441  15.709 -0.4319 -0.0452  0.2060
 3267TIP3    H131292   3.927   3.368  15.729 -0.0490  0.2634  0.2306
 3267TIP3    H231293   3.925   3.519  15.712 -0.9524  0.3228  0.7598
 3268TIP3   OH231294   4.011   5.576   2.754 -0.4422  0.0943  0.0206
 3268TIP3    H131295   4.015   5.671   2.762  1.6235  0.3099 -2.4420
 3268TIP3    H231296   3.919   5.557   2.736 -0.4089  2.0484 -2.7663
 3269TIP3   OH231297   4.867   1.873  15.373  0.1992  0.2416  0.1869
 3269TIP3    H131298   4.819   1.795  15.403 -0.1693  0.3070 -0.2186
 3269TIP3    H231299   4.871   1.930  15.450 -0.4697  0.2825  0.1920
 3270TIP3   OH231300   5.475   3.432   3.361 -0.2960  0.5523 -0.2118
 3270TIP3    H131301   5.394   3.453   3.406  0.7088  0.9332  1.5359
 3270TIP3    H231302   5.478   3.336   3.361 -0.8851  0.5311 -0.5666
 3271TIP3   OH231303   3.883   6.471  14.320 -0.3347  0.0255 -0.2252
 3271TIP3    H131304   3.872   6.509  14.407  1.9092  1.2106 -0.3685
 3271TIP3    H231305   3.967   6.506  14.289  1.3470 -4.0507 -0.9452
 3272TIP3   OH231306   4.862   3.410  13.819  0.2834 -0.2021  0.0557
 3272TIP3    H131307   4.812   3.457  13.886  0.4467 -0.6437  0.4900
 3272TIP3    H231308   4.839   3.318  13.833  1.3648 -0.4286  0.3766
 3273TIP3   OH231309   4.097   4.319  14.992  0.0066 -0.0113 -0.0532
 3273TIP3    H131310   4.092   4.412  14.968 -2.0117  1.1789  4.0572
 3273TIP3    H231311   4.162   4.316  15.062 -0.4124 -1.5757  0.3020
 3274TIP3   OH231312   3.468   5.514   1.482 -0.1970  0.7223 -0.1557
 3274TIP3    H131313   3.447   5.543   1.393 -0.8330  0.9887  0.0696
 3274TIP3    H231314   3.499   5.593   1.526 -3.4019  1.5356  0.9104
 3275TIP3   OH231315   1.426   4.608  12.045 -0.2529  0.0231 -0.2501
 3275TIP3    H131316   1.440   4.550  12.119 -0.1323  0.3108 -0.0444
 3275TIP3    H231317   1.513   4.642  12.024 -0.3116  0.0764 -0.4146
 3276TIP3   OH231318   1.635   4.221   3.279  0.4980 -0.6865 -0.3441
 3276TIP3    H131319   1.638   4.263   3.365  0.5165 -0.9717 -0.2043
 3276TIP3    H231320   1.715   4.250   3.235  1.4324 -1.9989  0.4279
 3277TIP3   OH231321   3.391   1.388  15.398  0.3703 -0.0008  0.2080
 3277TIP3    H131322   3.303   1.425  15.405  0.6232  0.4266  1.1880
 3277TIP3    H231323   3.414   1.362  15.487  1.9888  1.6372  0.3316
 3278TIP3   OH231324   3.592   0.873  14.087 -0.0530 -0.1418 -0.3990
 3278TIP3    H131325   3.648   0.858  14.011 -0.3995  1.5523 -1.0465
 3278TIP3    H231326   3.616   0.805  14.149  1.4521 -0.5304 -1.3606
 3279TIP3   OH231327   4.795   3.575  13.081 -0.8328 -0.6767 -0.3115
 3279TIP3    H131328   4.797   3.667  13.056 -1.7812 -1.0108 -1.7386
 3279TIP3    H231329   4.880   3.540  13.053 -0.5842 -0.3063 -0.0217
 3280TIP3   OH231330   4.282   2.299   2.394 -0.1235 -0.3218 -0.9488
 3280TIP3    H131331   4.297   2.290   2.488  1.2978  0.5462 -1.0529
 3280TIP3    H231332   4.251   2.213   2.366  1.5937 -1.3036 -0.0508
 3281TIP3   OH231333   4.452   2.091  13.024  0.0303 -0.0894  0.8428
 3281TIP3    H131334   4.525   2.121  13.077  0.9468 -0.6012 -0.1036
 3281TIP3    H231335   4.442   1.999  13.047 -0.8948  0.1786  1.5985
 3282TIP3   OH231336   1.056   0.970   4.848  0.2611 -0.0083  0.1590
 3282TIP3    H131337   1.049   0.989   4.755 -0.9172 -0.8408  0.0525
 3282TIP3    H231338   1.147   0.942   4.860 -0.2533 -2.6144 -1.3124
 3283TIP3   OH231339   3.308   4.037   0.146  0.1158 -0.6483  0.1030
 3283TIP3    H131340   3.365   4.112   0.129 -0.6026 -0.2661 -0.6781
 3283TIP3    H231341   3.325   3.977   0.073 -1.9941  0.3987 -1.3442
 3284TIP3   OH231342   0.190   1.104  11.385 -0.0999 -0.0866  0.2052
 3284TIP3    H131343   0.120   1.167  11.364  1.0927  0.8325 -1.2545
 3284TIP3    H231344   0.163   1.023  11.341  0.4741  0.7296 -1.7899
 3285TIP3   OH231345   2.088   0.753  11.578  0.5598  0.1205 -0.0880
 3285TIP3    H131346   2.157   0.687  11.577  0.8096  0.1883 -4.2726
 3285TIP3    H231347   2.010   0.706  11.607  1.0968 -1.5801 -1.3008
 3286TIP3   OH231348   5.488   0.641   1.518  0.1036  0.8725  1.0039
 3286TIP3    H131349   5.467   0.683   1.434  0.7971  0.1639  0.4581
 3286TIP3    H231350   5.579   0.665   1.535  0.3331  0.0628  0.9587
 3287TIP3   OH231351   3.621   4.259  11.853 -0.2290  0.6096  0.2787
 3287TIP3    H131352   3.645   4.194  11.788  1.2162  2.7654 -1.4621
 3287TIP3    H231353   3.641   4.217  11.937  5.6053  0.3811 -0.7967
 3288TIP3   OH231354   1.518   4.426   2.211  0.1137 -0.0239  0.2285
 3288TIP3    H131355   1.444   4.366   2.219 -0.2850  0.4513  0.0979
 3288TIP3    H231356   1.485   4.499   2.159  0.9808 -0.3020 -0.7525
 3289TIP3   OH231357   6.769   5.186   3.821  0.1482  0.4374 -0.0300
 3289TIP3    H131358   6.831   5.144   3.762  0.3049  0.9493 -0.2339
 3289TIP3    H231359   6.804   5.168   3.909 -0.0950 -0.3355 -0.0887
 3290TIP3   OH231360   3.470   5.151   0.257  0.1148  0.2676 -0.6376
 3290TIP3    H131361   3.475   5.071   0.205  3.1468 -0.7933  0.9890
 3290TIP3    H231362   3.541   5.206   0.224 -0.2728  1.1546 -0.0358
 3291TIP3   OH231363   6.234   0.074  13.093 -0.7190  0.3613  0.5684
 3291TIP3    H131364   6.185   0.148  13.056 -0.2048  0.7029  0.5544
 3291TIP3    H231365   6.194  -0.004  13.054 -1.4442  0.6155  0.7946
 3292TIP3   OH231366   3.070   6.694  14.803 -0.0320 -0.0798  0.2930
 3292TIP3    H131367   3.093   6.604  14.828  1.1753 -0.1746 -1.0412
 3292TIP3    H231368   3.101   6.702  14.713 -0.4069  1.5887  0.2922
 3293TIP3   OH231369   2.582   3.843  16.404  0.3321  0.2357 -0.0273
 3293TIP3    H131370   2.614   3.925  16.366 -1.5617  0.6826 -0.7891
 3293TIP3    H231371   2.520   3.872  16.472  1.2599 -0.5773  1.1892
 3294TIP3   OH231372   4.667   5.724   4.815  0.4508  0.2068  0.3094
 3294TIP3    H131373   4.589   5.771   4.844 -0.3842 -1.3827  0.7543
 3294TIP3    H231374   4.690   5.668   4.889  1.5575  0.0831 -0.1165
 3295TIP3   OH231375   6.071   3.878   3.577 -0.1778  0.0721  0.0984
 3295TIP3    H131376   6.042   3.877   3.668  1.0012  0.4484  0.4913
 3295TIP3    H231377   5.994   3.850   3.527 -0.9879  0.3601  1.1584
 3296TIP3   OH231378   2.535   4.557   5.598  0.2741  0.1397 -0.0268
 3296TIP3    H131379   2.505   4.519   5.516 -1.0568  0.3878  0.3219
 3296TIP3    H231380   2.525   4.487   5.663  0.9325  0.0709  0.0078
 3297TIP3   OH231381   6.049   2.642   4.805  0.2259 -0.4510 -0.4276
 3297TIP3    H131382   6.069   2.660   4.897  2.1191  0.3147 -0.9455
 3297TIP3    H231383   5.983   2.573   4.808 -0.1940 -0.0265  1.5053
 3298TIP3   OH231384   3.394   5.649  13.325 -0.4588  0.5791 -0.0828
 3298TIP3    H131385   3.372   5.669  13.234 -0.5099 -1.1913 -0.4984
 3298TIP3    H231386   3.337   5.707  13.376 -0.0011  2.0330 -1.1433
 3299TIP3   OH231387   0.589   4.306  14.111  0.2088  0.3550  0.2079
 3299TIP3    H131388   0.588   4.369  14.039  1.0253 -0.5023 -0.5753
 3299TIP3    H231389   0.666   4.252  14.095 -0.7290 -1.1648  0.5849
 3300TIP3   OH231390   1.054   0.315   0.762 -0.1691  0.3827 -0.8679
 3300TIP3    H131391   1.092   0.397   0.794 -0.2378 -0.4048  1.4333
 3300TIP3    H231392   0.967   0.312   0.802  0.6424 -1.7792  0.8802
 3301TIP3   OH231393   4.395   3.114  16.343 -0.2668  0.7143 -0.1387
 3301TIP3    H131394   4.450   3.076  16.411 -1.0627  0.8239  0.5810
 3301TIP3    H231395   4.349   3.039  16.304 -1.0027  0.8104  0.5289
 3302TIP3   OH231396   1.215   0.502  11.131 -0.0959 -0.8005 -0.6098
 3302TIP3    H131397   1.233   0.590  11.164  0.6475 -1.4776  0.8805
 3302TIP3    H231398   1.177   0.456  11.206  1.9341 -2.4956 -0.5267
 3303TIP3   OH231399   6.019   5.879   6.274  0.5405 -0.1247  0.8995
 3303TIP3    H131400   6.026   5.973   6.288  0.0074  0.3829 -1.7629
 3303TIP3    H231401   6.104   5.853   6.238  0.8051 -0.7683  1.9301
 3304TIP3   OH231402   1.296   4.620   3.857 -0.1025  0.8953 -0.4931
 3304TIP3    H131403   1.329   4.554   3.797  1.4037  1.2193 -0.0577
 3304TIP3    H231404   1.328   4.593   3.943  0.1258  1.9256 -0.2416
 3305TIP3   OH231405   4.518   0.314   4.394 -0.7041 -0.2546  0.1832
 3305TIP3    H131406   4.592   0.371   4.419 -1.2064  0.4916 -0.0047
 3305TIP3    H231407   4.509   0.254   4.467 -0.1931 -0.0602  0.4147
 3306TIP3   OH231408   2.200   6.541  13.764 -0.0511 -0.3243  0.6504
 3306TIP3    H131409   2.170   6.603  13.831  1.0572  1.4480 -0.4028
 3306TIP3    H231410   2.290   6.520  13.791  0.2763  0.1235 -0.0837
 3307TIP3   OH231411   1.841   1.393  10.749 -1.3526 -0.1113  0.1783
 3307TIP3    H131412   1.790   1.458  10.699  0.1208  1.9102  1.1855
 3307TIP3    H231413   1.855   1.321  10.687 -1.4089  1.3681 -1.6342
 3308TIP3   OH231414   2.669   6.792   1.159 -0.5422 -0.0032 -0.1115
 3308TIP3    H131415   2.733   6.722   1.148  0.8583  1.0405  0.8811
 3308TIP3    H231416   2.609   6.760   1.226  1.0808  0.3272  1.5901
 3309TIP3   OH231417   2.351   0.191  13.590 -0.5465 -0.6985  0.0492
 3309TIP3    H131418   2.265   0.187  13.633  0.3166 -0.4995  1.8744
 3309TIP3    H231419   2.404   0.127  13.637  1.3425  1.7269  1.4680
 3310TIP3   OH231420   3.138   4.872  16.948  0.4018  0.6383  0.2226
 3310TIP3    H131421   3.158   4.907  16.862 -1.0899  1.2533  0.0940
 3310TIP3    H231422   3.051   4.905  16.968  0.2855 -0.3503  1.5226
 3311TIP3   OH231423   1.556   1.671   1.860  0.6358  0.6739  1.3614
 3311TIP3    H131424   1.619   1.689   1.929  2.8052 -1.2298 -0.0144
 3311TIP3    H231425   1.608   1.639   1.786 -1.6025  2.0742 -1.0375
 3312TIP3   OH231426   5.918   3.249   2.221  0.1670  0.3881  0.9227
 3312TIP3    H131427   5.968   3.305   2.161 -2.6904  0.7815 -1.2860
 3312TIP3    H231428   5.880   3.310   2.283  2.5882  0.0414  2.9193
 3313TIP3   OH231429   2.116   3.893   4.305 -0.8662 -0.0012 -0.3144
 3313TIP3    H131430   2.163   3.809   4.305 -1.8287 -0.5794  1.1225
 3313TIP3    H231431   2.050   3.883   4.373  0.2986  2.6496  1.3601
 3314TIP3   OH231432   1.543   3.865  17.054 -0.7716  0.3388  0.5070
 3314TIP3    H131433   1.481   3.900  16.991 -1.5642 -1.4117  0.2569
 3314TIP3    H231434   1.529   3.771  17.052  2.6967 -0.3049 -0.4241
 3315TIP3   OH231435   3.317   0.583   4.070 -0.0575  0.2882  0.4569
 3315TIP3    H131436   3.232   0.564   4.031  0.1302  0.2096  0.0819
 3315TIP3    H231437   3.381   0.553   4.005  0.2690 -0.5438  1.1385
 3316TIP3   OH231438   4.564   6.103   1.574  0.6743 -0.1424 -0.4350
 3316TIP3    H131439   4.509   6.084   1.498 -0.8772  1.8242  0.1121
 3316TIP3    H231440   4.623   6.172   1.545  1.1653 -0.4952 -0.2931
 3317TIP3   OH231441   1.614   6.365  16.595 -0.0792  0.7424 -0.1284
 3317TIP3    H131442   1.612   6.301  16.524  0.4740 -0.0031  0.5149
 3317TIP3    H231443   1.630   6.314  16.674 -0.1850  1.6133  0.4799
 3318TIP3   OH231444   5.151   6.122   4.608 -0.2029 -0.2819  0.0223
 3318TIP3    H131445   5.188   6.102   4.523  1.2670 -1.0370  0.8012
 3318TIP3    H231446   5.171   6.214   4.622 -1.7072  0.2377 -1.0212
 3319TIP3   OH231447   0.614   1.093   5.008 -0.4332  0.2784  0.1363
 3319TIP3    H131448   0.625   1.038   4.930 -0.6218  0.5383 -0.0748
 3319TIP3    H231449   0.561   1.167   4.978 -2.3960 -0.7082  1.0147
 3320TIP3   OH231450   4.765   5.956  12.769  0.1689  0.0414  0.1835
 3320TIP3    H131451   4.772   5.865  12.799 -1.4893  0.3451  1.6220
 3320TIP3    H231452   4.788   5.951  12.676 -1.5672 -2.1725 -0.2248
 3321TIP3   OH231453   2.657   1.308   1.689 -0.2702  0.2381  0.2491
 3321TIP3    H131454   2.609   1.324   1.770  1.1118  2.5906  0.6803
 3321TIP3    H231455   2.591   1.275   1.628 -1.7565  0.3831  1.7076
 3322TIP3   OH231456   4.281   6.712   3.796  0.3573 -0.2706  0.1673
 3322TIP3    H131457   4.372   6.686   3.782 -0.0043 -0.4298 -2.5615
 3322TIP3    H231458   4.285   6.784   3.860  2.2892 -0.8014  0.6917
 3323TIP3   OH231459   6.100   3.728   4.070 -0.1573  0.4499 -0.5740
 3323TIP3    H131460   6.015   3.770   4.080  0.0436  0.6149  0.5107
 3323TIP3    H231461   6.082   3.635   4.079 -0.0886  0.5468  0.7511
 3324TIP3   OH231462   5.800   3.230   3.721  0.1726 -0.1101  0.5200
 3324TIP3    H131463   5.748   3.155   3.749 -0.6393 -0.4845 -1.7205
 3324TIP3    H231464   5.774   3.301   3.779 -2.3606 -0.4806 -0.0533
 3325TIP3   OH231465   0.816   4.796  16.258 -0.0419  0.0686 -0.0242
 3325TIP3    H131466   0.848   4.710  16.286  1.3710  0.1202 -1.3296
 3325TIP3    H231467   0.721   4.784  16.247  0.0560 -1.1642  0.3743
 3326TIP3   OH231468   5.576   2.623  12.297 -0.2120 -0.0311  0.4825
 3326TIP3    H131469   5.499   2.676  12.319 -0.0755  0.0441  0.7753
 3326TIP3    H231470   5.544   2.533  12.298 -0.2176 -0.0244  0.9302
 3327TIP3   OH231471   5.342   3.666  12.967 -0.1573 -0.0169  0.1153
 3327TIP3    H131472   5.347   3.717  13.048  2.2421  0.0963 -0.0113
 3327TIP3    H231473   5.275   3.709  12.915  0.4903  1.8960  0.7850
 3328TIP3   OH231474   2.544   6.620  12.383 -0.0749 -0.1117 -0.3792
 3328TIP3    H131475   2.533   6.559  12.456 -0.4776 -0.7851 -0.9886
 3328TIP3    H231476   2.457   6.659  12.371 -0.0893 -0.2394 -0.6985
 3329TIP3   OH231477   4.792   4.093   3.550  0.0912 -0.1644  0.0768
 3329TIP3    H131478   4.842   4.117   3.472  0.8132  1.5927  1.0214
 3329TIP3    H231479   4.856   4.054   3.609  0.0267  0.5358  0.6262
 3330TIP3   OH231480   0.869   2.589   2.085  0.2169  0.0901  0.0484
 3330TIP3    H131481   0.902   2.512   2.038 -0.5712 -0.1451 -0.1313
 3330TIP3    H231482   0.945   2.646   2.094  0.7977 -0.6776  0.1173
 3331TIP3   OH231483   0.924   3.160   4.966 -0.9009 -0.1684 -0.5111
 3331TIP3    H131484   0.980   3.166   4.889 -2.6585  1.6614 -1.7191
 3331TIP3    H231485   0.968   3.095   5.022  1.4522 -0.1079 -2.1423
 3332TIP3   OH231486   3.387   2.492  14.560  0.0233  0.4705 -0.1985
 3332TIP3    H131487   3.309   2.540  14.587 -0.2762  0.6773 -1.3773
 3332TIP3    H231488   3.438   2.555  14.509 -0.7413 -0.6185 -2.4289
 3333TIP3   OH231489   5.986   4.657  13.657 -0.2873 -0.2412 -0.5662
 3333TIP3    H131490   6.036   4.632  13.579  2.0921 -0.5618  0.9928
 3333TIP3    H231491   5.945   4.575  13.686 -0.7862 -0.2184 -1.1801
 3334TIP3   OH231492   1.680   2.577   2.392 -0.2435 -0.1051 -0.4167
 3334TIP3    H131493   1.658   2.670   2.382  0.4649 -0.0469 -1.5698
 3334TIP3    H231494   1.774   2.573   2.372 -0.0844 -0.9458  0.4688
 3335TIP3   OH231495   1.985   2.509   2.544  0.2567 -1.1153 -0.4053
 3335TIP3    H131496   2.073   2.505   2.581  0.4949 -0.4780 -0.8783
 3335TIP3    H231497   1.935   2.562   2.606  0.5324 -0.4488 -0.7392
 3336TIP3   OH231498   5.518   4.665   3.648  0.1219  0.0501 -0.1901
 3336TIP3    H131499   5.530   4.617   3.566 -1.6093  0.4424 -0.7105
 3336TIP3    H231500   5.498   4.755   3.621  0.8528  0.5071  0.7109
 3337TIP3   OH231501   1.541   2.095  14.106 -0.0210 -0.4572  0.0439
 3337TIP3    H131502   1.579   2.116  14.020 -0.7567  0.3797 -0.0857
 3337TIP3    H231503   1.611   2.048  14.152  1.1685  0.9830 -0.2170
 3338TIP3   OH231504   4.635   2.624   4.630  0.0484 -0.1529 -0.2716
 3338TIP3    H131505   4.551   2.648   4.591  0.2733 -0.2736 -0.8341
 3338TIP3    H231506   4.700   2.667   4.575  0.3595 -0.0164  0.1961
 3339TIP3   OH231507   4.960   6.763  11.102  0.8658 -0.4868 -0.1732
 3339TIP3    H131508   5.042   6.727  11.136  0.5266 -1.8946 -0.8095
 3339TIP3    H231509   4.916   6.689  11.061 -1.5449 -0.1622  1.6580
 3340TIP3   OH231510   3.124   4.707  10.601 -0.0807  0.3382  0.1115
 3340TIP3    H131511   3.114   4.726  10.695 -2.3699 -1.7359  0.3656
 3340TIP3    H231512   3.116   4.793  10.559 -1.0194  1.0822  1.6928
 3341TIP3   OH231513   4.211   2.827  13.521  0.3950  0.0493  0.3451
 3341TIP3    H131514   4.249   2.895  13.576 -1.5692  1.1929  0.3669
 3341TIP3    H231515   4.139   2.792  13.572  1.0955 -1.7742  0.1458
 3342TIP3   OH231516   5.637   1.059   3.552  0.6618 -0.3401  0.3895
 3342TIP3    H131517   5.690   1.068   3.473  1.1977  0.2359  0.8060
 3342TIP3    H231518   5.571   0.993   3.530 -0.2435  0.9957 -1.1031
 3343TIP3   OH231519   5.185   1.704   2.085  0.2432 -0.3028 -0.4048
 3343TIP3    H131520   5.210   1.613   2.099  0.6200 -0.2724 -0.8409
 3343TIP3    H231521   5.133   1.703   2.005  1.2039  0.0082 -1.0571
 3344TIP3   OH231522   2.061   1.737   0.488 -0.6535 -0.4115  0.2493
 3344TIP3    H131523   1.987   1.763   0.542 -0.5747  2.3014 -0.7691
 3344TIP3    H231524   2.132   1.795   0.515  0.3694 -1.2762 -0.4765
 3345TIP3   OH231525   4.782   6.034   0.317 -0.5114 -0.1501  0.1426
 3345TIP3    H131526   4.806   6.071   0.232 -0.8414  0.0016  0.1158
 3345TIP3    H231527   4.801   6.104   0.380  0.5244 -0.5490  0.2971
 3346TIP3   OH231528   1.901   4.476   1.047  0.0026  0.2495  0.2351
 3346TIP3    H131529   1.892   4.571   1.037  1.1561  0.3834  0.2909
 3346TIP3    H231530   1.994   4.459   1.028 -0.3266 -0.9477 -0.3820
 3347TIP3   OH231531   5.458   3.483  15.511 -0.2918 -0.0426  0.1897
 3347TIP3    H131532   5.482   3.531  15.432 -3.0921  1.2010 -0.0399
 3347TIP3    H231533   5.533   3.493  15.569  1.7061 -0.6811 -2.0851
 3348TIP3   OH231534   4.077   6.796   1.005 -0.6971 -0.0832 -0.3268
 3348TIP3    H131535   4.028   6.715   1.016 -2.1127  0.6477 -1.0232
 3348TIP3    H231536   4.061   6.822   0.914  0.2185  0.6783 -0.2916
 3349TIP3   OH231537   3.144   0.460  15.616 -0.2687 -0.2809 -0.1459
 3349TIP3    H131538   3.075   0.411  15.571 -0.0183  0.0456 -0.9076
 3349TIP3    H231539   3.186   0.396  15.674 -1.5675 -0.3488  0.7563
 3350TIP3   OH231540   4.061   0.447  12.113  0.0270 -0.1221  0.2292
 3350TIP3    H131541   4.044   0.352  12.116 -2.5363  0.1535 -2.2796
 3350TIP3    H231542   3.975   0.487  12.117  1.0144  2.1237  0.2623
 3351TIP3   OH231543   0.720   4.771  13.521  0.8226  0.0677  0.5107
 3351TIP3    H131544   0.809   4.744  13.542  1.1521  1.6395  1.2648
 3351TIP3    H231545   0.731   4.849  13.467 -0.0987 -0.4563 -0.4707
 3352TIP3   OH231546   3.561   3.758  15.071  0.2468  0.6615 -0.1274
 3352TIP3    H131547   3.494   3.694  15.049 -1.3106  2.4261 -0.8421
 3352TIP3    H231548   3.643   3.719  15.041 -0.4093 -1.5910  0.8236
 3353TIP3   OH231549   3.125   0.206  16.161 -0.2598  0.1857 -0.5295
 3353TIP3    H131550   3.194   0.272  16.159 -0.5021  0.4310 -1.0305
 3353TIP3    H231551   3.046   0.254  16.185 -0.7426  0.3916 -2.3297
 3354TIP3   OH231552   0.572   3.115  11.584  0.2425 -0.6652 -0.6326
 3354TIP3    H131553   0.659   3.076  11.595  1.6404  2.2990  0.1418
 3354TIP3    H231554   0.564   3.130  11.489  2.2968  2.1933 -0.5097
 3355TIP3   OH231555   3.687   2.703  12.199  0.5175 -0.4934 -0.2529
 3355TIP3    H131556   3.608   2.711  12.253 -0.8064 -0.9389 -2.0511
 3355TIP3    H231557   3.736   2.632  12.239 -0.4483 -0.8344  0.3617
 3356TIP3   OH231558   0.464   5.831  15.279 -0.2182 -0.0699 -0.0742
 3356TIP3    H131559   0.522   5.769  15.234 -0.5901 -0.5228  0.0603
 3356TIP3    H231560   0.380   5.785  15.286 -0.5682  0.5359 -0.1694
 3357TIP3   OH231561   3.561   2.793   3.476  0.3019  0.1931  0.4039
 3357TIP3    H131562   3.625   2.724   3.496  1.0468  0.3432 -1.2883
 3357TIP3    H231563   3.614   2.864   3.441 -0.5671  1.2860  1.2488
 3358TIP3   OH231564   5.837   2.715   2.322  0.3977 -0.5929  0.2898
 3358TIP3    H131565   5.906   2.650   2.314  0.6775 -0.5041  1.6888
 3358TIP3    H231566   5.875   2.785   2.376  0.9135  1.9178 -3.0218
 3359TIP3   OH231567   6.212   3.000   3.368 -0.1140  0.2728 -0.3686
 3359TIP3    H131568   6.174   3.047   3.442  0.6115  1.0140 -0.4403
 3359TIP3    H231569   6.268   3.065   3.326 -1.1859  0.1483 -2.0964
 3360TIP3   OH231570   3.477   4.612   2.224 -0.3484  0.0379 -0.4530
 3360TIP3    H131571   3.442   4.579   2.307  0.7836  1.0334  0.4523
 3360TIP3    H231572   3.446   4.703   2.220  0.2415  0.2330 -0.7366
 3361TIP3   OH231573   6.770   6.230  13.479 -0.2350 -0.0607 -0.1622
 3361TIP3    H131574   6.768   6.249  13.572  1.2137 -1.6974  0.2628
 3361TIP3    H231575   6.743   6.138  13.472  1.4016 -0.5209 -1.1252
 3362TIP3   OH231576   6.214   2.084   1.297 -0.2135 -0.3047  0.2728
 3362TIP3    H131577   6.217   2.061   1.390  0.1737 -1.1411  0.0642
 3362TIP3    H231578   6.264   2.166   1.291  0.6274 -0.7788  0.6576
 3363TIP3   OH231579   0.071   1.197   4.049  0.2760 -0.1351  0.4620
 3363TIP3    H131580   0.048   1.183   4.140 -2.0702  0.1709 -0.0250
 3363TIP3    H231581   0.048   1.114   4.006  0.4207  0.0681 -0.0137
 3364TIP3   OH231582   5.297   4.227   6.066  0.2140 -0.6594  0.3719
 3364TIP3    H131583   5.342   4.236   6.150  1.2706 -0.8296 -0.1651
 3364TIP3    H231584   5.224   4.289   6.071 -0.5679 -1.6488  1.9438
 3365TIP3   OH231585   5.076   6.703  16.249  0.2808  0.3010 -0.0031
 3365TIP3    H131586   5.124   6.637  16.299  0.8036  0.2812 -0.5164
 3365TIP3    H231587   5.027   6.753  16.314  0.2055 -0.3306  0.4287
 3366TIP3   OH231588   4.521   2.434   0.139 -0.0225  0.4044  0.3369
 3366TIP3    H131589   4.455   2.389   0.192  1.3287  0.4160  2.1166
 3366TIP3    H231590   4.602   2.425   0.188  1.3147  0.5179 -1.7270
 3367TIP3   OH231591   2.557   2.305  11.037  0.0307  0.4587  0.3152
 3367TIP3    H131592   2.502   2.230  11.017 -0.8724  1.1120  0.3065
 3367TIP3    H231593   2.546   2.364  10.962  1.2228  0.3406  0.0156
 3368TIP3   OH231594   1.724   4.364  10.779 -0.2112 -0.3494 -0.1880
 3368TIP3    H131595   1.796   4.302  10.778  0.0947 -0.0021  0.1275
 3368TIP3    H231596   1.651   4.316  10.818  0.2572 -0.2569  0.8400
 3369TIP3   OH231597   2.867   0.686   5.082 -0.3683 -0.2095 -0.7790
 3369TIP3    H131598   2.943   0.697   5.138 -0.4466  0.8681 -0.8750
 3369TIP3    H231599   2.904   0.655   4.999 -0.2744 -2.0274 -0.1079
 3370TIP3   OH231600   1.338   5.996   0.983  0.1841 -0.5960 -0.1901
 3370TIP3    H131601   1.326   6.085   0.950 -0.4233 -0.7294 -0.3485
 3370TIP3    H231602   1.432   5.988   0.999  0.3064 -0.0896 -0.6414
 3371TIP3   OH231603   3.228   2.984   4.446  0.3879  0.3093  0.1243
 3371TIP3    H131604   3.257   2.908   4.396 -2.9230 -0.3922 -0.9576
 3371TIP3    H231605   3.241   2.959   4.538  2.7325 -0.0043 -0.2197
 3372TIP3   OH231606   1.044   2.362  16.802  0.0710 -0.6087  0.0806
 3372TIP3    H131607   0.962   2.404  16.776 -1.2437 -2.3517  1.2389
 3372TIP3    H231608   1.050   2.376  16.896  1.0988 -0.5807  0.0270
 3373TIP3   OH231609   3.088   2.610  16.723  0.5459 -0.2831 -0.0706
 3373TIP3    H131610   3.059   2.574  16.639 -1.8327  0.1288  0.5019
 3373TIP3    H231611   3.084   2.536  16.783 -1.8931  0.2832  0.5542
 3374TIP3   OH231612   2.257   0.962   2.242 -0.2606 -0.5393  0.0655
 3374TIP3    H131613   2.166   0.955   2.216 -0.4012  0.0562  0.3662
 3374TIP3    H231614   2.254   0.979   2.336  0.2218 -2.2365  0.4208
 3375TIP3   OH231615   5.113   3.171  12.167  0.1287 -0.2291  0.3047
 3375TIP3    H131616   5.108   3.102  12.232 -2.7715 -0.3433  0.1230
 3375TIP3    H231617   5.188   3.224  12.192  0.3904 -1.5131  2.4180
 3376TIP3   OH231618   2.989   3.473   3.948 -1.1073 -0.2354  0.2240
 3376TIP3    H131619   3.068   3.419   3.941  0.4503  1.5858  2.3635
 3376TIP3    H231620   2.999   3.539   3.880 -1.3083 -0.5807 -0.1473
 3377TIP3   OH231621   3.664   3.760   5.543 -0.1289  0.2299 -0.5490
 3377TIP3    H131622   3.664   3.793   5.453 -1.6462 -1.0960 -1.0920
 3377TIP3    H231623   3.721   3.684   5.541  0.6791  0.8099 -0.1107
 3378TIP3   OH231624   1.959   3.933   3.297 -0.2107 -0.0986 -0.7213
 3378TIP3    H131625   2.018   3.881   3.351  0.9446 -1.0306 -2.7613
 3378TIP3    H231626   1.871   3.912   3.330  0.4519 -0.2188  1.0692
 3379TIP3   OH231627   2.876   0.099  15.523 -0.1366  0.7135  0.1716
 3379TIP3    H131628   2.914   0.179  15.558  0.4110  0.2184  0.7376
 3379TIP3    H231629   2.831   0.126  15.443 -0.5507  1.6919  0.7264
 3380TIP3   OH231630   0.951   5.393   5.055 -0.1283  0.0876  0.6250
 3380TIP3    H131631   0.922   5.322   5.112  0.2795  0.7986  1.7760
 3380TIP3    H231632   0.878   5.409   4.996  0.2088 -2.0446 -0.4506
 3381TIP3   OH231633   3.708   5.748   4.963  0.2193  0.0704  0.3925
 3381TIP3    H131634   3.648   5.800   4.909  1.5618 -0.0886 -1.3553
 3381TIP3    H231635   3.794   5.786   4.947  0.8180 -0.7637  1.5123
 3382TIP3   OH231636   4.057   5.222  15.201  0.9828 -0.3914  0.1533
 3382TIP3    H131637   4.118   5.183  15.139 -1.0051 -1.2374 -1.3662
 3382TIP3    H231638   4.105   5.296  15.238  2.0407  0.6220 -2.9401
 3383TIP3   OH231639   1.003   2.787   4.599  0.1816  0.3229 -0.2184
 3383TIP3    H131640   0.926   2.773   4.654  1.3658  0.7039  1.6474
 3383TIP3    H231641   1.009   2.708   4.544 -0.5648 -0.5026  0.8492
 3384TIP3   OH231642   1.795   2.830   1.186 -0.0657 -0.0164 -0.0937
 3384TIP3    H131643   1.796   2.915   1.231  1.4145 -0.9190  1.7042
 3384TIP3    H231644   1.723   2.783   1.226 -0.1787 -0.0101 -0.2900
 3385TIP3   OH231645   0.255   3.518  11.140 -0.2875 -0.8282  0.1211
 3385TIP3    H131646   0.175   3.517  11.192 -0.7435 -1.2363 -0.5583
 3385TIP3    H231647   0.275   3.610  11.127 -0.0983 -0.7270  1.1136
 3386TIP3   OH231648   5.395   0.818  14.267  0.3063 -0.4541 -0.5341
 3386TIP3    H131649   5.394   0.842  14.175 -0.1508 -1.0722 -0.6965
 3386TIP3    H231650   5.488   0.803  14.287  0.2182 -2.6232 -1.5231
 3387TIP3   OH231651   4.057   4.460  16.175 -0.0781  0.2986 -0.0479
 3387TIP3    H131652   4.018   4.537  16.133 -1.0496  0.2217  0.6740
 3387TIP3    H231653   4.000   4.442  16.250  0.3907 -0.8547  0.0574
 3388TIP3   OH231654   5.857   5.212   4.065 -0.5016  0.3466 -0.4543
 3388TIP3    H131655   5.810   5.184   4.143 -1.6879 -0.6356 -1.4699
 3388TIP3    H231656   5.843   5.307   4.061 -0.1885  0.4546  0.6487
 3389TIP3   OH231657   2.478   1.513   1.214 -0.0400 -0.0352  0.3426
 3389TIP3    H131658   2.455   1.448   1.280 -0.3276 -0.8213 -0.5163
 3389TIP3    H231659   2.401   1.571   1.209  1.2944  2.2258  3.2064
 3390TIP3   OH231660   6.341   4.105   3.306  0.3845 -0.4005  0.5594
 3390TIP3    H131661   6.266   4.143   3.351  0.6746  1.9325 -0.7969
 3390TIP3    H231662   6.320   4.011   3.301 -2.7583  0.2135 -0.3000
 3391TIP3   OH231663   0.865   6.706  12.351 -0.5801 -0.0158 -0.1825
 3391TIP3    H131664   0.834   6.797  12.351  0.6724  0.4367 -0.4484
 3391TIP3    H231665   0.877   6.685  12.258  0.0353 -0.1205 -0.0829
 3392TIP3   OH231666   2.889   6.598   1.086  0.0380  0.3035  0.0423
 3392TIP3    H131667   2.820   6.600   1.019  1.1850  1.2677 -1.1587
 3392TIP3    H231668   2.903   6.505   1.104 -1.4174  0.0826  0.1714
 3393TIP3   OH231669   3.071   6.172  11.158  0.2712  0.1654  0.0394
 3393TIP3    H131670   3.014   6.137  11.090 -0.4236 -0.3355  0.8504
 3393TIP3    H231671   3.137   6.224  11.111  0.0426 -0.4840 -1.0297
 3394TIP3   OH231672   3.529   0.075  16.032 -0.3685  0.0381  0.3365
 3394TIP3    H131673   3.487   0.063  15.946  0.7786  1.8409 -0.5341
 3394TIP3    H231674   3.621   0.054  16.016  0.1546  1.9074  0.7115
 3395TIP3   OH231675   6.518   3.618  12.171 -0.3161 -0.6577  0.4884
 3395TIP3    H131676   6.542   3.691  12.228 -2.5210  1.6998 -1.3933
 3395TIP3    H231677   6.425   3.605  12.185 -1.0381  0.2182 -2.6049
 3396TIP3   OH231678   4.795   5.180   5.993 -0.0856 -0.4715  0.1355
 3396TIP3    H131679   4.880   5.175   6.036  0.4298 -0.6580 -0.8835
 3396TIP3    H231680   4.732   5.185   6.065  0.7304 -1.1485  0.9177
 3397TIP3   OH231681   2.836   3.616   5.977 -0.5195  0.0503 -0.1427
 3397TIP3    H131682   2.899   3.610   6.049 -2.5466 -2.1543  1.6368
 3397TIP3    H231683   2.795   3.702   5.988  0.8546  0.7248 -0.1760
 3398TIP3   OH231684   5.628   5.421   5.273  0.4977 -0.6193  0.0553
 3398TIP3    H131685   5.584   5.399   5.191 -0.7089  2.1201 -0.1532
 3398TIP3    H231686   5.591   5.506   5.298 -1.0694 -2.3220  4.7338
 3399TIP3   OH231687   2.180   2.998   0.343  0.4049  0.4495 -0.3922
 3399TIP3    H131688   2.135   3.077   0.373  1.4934  0.7008  0.6798
 3399TIP3    H231689   2.117   2.953   0.287 -0.4342  1.7908 -0.5559
 3400TIP3   OH231690   5.234   5.043  15.882  0.1740 -0.3158 -0.1763
 3400TIP3    H131691   5.193   4.992  15.952 -1.5113  0.8445 -0.2709
 3400TIP3    H231692   5.213   4.996  15.802  0.6944 -0.7513 -0.0654
 3401TIP3   OH231693   0.948   3.337  14.203 -0.4672 -0.3254  0.0459
 3401TIP3    H131694   1.040   3.335  14.176 -0.0296  0.7343  1.3264
 3401TIP3    H231695   0.909   3.406  14.148  0.2829  1.4250  1.5929
 3402TIP3   OH231696   0.308   5.368   0.480 -0.6843  0.7362 -0.1586
 3402TIP3    H131697   0.306   5.333   0.391  1.9709  0.5307 -0.2141
 3402TIP3    H231698   0.347   5.455   0.470  1.0437  0.1313  0.9114
 3403TIP3   OH231699   0.515   3.658  12.429  0.6907  0.0548  0.3568
 3403TIP3    H131700   0.602   3.623  12.412  0.1497 -1.4696  0.5907
 3403TIP3    H231701   0.454   3.589  12.402 -0.5272  1.5403 -0.9433
 3404TIP3   OH231702   1.889   4.457  14.857  0.0058  0.0528 -0.2183
 3404TIP3    H131703   1.846   4.537  14.889 -2.0499 -0.9537 -0.3128
 3404TIP3    H231704   1.938   4.424  14.933  1.0073  1.4323 -0.2199
 3405TIP3   OH231705   1.698   4.971  11.890 -0.5723  0.2928 -0.2366
 3405TIP3    H131706   1.727   4.888  11.854 -1.0244  1.3426 -3.3260
 3405TIP3    H231707   1.603   4.962  11.900 -0.2122 -1.1291  4.2963
 3406TIP3   OH231708   4.512   2.796  15.556 -0.3345 -0.0150  0.0715
 3406TIP3    H131709   4.494   2.718  15.504  0.5453  0.2230 -0.6102
 3406TIP3    H231710   4.426   2.836  15.570 -0.9212 -1.5397  1.1769
 3407TIP3   OH231711   6.540   5.078   3.741  0.0382 -0.7912 -0.2560
 3407TIP3    H131712   6.613   5.124   3.783  0.4105 -0.8443 -0.8376
 3407TIP3    H231713   6.581   5.005   3.694 -0.2466 -0.1325 -1.5632
 3408TIP3   OH231714   1.425   1.741   5.106 -0.0796  0.2003  0.1592
 3408TIP3    H131715   1.401   1.652   5.083 -2.8965  0.6386  0.9394
 3408TIP3    H231716   1.385   1.755   5.192  1.4453  1.8016  0.6708
 3409TIP3   OH231717   0.006   4.225  15.775  0.3874 -0.1614 -0.2414
 3409TIP3    H131718   0.053   4.270  15.845 -0.6888  2.0329 -0.8516
 3409TIP3    H231719   0.075   4.179  15.726  1.5437  0.7264  0.4946
 3410TIP3   OH231720   5.135   0.102   6.577 -0.0113  0.1530 -0.1322
 3410TIP3    H131721   5.119   0.042   6.503 -0.8496 -1.9661  1.6492
 3410TIP3    H231722   5.213   0.066   6.620 -0.1642  0.6926  0.6113
 3411TIP3   OH231723   6.129   6.426   1.719 -0.2409 -0.3629  0.3012
 3411TIP3    H131724   6.094   6.510   1.746 -1.4139 -0.8891  0.4867
 3411TIP3    H231725   6.122   6.371   1.797  0.7565 -0.5698  0.2575
 3412TIP3   OH231726   1.106   2.112  15.958 -0.1837  0.0063 -0.2890
 3412TIP3    H131727   1.040   2.086  15.895  1.0845 -1.7809 -0.9610
 3412TIP3    H231728   1.143   2.193  15.922 -0.4475 -0.2206 -1.0835
 3413TIP3   OH231729   1.284   1.042   3.382  0.4215  0.3029 -0.1852
 3413TIP3    H131730   1.304   1.065   3.473 -0.1248  0.3811 -0.0767
 3413TIP3    H231731   1.308   1.119   3.331 -1.6223  1.2588  0.2016
 3414TIP3   OH231732   1.919   4.609   3.258 -0.0255 -0.4263  0.2063
 3414TIP3    H131733   1.830   4.583   3.238 -0.9225  3.1170 -1.0990
 3414TIP3    H231734   1.915   4.639   3.349 -0.2884  0.1843 -0.0054
 3415TIP3   OH231735   1.325   5.964  15.369 -0.3809 -0.3396 -0.3012
 3415TIP3    H131736   1.286   6.036  15.320  0.9843  0.3522 -0.4426
 3415TIP3    H231737   1.275   5.961  15.450 -0.8983  0.3274 -0.5805
 3416TIP3   OH231738   6.101   4.521  16.543  0.5074 -0.2533  0.2597
 3416TIP3    H131739   6.064   4.609  16.555  0.7147 -0.0764 -0.3523
 3416TIP3    H231740   6.098   4.507  16.448 -0.0183 -1.1247  0.3910
 3417TIP3   OH231741   0.489   2.994   6.507  0.1480  0.3891 -0.1134
 3417TIP3    H131742   0.486   3.016   6.414  2.5111  0.3451 -0.2373
 3417TIP3    H231743   0.502   2.899   6.509  2.8684  0.6951  0.1427
 3418TIP3   OH231744   0.806   1.224   4.268  0.0184 -0.2270  0.2470
 3418TIP3    H131745   0.825   1.163   4.196 -1.2752  0.4047 -0.6522
 3418TIP3    H231746   0.855   1.303   4.246 -0.6866  0.1041 -0.1547
 3419TIP3   OH231747   3.248   0.512   5.335 -0.2652 -0.2890 -0.0130
 3419TIP3    H131748   3.158   0.479   5.340  0.2379 -1.7925 -0.2391
 3419TIP3    H231749   3.302   0.433   5.331  1.1132  0.5760  0.7290
 3420TIP3   OH231750   1.163   5.658  11.024  0.1995  0.2635 -0.0482
 3420TIP3    H131751   1.092   5.644  11.087 -0.0947 -0.7345 -0.5616
 3420TIP3    H231752   1.159   5.751  11.003 -0.5944  0.3339  0.3624
 3421TIP3   OH231753   3.031   2.675  15.276 -0.2674  0.0971 -0.2880
 3421TIP3    H131754   2.990   2.718  15.351 -0.3173  0.8276 -0.7141
 3421TIP3    H231755   2.962   2.619  15.240 -0.7117  0.8412 -0.6321
 3422TIP3   OH231756   2.205   4.489  15.036  0.6241  0.2549  0.6252
 3422TIP3    H131757   2.264   4.551  15.079 -2.6943  4.3396 -0.0283
 3422TIP3    H231758   2.118   4.518  15.063 -1.2736 -2.9299 -1.4897
 3423TIP3   OH231759   1.175   2.552   4.769  0.4245  0.1075 -0.4584
 3423TIP3    H131760   1.174   2.467   4.813 -0.8183  1.2267  1.8194
 3423TIP3    H231761   1.125   2.538   4.689  1.0038 -1.4897 -0.5871
 3424TIP3   OH231762   5.039   6.225  16.088  0.3815 -0.2924  0.4311
 3424TIP3    H131763   5.003   6.281  16.019  2.6763 -0.1585 -0.7639
 3424TIP3    H231764   4.962   6.185  16.129 -1.0869 -0.4641 -2.2685
 3425TIP3   OH231765   0.391   6.404   3.256 -0.0167 -0.2221 -0.4870
 3425TIP3    H131766   0.421   6.401   3.346  0.6977  0.9002 -0.6575
 3425TIP3    H231767   0.319   6.467   3.257  0.5544  0.4564 -0.8268
 3426TIP3   OH231768   1.871   1.977   1.906  0.0806 -0.1503 -0.4452
 3426TIP3    H131769   1.964   1.978   1.932  0.1891 -0.8734 -0.7924
 3426TIP3    H231770   1.855   1.887   1.879 -0.4853  0.1969 -1.2800
 3427TIP3   OH231771   1.217   4.292  17.085 -0.1792  0.4718 -0.5555
 3427TIP3    H131772   1.235   4.217  17.142  0.6572 -0.9626 -2.5971
 3427TIP3    H231773   1.137   4.331  17.122  0.3362 -0.3272  1.5798
 3428TIP3   OH231774   1.564   3.483   4.298  0.1422 -0.2178  0.4174
 3428TIP3    H131775   1.535   3.391   4.293 -0.0773 -0.1619  0.6273
 3428TIP3    H231776   1.657   3.478   4.320  0.7551 -0.4448 -1.9907
 3429TIP3   OH231777   6.650   1.790   0.918  0.5132 -0.3511  0.0254
 3429TIP3    H131778   6.598   1.837   0.983  0.2848 -0.9406  0.2711
 3429TIP3    H231779   6.733   1.837   0.914 -0.1668  0.8443 -0.6505
 3430TIP3   OH231780   0.466   1.226   2.033  0.1922  0.1423  0.3011
 3430TIP3    H131781   0.495   1.208   1.944  2.0687 -0.5833  0.9951
 3430TIP3    H231782   0.405   1.155   2.053  0.1787 -0.0040 -0.2333
 3431TIP3   OH231783   4.052   3.856   4.849 -0.0621  0.4613 -0.1247
 3431TIP3    H131784   4.001   3.775   4.853 -0.2896  0.5844 -0.4479
 3431TIP3    H231785   4.084   3.869   4.938  0.3351 -0.2135 -0.1558
 3432TIP3   OH231786   5.453   0.384   1.786  0.4306 -0.2864 -0.2788
 3432TIP3    H131787   5.411   0.326   1.850 -0.1952  1.1969  0.7189
 3432TIP3    H231788   5.546   0.380   1.808  0.4114 -0.9855 -0.2971
 3433TIP3   OH231789   5.011   4.728   0.645  0.0605 -0.1624  0.0762
 3433TIP3    H131790   4.967   4.648   0.616  2.2140 -0.8840 -1.3956
 3433TIP3    H231791   4.959   4.799   0.607 -1.4272 -0.8439  0.7592
 3434TIP3   OH231792   6.599   0.819  10.273 -0.0474  0.4239  0.3878
 3434TIP3    H131793   6.662   0.866  10.327 -0.1236 -0.3165  1.1506
 3434TIP3    H231794   6.646   0.740  10.246 -0.3554  0.2936  0.2310
 3435TIP3   OH231795   5.464   4.478   1.509 -0.4596 -0.2074  0.3523
 3435TIP3    H131796   5.484   4.463   1.601  2.1029  1.9999  0.2544
 3435TIP3    H231797   5.545   4.457   1.462 -1.3276 -0.1020 -1.2817
 3436TIP3   OH231798   4.016   0.538   0.251  0.1235 -0.5566 -0.3923
 3436TIP3    H131799   3.993   0.489   0.329 -0.8632  0.4361 -0.0313
 3436TIP3    H231800   4.104   0.571   0.268 -0.3658  0.2886  0.6628
 3437TIP3   OH231801   2.453   3.582  14.545  0.0267 -0.6076  0.1001
 3437TIP3    H131802   2.410   3.574  14.630 -1.4856 -0.0433 -0.5768
 3437TIP3    H231803   2.539   3.618  14.565 -1.0380  1.4639  1.2665
 3438TIP3   OH231804   6.549   6.109  13.063  0.3946  0.3305  0.5091
 3438TIP3    H131805   6.544   6.045  12.992 -4.0104  1.5242 -0.5744
 3438TIP3    H231806   6.490   6.075  13.130  0.0278  1.9515  1.0606
 3439TIP3   OH231807   3.881   0.651  12.403 -0.5937  0.2337 -0.4237
 3439TIP3    H131808   3.976   0.660  12.397 -0.2802 -1.1582  1.7177
 3439TIP3    H231809   3.853   0.637  12.313  1.6101 -2.5715 -0.7893
 3440TIP3   OH231810   1.942   4.455   4.087  0.3732 -0.4360  0.0706
 3440TIP3    H131811   1.966   4.414   4.003  1.5573  1.3623 -0.5165
 3440TIP3    H231812   1.858   4.496   4.070  0.7632  0.2015 -0.3541
 3441TIP3   OH231813   2.331   5.042   0.697 -0.1417 -0.1479 -0.2437
 3441TIP3    H131814   2.354   4.960   0.742  0.0299 -0.9724 -1.7893
 3441TIP3    H231815   2.275   5.015   0.625  0.2520  1.0623 -1.0249
 3442TIP3   OH231816   5.736   5.047   0.379  0.1165 -0.4800 -0.0583
 3442TIP3    H131817   5.794   5.022   0.307  0.3950 -0.8073  0.2764
 3442TIP3    H231818   5.691   4.966   0.403 -0.2183 -0.3034 -0.0768
 3443TIP3   OH231819   6.046   5.443   4.309  0.2624 -0.3532 -0.7279
 3443TIP3    H131820   6.003   5.524   4.281  0.2939 -0.4647 -1.1080
 3443TIP3    H231821   6.139   5.466   4.313  0.3472 -0.5363 -1.4590
 3444TIP3   OH231822   0.055   3.289   1.524  0.4927 -0.1437 -0.5381
 3444TIP3    H131823   0.135   3.318   1.481 -0.1231 -1.8773 -3.0190
 3444TIP3    H231824   0.079   3.208   1.568  0.3331 -0.0803 -0.3288
 3445TIP3   OH231825   5.082   2.984   4.617 -0.2908  0.5916 -0.4080
 3445TIP3    H131826   5.059   3.020   4.702 -1.7292 -1.0718 -0.0072
 3445TIP3    H231827   5.174   2.959   4.624 -0.0090  1.7371  0.1505
 3446TIP3   OH231828   3.431   6.296   5.704 -0.7411 -0.5778 -0.7146
 3446TIP3    H131829   3.394   6.383   5.685  1.9609  0.9336  0.4128
 3446TIP3    H231830   3.496   6.282   5.635  0.7702 -0.4139  0.6268
 3447TIP3   OH231831   0.970   5.516  11.836 -0.9739  0.4475 -0.1572
 3447TIP3    H131832   1.063   5.538  11.838 -0.6711 -0.8119  1.1145
 3447TIP3    H231833   0.952   5.495  11.744 -0.0328  0.8184 -0.4332
 3448TIP3   OH231834   1.806   0.611  16.661 -0.0869 -0.2052 -0.0719
 3448TIP3    H131835   1.751   0.688  16.676  0.5893 -0.0548  1.9101
 3448TIP3    H231836   1.894   0.647  16.648  0.1745 -0.6171  0.5266
 3449TIP3   OH231837   1.491   6.569  10.703 -0.2279 -0.0761  0.8227
 3449TIP3    H131838   1.478   6.626  10.627 -0.2419 -0.9282  0.1765
 3449TIP3    H231839   1.550   6.501  10.672  0.7713  0.2537  1.9487
 3450TIP3   OH231840   6.277   2.624   1.307 -0.5263  0.1553 -0.6454
 3450TIP3    H131841   6.262   2.627   1.401 -1.3554  1.4819 -0.8030
 3450TIP3    H231842   6.198   2.582   1.272  0.3606 -1.6161 -0.6731
 3451TIP3   OH231843   3.382   0.489   4.776  0.4905 -0.3161 -0.6200
 3451TIP3    H131844   3.338   0.489   4.861 -1.2284  0.2579 -1.4711
 3451TIP3    H231845   3.398   0.581   4.756  2.2441 -0.5131 -0.2838
 3452TIP3   OH231846   0.461   0.915   1.342  0.1181  0.6031  0.7317
 3452TIP3    H131847   0.533   0.895   1.282 -0.3926 -0.7204  0.5105
 3452TIP3    H231848   0.504   0.935   1.425  0.7582 -0.2476  0.6220
 3453TIP3   OH231849   0.752   1.142  11.862  0.1997  0.0379 -0.0884
 3453TIP3    H131850   0.842   1.116  11.880  0.5622  0.3847 -1.2771
 3453TIP3    H231851   0.731   1.099  11.779 -0.2363  1.0608 -0.5311
 3454TIP3   OH231852   2.485   4.969   1.444  0.6260  0.2168 -0.3284
 3454TIP3    H131853   2.399   4.956   1.486  0.2406  0.3355 -1.0638
 3454TIP3    H231854   2.484   4.911   1.368  0.1577  2.0671 -1.8198
 3455TIP3   OH231855   0.334   3.158  13.479 -0.3517 -0.2132  0.1456
 3455TIP3    H131856   0.421   3.191  13.456 -0.9632  2.1712  0.9782
 3455TIP3    H231857   0.332   3.161  13.575 -0.6810 -2.2150  0.2472
 3456TIP3   OH231858   5.625   2.355  15.508 -0.0526 -0.0400 -0.0836
 3456TIP3    H131859   5.640   2.419  15.438 -0.8305 -1.3133 -1.4645
 3456TIP3    H231860   5.540   2.379  15.545  0.8578  1.3391  1.2897
 3457TIP3   OH231861   5.785   3.023  16.762  0.1158 -0.3116  0.1283
 3457TIP3    H131862   5.731   3.081  16.708 -0.0710  0.2233  0.8680
 3457TIP3    H231863   5.765   2.935  16.731 -1.6766 -0.1846  0.7918
 3458TIP3   OH231864   5.676   2.864  14.680 -0.0502  0.6850  0.9164
 3458TIP3    H131865   5.768   2.888  14.690  0.1583 -0.5918  2.3516
 3458TIP3    H231866   5.630   2.948  14.674  1.2008  1.3394  0.0805
 3459TIP3   OH231867   3.431   5.150   4.612  0.3196  0.5302 -0.1206
 3459TIP3    H131868   3.466   5.206   4.543 -0.1984  0.2280 -0.6357
 3459TIP3    H231869   3.474   5.181   4.692 -0.6895  2.3552 -0.2191
 3460TIP3   OH231870   6.600   5.622  12.537 -0.8299  0.0233  0.6695
 3460TIP3    H131871   6.537   5.550  12.549 -1.6392  0.6263  0.1050
 3460TIP3    H231872   6.583   5.680  12.611 -0.6865  0.0073  0.7142
 3461TIP3   OH231873   2.271   4.052  11.627 -0.2254 -0.2045 -0.2836
 3461TIP3    H131874   2.352   4.020  11.589  0.0046  1.1322 -0.9844
 3461TIP3    H231875   2.241   3.981  11.684  1.2439 -0.8562 -0.2796
 3462TIP3   OH231876   6.567   0.055  12.655  0.7411  0.1530  0.9419
 3462TIP3    H131877   6.604  -0.033  12.646 -0.4443 -0.1811 -1.3259
 3462TIP3    H231878   6.474   0.040  12.672  0.5107  0.9656  0.4173
 3463TIP3   OH231879   2.294   6.079   5.559  0.2757  0.2228 -0.0402
 3463TIP3    H131880   2.328   6.027   5.486 -0.1172  0.0257 -0.0834
 3463TIP3    H231881   2.265   6.015   5.623 -0.7216  0.3786 -0.3263
 3464TIP3   OH231882   3.494   4.283  14.016  0.3477  0.2320  0.0102
 3464TIP3    H131883   3.416   4.246  13.975  1.7664 -2.3831 -0.5187
 3464TIP3    H231884   3.561   4.281  13.948  0.9996  2.2200  0.5196
 3465TIP3   OH231885   0.534   3.621  11.746 -0.3197  0.2181  0.2748
 3465TIP3    H131886   0.589   3.694  11.718 -1.2116  0.2803 -1.4235
 3465TIP3    H231887   0.451   3.660  11.770 -0.9904 -0.2401 -1.1704
 3466TIP3   OH231888   1.318   2.378  16.662  0.6796  0.2063  0.0661
 3466TIP3    H131889   1.350   2.298  16.703 -0.8110 -1.6173 -2.1005
 3466TIP3    H231890   1.222   2.372  16.669  0.3995  0.3255 -2.5159
 3467TIP3   OH231891   5.041   4.416  15.579 -0.1461  0.4096  0.3310
 3467TIP3    H131892   4.982   4.355  15.623  0.3122  0.1447  0.5924
 3467TIP3    H231893   5.101   4.445  15.648  0.8023 -0.2770 -0.1919
 3468TIP3   OH231894   6.765   5.089   6.313 -0.0587 -0.3496 -0.0747
 3468TIP3    H131895   6.827   5.105   6.384 -0.2725 -0.6893  0.1948
 3468TIP3    H231896   6.766   4.994   6.302 -0.0607 -0.3025 -0.4975
 3469TIP3   OH231897   5.121   2.234   4.732  0.9251  0.4314  0.5347
 3469TIP3    H131898   5.126   2.141   4.754  1.0340  0.6896  1.6590
 3469TIP3    H231899   5.054   2.269   4.791 -0.8147  0.6418 -1.4554
 3470TIP3   OH231900   6.018   3.544  14.693  0.3509 -0.5994  0.1447
 3470TIP3    H131901   6.034   3.589  14.776 -1.1496 -0.0182  0.1319
 3470TIP3    H231902   5.975   3.463  14.718  0.7927 -0.8901 -0.0155
 3471TIP3   OH231903   2.549   6.223  15.815 -0.3950  0.8842  0.3140
 3471TIP3    H131904   2.617   6.235  15.881  0.4762 -0.7265 -0.2154
 3471TIP3    H231905   2.597   6.193  15.737 -1.6502  0.1367 -0.2110
 3472TIP3   OH231906   6.007   6.158   6.057  0.1529  0.1874  0.1699
 3472TIP3    H131907   5.919   6.153   6.019  0.0969  2.6046 -0.1977
 3472TIP3    H231908   6.060   6.099   6.003 -0.5446  1.3277 -1.8946
 3473TIP3   OH231909   5.803   6.781  16.784 -0.2104  0.1373 -0.2628
 3473TIP3    H131910   5.739   6.807  16.718  0.3872  1.0546 -0.4804
 3473TIP3    H231911   5.770   6.696  16.816 -2.4235  1.2983  0.7639
 3474TIP3   OH231912   1.454   6.565   5.992 -0.2802  0.1018 -0.4391
 3474TIP3    H131913   1.539   6.602   6.015  0.2610 -1.5961  0.5048
 3474TIP3    H231914   1.399   6.582   6.069  0.3978 -2.1760  0.6503
 3475TIP3   OH231915   5.480   4.905   5.703  0.0219 -0.4047 -0.1411
 3475TIP3    H131916   5.570   4.926   5.680  0.0819  1.1967  1.4123
 3475TIP3    H231917   5.487   4.829   5.760  0.7375  1.5430  2.5390
 3476TIP3   OH231918   3.517   0.646   2.016 -0.3154 -0.3197 -0.0726
 3476TIP3    H131919   3.550   0.736   2.014 -0.1682 -0.3700  0.0896
 3476TIP3    H231920   3.428   0.653   1.982  0.1870 -0.3239 -1.4430
 3477TIP3   OH231921   2.281   0.411   1.324 -0.3075 -0.1830 -0.2281
 3477TIP3    H131922   2.209   0.443   1.378 -0.1554 -1.4431  0.7677
 3477TIP3    H231923   2.336   0.488   1.309 -1.3382  0.5816 -0.1749
 3478TIP3   OH231924   0.432   6.266  14.919 -0.4528  0.4236 -0.5296
 3478TIP3    H131925   0.470   6.214  14.848  1.1317 -1.4245  1.5303
 3478TIP3    H231926   0.363   6.210  14.955 -0.3134  0.7493  0.2513
 3479TIP3   OH231927   3.713   3.327  13.965  0.1231 -0.0348  0.2264
 3479TIP3    H131928   3.686   3.418  13.954  1.5688  0.5224  0.9117
 3479TIP3    H231929   3.759   3.306  13.883  0.4141  0.1091  0.3484
 3480TIP3   OH231930   3.393   1.280  13.579 -0.5139  0.0026  0.2502
 3480TIP3    H131931   3.416   1.194  13.615 -1.4222 -0.6480 -0.6630
 3480TIP3    H231932   3.313   1.305  13.626  0.6634  1.1577  1.7226
 3481TIP3   OH231933   6.818   0.172   0.545  0.4241 -0.4619  0.0280
 3481TIP3    H131934   6.906   0.209   0.549 -0.1674  0.8931  1.3338
 3481TIP3    H231935   6.779   0.211   0.466  1.0209 -1.1962 -0.6483
 3482TIP3   OH231936   5.623   0.923   1.764 -0.3365  1.1525 -0.2353
 3482TIP3    H131937   5.547   0.958   1.718 -0.4056  1.2631 -0.0418
 3482TIP3    H231938   5.677   0.999   1.783 -0.5587  1.1796  0.3155
 3483TIP3   OH231939   5.940   4.981  15.637 -0.1041 -0.6235 -0.1372
 3483TIP3    H131940   6.004   4.921  15.677  1.6901 -0.1622 -2.1046
 3483TIP3    H231941   5.855   4.943  15.659  0.9179 -3.1763 -0.1721
 3484TIP3   OH231942   2.354   1.750  10.768 -0.0103 -0.4538 -0.0944
 3484TIP3    H131943   2.365   1.820  10.704 -2.0206 -0.2672 -0.3137
 3484TIP3    H231944   2.442   1.716  10.782  0.9704  1.7978 -0.3275
 3485TIP3   OH231945   3.443   4.812   1.635  0.1413 -0.4689  0.0806
 3485TIP3    H131946   3.516   4.851   1.587  1.0973 -1.8020  0.3938
 3485TIP3    H231947   3.480   4.791   1.721 -0.7008 -0.8895  0.3493
 3486TIP3   OH231948   4.610   1.865   0.216 -0.1082  0.2349 -0.3912
 3486TIP3    H131949   4.663   1.830   0.145 -0.1756 -0.0913 -0.2837
 3486TIP3    H231950   4.610   1.960   0.202  1.6501  0.3920  0.3902
 3487TIP3   OH231951   5.532   0.148  11.959  0.0336  0.0807 -0.1535
 3487TIP3    H131952   5.530   0.058  11.992 -0.5327 -0.7836 -2.3724
 3487TIP3    H231953   5.547   0.139  11.865 -1.9047  2.1930 -0.7658
 3488TIP3   OH231954   3.376   1.555  14.035 -0.1608  0.0024 -0.0868
 3488TIP3    H131955   3.331   1.488  14.086  0.2616  0.0267  0.3288
 3488TIP3    H231956   3.438   1.594  14.096  0.5075 -0.1136 -0.6743
 3489TIP3   OH231957   0.080   4.350  16.008 -0.0742  0.6887  0.4474
 3489TIP3    H131958   0.014   4.338  16.077 -0.8846 -1.3099 -0.5996
 3489TIP3    H231959   0.145   4.282  16.024 -0.7789 -0.4519 -1.2658
 3490TIP3   OH231960   2.468   5.647  14.002 -0.1106  0.0399 -0.6797
 3490TIP3    H131961   2.404   5.667  13.934 -2.0149 -2.0254  0.3955
 3490TIP3    H231962   2.494   5.556  13.985 -0.9001 -0.6481  1.4802
 3491TIP3   OH231963   3.762   2.647  13.274 -0.8025 -0.0209 -0.5900
 3491TIP3    H131964   3.813   2.640  13.193  0.9618 -2.4693  0.6042
 3491TIP3    H231965   3.694   2.581  13.266 -1.2385  0.4082 -0.4678
 3492TIP3   OH231966   2.890   0.180   3.010  0.3436 -0.3268  0.4325
 3492TIP3    H131967   2.953   0.238   2.967 -0.9191  0.8094  0.0417
 3492TIP3    H231968   2.807   0.199   2.967 -0.7506 -0.0127  2.5291
 3493TIP3   OH231969   0.583   2.701  11.416  0.3959  0.1128 -0.0925
 3493TIP3    H131970   0.516   2.746  11.467 -0.0070  0.4490 -0.9056
 3493TIP3    H231971   0.574   2.736  11.327  0.1365 -1.5022 -0.7344
 3494TIP3   OH231972   3.903   2.160  15.122  0.1221 -0.2297  0.5937
 3494TIP3    H131973   3.949   2.088  15.079 -0.0721  0.0149 -0.0457
 3494TIP3    H231974   3.832   2.183  15.061  0.5816  0.9340  0.4601
 3495TIP3   OH231975   3.173   1.336   4.719 -0.2482  0.2347  0.1771
 3495TIP3    H131976   3.260   1.350   4.679  0.2057 -2.9846 -0.2417
 3495TIP3    H231977   3.113   1.333   4.645  0.1713 -2.8628 -0.1579
 3496TIP3   OH231978   2.209   5.024   2.807 -0.3527  0.6073  0.3885
 3496TIP3    H131979   2.222   5.030   2.712  0.2822  1.4231  0.5069
 3496TIP3    H231980   2.186   5.113   2.833  0.8892  0.7163  1.1830
 3497TIP3   OH231981   3.197   6.422  14.705 -0.4810  0.3202  0.1415
 3497TIP3    H131982   3.151   6.378  14.777  1.3489  1.1316  1.9020
 3497TIP3    H231983   3.183   6.364  14.630 -3.1790 -0.1366  0.8628
 3498TIP3   OH231984   4.269   6.029  14.809  0.3715 -0.2866  0.3068
 3498TIP3    H131985   4.290   6.088  14.882  0.3822  0.2870 -0.1573
 3498TIP3    H231986   4.213   6.081  14.751  0.7728 -0.5704 -0.3470
 3499TIP3   OH231987   1.805   4.405  13.870  0.1756 -0.1218 -0.1001
 3499TIP3    H131988   1.747   4.389  13.795 -1.1910  1.8431  0.4560
 3499TIP3    H231989   1.832   4.318  13.899 -1.7778 -1.0728 -0.9787
 3500TIP3   OH231990   1.915   2.059   2.343  0.5095  0.0672 -0.2421
 3500TIP3    H131991   2.003   2.086   2.319  0.4956  0.0999 -0.2565
 3500TIP3    H231992   1.860   2.087   2.269  0.7836 -1.8014 -1.2219
 3501TIP3   OH231993   4.123   3.923   2.160 -0.2604 -0.4675 -0.4147
 3501TIP3    H131994   4.120   3.923   2.255  0.2677 -1.6256 -0.3806
 3501TIP3    H231995   4.053   3.863   2.133  0.5236 -1.2664 -0.7010
 3502TIP3   OH231996   1.539   2.683  13.345 -0.2661  0.6201 -0.7693
 3502TIP3    H131997   1.609   2.618  13.347 -0.1240  0.7741  1.1899
 3502TIP3    H231998   1.582   2.762  13.312  0.8702  1.0561  1.5714
 3503TIP3   OH231999   1.613   5.347   4.406 -0.2947 -0.1752  0.0944
 3503TIP3    H132000   1.547   5.399   4.360  0.4054  0.2112 -0.4953
 3503TIP3    H232001   1.697   5.381   4.374  0.2103 -0.0535  1.4881
 3504TIP3   OH232002   0.430   4.571   1.890 -0.0269  0.1908  0.6936
 3504TIP3    H132003   0.481   4.516   1.949  2.4809  1.8868  0.2556
 3504TIP3    H232004   0.418   4.653   1.938 -1.8445  0.0819  0.5081
 3505TIP3   OH232005   0.983   0.227   2.032 -0.2101  0.0438 -0.2866
 3505TIP3    H132006   1.065   0.195   1.994 -0.2237 -0.2285 -0.0914
 3505TIP3    H232007   0.953   0.294   1.971  0.1593  0.1490 -0.3581
 3506TIP3   OH232008   5.418   1.722   5.538  0.4485  0.0332 -0.2594
 3506TIP3    H132009   5.340   1.667   5.534  0.0526  0.5862 -0.2348
 3506TIP3    H232010   5.453   1.721   5.449 -1.4288  2.3915 -1.1294
 3507TIP3   OH232011   2.710   5.503   3.895 -1.4884 -0.0972  1.2475
 3507TIP3    H132012   2.706   5.409   3.913 -0.7412 -0.5106 -0.4471
 3507TIP3    H232013   2.630   5.521   3.846 -1.1990 -0.0682  0.7743
 3508TIP3   OH232014   4.321   1.226  14.707  0.5601  0.2959 -0.5530
 3508TIP3    H132015   4.255   1.160  14.688 -0.7763  0.4933  2.6823
 3508TIP3    H232016   4.276   1.289  14.764  2.3352  2.9514 -1.8716
 3509TIP3   OH232017   3.748   2.906  14.986 -0.4421 -0.0209  0.0774
 3509TIP3    H132018   3.703   2.900  14.902 -0.5332 -1.0790  0.1899
 3509TIP3    H232019   3.840   2.888  14.966 -0.6884 -1.8319  0.3934
 3510TIP3   OH232020   6.845   1.773  10.716  0.0439 -0.3795 -0.2321
 3510TIP3    H132021   6.885   1.702  10.666 -3.9892  0.2681 -5.1671
 3510TIP3    H232022   6.902   1.848  10.700  0.6866 -0.9745 -0.8465
 3511TIP3   OH232023   2.657   2.397   5.259  0.0169 -0.0613 -0.1226
 3511TIP3    H132024   2.747   2.406   5.226 -0.1052 -3.4059 -1.7379
 3511TIP3    H232025   2.652   2.308   5.292 -2.1360  0.7658  2.1657
 3512TIP3   OH232026   0.177   1.455  14.812  0.3113 -0.1449 -0.0754
 3512TIP3    H132027   0.183   1.538  14.859  0.9664 -1.2899  1.9761
 3512TIP3    H232028   0.100   1.412  14.849  1.2275 -1.3570  0.4987
 3513TIP3   OH232029   6.246   5.151   2.668 -0.0175  0.6758  0.6075
 3513TIP3    H132030   6.277   5.194   2.748 -1.0729 -0.7730  1.8558
 3513TIP3    H232031   6.156   5.124   2.689  0.2779 -1.2873 -0.4147
 3514TIP3   OH232032   6.685   3.572   4.309  0.1069 -0.5474 -0.1149
 3514TIP3    H132033   6.764   3.627   4.305 -0.4952  0.4699  1.0939
 3514TIP3    H232034   6.681   3.530   4.224  2.0229 -0.7192 -0.1734
 3515TIP3   OH232035   6.375   2.410  14.836 -0.0448  0.5570  0.0095
 3515TIP3    H132036   6.450   2.448  14.882  1.0378 -0.1823 -1.0737
 3515TIP3    H232037   6.378   2.450  14.749  1.3223 -2.1275 -1.2810
 3516TIP3   OH232038   0.553   4.971  10.205 -0.5190  0.0571 -0.3419
 3516TIP3    H132039   0.639   4.929  10.200 -0.6066  0.0767 -3.3953
 3516TIP3    H232040   0.571   5.064  10.193 -0.9005  0.1926  0.0898
 3517TIP3   OH232041   3.936   1.772  16.562 -0.9128 -0.0644  0.9220
 3517TIP3    H132042   4.026   1.791  16.537 -0.9193 -0.8850  0.2194
 3517TIP3    H232043   3.924   1.815  16.646  0.2910 -0.3623  1.2550
 3518TIP3   OH232044   1.505   1.632  15.543 -0.2973  0.3870  0.7205
 3518TIP3    H132045   1.412   1.610  15.546 -0.9171  2.4463 -1.1493
 3518TIP3    H232046   1.532   1.610  15.454  0.7407  0.8327  0.9157
 3519TIP3   OH232047   3.485   5.792  15.890  0.5427 -0.4552  0.3719
 3519TIP3    H132048   3.428   5.745  15.950  1.0885 -0.0933  1.1824
 3519TIP3    H232049   3.530   5.723  15.841 -0.8698 -0.7524 -0.5929
 3520TIP3   OH232050   1.665   5.333   0.171  1.1425 -0.1902  0.5133
 3520TIP3    H132051   1.640   5.282   0.248 -3.4012  1.2076  0.2531
 3520TIP3    H232052   1.710   5.410   0.206 -0.8065  0.3989  1.8889
 3521TIP3   OH232053   1.047   1.513  12.593 -0.0751 -0.1796 -0.3549
 3521TIP3    H132054   1.117   1.506  12.528 -0.8847 -0.0029 -1.2692
 3521TIP3    H232055   1.043   1.426  12.632  0.3398 -0.3289 -0.6344
 3522TIP3   OH232056   6.385   5.373  13.743 -0.6643  0.1919 -0.4722
 3522TIP3    H132057   6.372   5.310  13.814 -1.2236  1.6013  0.7355
 3522TIP3    H232058   6.480   5.372  13.728 -0.5261 -0.0876  0.3423
 3523TIP3   OH232059   1.753   2.298   4.557 -0.0342 -0.4811  0.0583
 3523TIP3    H132060   1.808   2.319   4.633 -0.0970 -2.1977  0.6130
 3523TIP3    H232061   1.703   2.378   4.541  0.3039  0.0625  1.5507
 3524TIP3   OH232062   1.401   3.990  11.269 -0.4321  0.2320  0.1914
 3524TIP3    H132063   1.376   4.081  11.284 -0.2552  0.2035  0.6868
 3524TIP3    H232064   1.330   3.954  11.217 -0.8523  0.4649  0.5900
 3525TIP3   OH232065   2.384   6.577   1.372 -0.8520 -0.5970  0.3696
 3525TIP3    H132066   2.318   6.579   1.304 -2.2276 -1.4024  1.6170
 3525TIP3    H232067   2.428   6.662   1.367 -2.7993  0.4458  0.2980
 3526TIP3   OH232068   3.373   0.934  13.277  0.6147  0.0003 -0.3899
 3526TIP3    H132069   3.351   1.027  13.280 -1.5915 -0.4765  1.6519
 3526TIP3    H232070   3.467   0.931  13.294  0.5238  1.8399  0.6968
 3527TIP3   OH232071   2.276   3.144   6.501  0.1887 -0.8859 -0.1065
 3527TIP3    H132072   2.253   3.217   6.557 -1.2467  0.3364 -2.1461
 3527TIP3    H232073   2.359   3.111   6.536 -0.8109 -0.4838  2.8876
 3528TIP3   OH232074   1.887   2.596   3.306 -0.1688 -0.3629  0.2410
 3528TIP3    H132075   1.875   2.683   3.345  0.8333 -0.1742  0.1443
 3528TIP3    H232076   1.812   2.587   3.247 -0.0698  0.6104 -0.0583
 3529TIP3   OH232077   0.136   5.836   6.493  0.4365  0.2097  0.2056
 3529TIP3    H132078   0.086   5.768   6.449  0.4024  0.3012  0.1002
 3529TIP3    H232079   0.070   5.893   6.533  0.4479  0.4446 -0.1042
 3530TIP3   OH232080   2.473   2.257   1.189 -0.6412  0.1792  0.9818
 3530TIP3    H132081   2.507   2.184   1.137 -2.3690 -1.4864  2.0802
 3530TIP3    H232082   2.538   2.327   1.176  0.4754 -1.1109 -1.0544
 3531TIP3   OH232083   6.550   1.001   0.499  0.6919 -0.4579 -0.3101
 3531TIP3    H132084   6.493   1.071   0.466  0.1802 -0.8010 -0.1617
 3531TIP3    H232085   6.494   0.924   0.503  0.5365 -0.2897  1.9571
 3532TIP3   OH232086   5.838   4.468   3.666  0.5584  0.6933 -0.0947
 3532TIP3    H132087   5.746   4.472   3.639  0.5190  1.0979  0.0984
 3532TIP3    H232088   5.841   4.395   3.728  0.3977  0.5807 -0.2174
 3533TIP3   OH232089   3.328   1.115   4.013  0.6522 -0.2143 -0.5436
 3533TIP3    H132090   3.237   1.128   4.039  0.4207 -1.8317 -0.3958
 3533TIP3    H232091   3.353   1.196   3.970  0.2021  1.5984  2.3324
 3534TIP3   OH232092   2.238   0.524   5.644  0.2220 -0.0165  0.2988
 3534TIP3    H132093   2.203   0.567   5.566  0.7986 -0.7231 -0.3635
 3534TIP3    H232094   2.292   0.591   5.685  1.3704 -0.1556 -0.9011
 3535TIP3   OH232095   2.383   0.362  11.362 -0.3189 -0.4279 -0.5531
 3535TIP3    H132096   2.310   0.316  11.403  0.0709  0.0365  0.7300
 3535TIP3    H232097   2.348   0.449  11.343  0.4505  0.6084  2.1934
 3536TIP3   OH232098   6.475   1.322  14.232 -0.6766  0.0081 -0.2336
 3536TIP3    H132099   6.502   1.411  14.208 -0.8758  0.3850  0.8866
 3536TIP3    H232100   6.440   1.285  14.151  0.5786  0.5012 -1.0271
 3537TIP3   OH232101   2.006   1.419  13.545  0.0879  0.4037  0.2297
 3537TIP3    H132102   1.979   1.452  13.630  1.7135 -0.4973  1.1325
 3537TIP3    H232103   1.929   1.370  13.513 -1.2256  2.3431  0.2445
 3538TIP3   OH232104   4.487   5.770   5.691  0.1665  0.2940  0.1791
 3538TIP3    H132105   4.566   5.723   5.663  0.5134  1.3077 -0.5993
 3538TIP3    H232106   4.416   5.728   5.642  0.4591  0.5057 -0.4366
 3539TIP3   OH232107   5.895   2.505  16.185 -0.2550  0.0780  0.5622
 3539TIP3    H132108   5.893   2.601  16.191  0.9735  0.2631 -1.2925
 3539TIP3    H232109   5.979   2.486  16.144 -0.4337 -1.8227  1.0196
 3540TIP3   OH232110   5.003   0.556  11.461 -0.4076 -0.0035  0.2219
 3540TIP3    H132111   4.911   0.538  11.439 -0.1210  0.9988 -2.0626
 3540TIP3    H232112   5.036   0.607  11.388  2.5938 -2.0952 -0.0885
 3541TIP3   OH232113   5.123   5.794  13.741  0.2218  0.0073  0.2398
 3541TIP3    H132114   5.066   5.869  13.751  0.1702 -0.0380  0.2821
 3541TIP3    H232115   5.087   5.746  13.666 -0.0812 -0.2792  0.5634
 3542TIP3   OH232116   6.013   2.463  11.983 -0.0938 -0.4605  0.6530
 3542TIP3    H132117   6.052   2.415  12.056  1.0683 -3.1294 -1.5595
 3542TIP3    H232118   6.084   2.471  11.919 -1.0043  2.0011 -0.1666
 3543TIP3   OH232119   0.985   0.071  14.081  0.2515 -0.2142  0.5580
 3543TIP3    H132120   0.951   0.134  14.145 -3.6961 -0.9261 -0.5909
 3543TIP3    H232121   0.948   0.100  13.998  1.8798 -1.6838 -0.7481
 3544TIP3   OH232122   3.449   6.750   4.487  0.1056 -0.0587 -0.6406
 3544TIP3    H132123   3.482   6.741   4.397 -0.7606  0.4251 -1.0179
 3544TIP3    H232124   3.499   6.823   4.523  0.8526 -0.6130 -0.5356
 3545TIP3   OH232125   6.322   5.340  11.564  0.1741  0.1122  0.0850
 3545TIP3    H132126   6.266   5.263  11.552 -1.1619  1.0280  0.2415
 3545TIP3    H232127   6.357   5.331  11.652 -1.5351  0.6116  0.8712
 3546TIP3   OH232128   5.375   1.412  15.169 -0.1127  0.5166 -0.0562
 3546TIP3    H132129   5.390   1.317  15.166  1.7097  0.7951 -0.8517
 3546TIP3    H232130   5.285   1.422  15.141  0.1554 -0.8888 -1.5953
 3547TIP3   OH232131   4.369   0.808   6.083 -0.0794  0.1814  0.0688
 3547TIP3    H132132   4.289   0.762   6.107 -1.3373  2.4331  0.4585
 3547TIP3    H232133   4.363   0.818   5.988  0.2819 -0.5802 -0.0386
 3548TIP3   OH232134   3.252   6.096   5.785 -0.3210 -0.0212 -0.2419
 3548TIP3    H132135   3.319   6.159   5.762 -0.7606  0.8284  0.7423
 3548TIP3    H232136   3.251   6.034   5.712 -1.3304  2.2638 -2.2972
 3549TIP3   OH232137   0.490   0.090  12.492  0.2678  0.0109 -0.1312
 3549TIP3    H132138   0.494   0.126  12.404 -0.0801 -1.1840 -0.6641
 3549TIP3    H232139   0.491  -0.005  12.479  0.5823 -0.1868  1.1736
 3550TIP3   OH232140   1.055   1.966  15.351  0.7116  0.0561  0.1211
 3550TIP3    H132141   1.039   1.896  15.288  1.5868 -0.8917  0.9228
 3550TIP3    H232142   1.108   1.926  15.419  0.4114  1.2576  1.1000
 3551TIP3   OH232143   6.803   6.717   5.158  0.4137 -0.7350  0.2416
 3551TIP3    H132144   6.754   6.673   5.227  1.1281 -0.2750  1.0664
 3551TIP3    H232145   6.845   6.791   5.202 -0.9661  0.9433 -1.1581
 3552TIP3   OH232146   5.222   1.760   1.574  0.3926  0.1490 -0.2507
 3552TIP3    H132147   5.304   1.807   1.590  0.6748 -0.3452 -0.2189
 3552TIP3    H232148   5.157   1.829   1.559  0.4090  0.6241  1.5907
 3553TIP3   OH232149   4.892   4.621  15.130  0.3990  0.2077  0.0943
 3553TIP3    H132150   4.823   4.657  15.074  1.7774  1.5212 -0.8280
 3553TIP3    H232151   4.957   4.586  15.070  1.2343  0.3285  0.9038
 3554TIP3   OH232152   2.673   3.957   1.122 -0.2056  0.1382 -0.4104
 3554TIP3    H132153   2.705   4.005   1.199 -0.5443  0.8388 -0.6924
 3554TIP3    H232154   2.695   4.014   1.048  2.3932 -1.6468 -1.1460
 3555TIP3   OH232155   1.834   6.457  16.861 -0.5789 -0.4032  0.1975
 3555TIP3    H132156   1.800   6.527  16.804  0.4936 -0.7195 -0.8759
 3555TIP3    H232157   1.871   6.503  16.936  1.5588  0.3537 -1.2417
 3556TIP3   OH232158   1.801   4.846   4.604 -0.0281  1.1095 -0.1707
 3556TIP3    H132159   1.767   4.808   4.685 -0.4537 -0.0779 -0.8860
 3556TIP3    H232160   1.872   4.788   4.578  0.6706  1.9605 -0.2169
 3557TIP3   OH232161   1.863   6.564  14.078 -0.9408 -0.1078 -0.4226
 3557TIP3    H132162   1.868   6.530  14.167  0.7982 -0.9878 -0.7986
 3557TIP3    H232163   1.782   6.614  14.075 -1.3343 -0.5686  1.4672
 3558TIP3   OH232164   3.254   2.715   3.534 -0.2057 -0.1264 -0.1568
 3558TIP3    H132165   3.335   2.762   3.514 -0.3982  0.3626  0.1944
 3558TIP3    H232166   3.243   2.726   3.628  1.9670 -4.3647  0.8809
 3559TIP3   OH232167   5.942   6.251   6.307 -0.4605 -0.1889 -0.0354
 3559TIP3    H132168   5.956   6.219   6.218  0.1177 -1.6065  0.5370
 3559TIP3    H232169   5.872   6.196   6.341  2.5622 -3.0846  1.9911
 3560TIP3   OH232170   3.572   3.501   4.975 -0.2560 -0.3428 -0.3478
 3560TIP3    H132171   3.588   3.572   4.913 -3.0977  0.9142  0.2040
 3560TIP3    H232172   3.619   3.527   5.054 -0.0648  0.1550 -0.6209
 3561TIP3   OH232173   3.886   3.633   4.957 -0.1303 -0.1504  0.0561
 3561TIP3    H132174   3.921   3.557   5.003 -0.1934 -0.1162  0.1612
 3561TIP3    H232175   3.897   3.705   5.019 -0.0778 -0.0764 -0.0403
 3562TIP3   OH232176   5.473   3.644   3.186 -0.7390 -0.3111 -0.3361
 3562TIP3    H132177   5.495   3.609   3.100  1.6506  0.0094  0.0845
 3562TIP3    H232178   5.470   3.567   3.243  2.2493 -0.1973  0.1319
 3563TIP3   OH232179   2.742   0.230  14.738 -0.4308  0.2480  0.0574
 3563TIP3    H132180   2.677   0.262  14.800 -0.7494  0.9137 -0.6051
 3563TIP3    H232181   2.702   0.242  14.652  0.1420 -0.3364 -0.3029
 3564TIP3   OH232182   2.982   0.582  13.206  0.2171 -0.0228  0.4160
 3564TIP3    H132183   2.909   0.565  13.266 -0.3631  1.0369  0.0493
 3564TIP3    H232184   3.027   0.658  13.245  0.8719 -0.4047  0.4131
 3565TIP3   OH232185   1.955   1.006  13.038  0.3431  0.4008  0.1445
 3565TIP3    H132186   1.910   1.003  13.122  2.0810 -0.2011  1.1095
 3565TIP3    H232187   1.891   0.972  12.975 -0.8983  0.6174  1.2478
 3566TIP3   OH232188   2.797   4.314   3.476 -0.5758  0.2483  0.3898
 3566TIP3    H132189   2.716   4.273   3.506  1.0265 -1.6447  2.5455
 3566TIP3    H232190   2.829   4.255   3.407 -1.7603  1.8967 -1.6844
 3567TIP3   OH232191   0.196   1.551   2.210 -0.2743  0.6171 -0.3705
 3567TIP3    H132192   0.114   1.592   2.236 -1.9032 -1.3916 -1.9141
 3567TIP3    H232193   0.180   1.457   2.222  1.6996  0.1599 -0.9524
 3568TIP3   OH232194   1.666   6.068   4.362  0.7022 -0.2405  0.5889
 3568TIP3    H132195   1.659   6.125   4.285 -1.1575  1.5571  1.9648
 3568TIP3    H232196   1.630   5.984   4.333 -0.2552  0.4886 -0.4480
 3569TIP3   OH232197   5.651   4.893   2.587 -0.1597 -0.5629  0.2548
 3569TIP3    H132198   5.623   4.820   2.642 -1.2915  0.1258  0.6228
 3569TIP3    H232199   5.681   4.851   2.506 -1.2441 -1.4114  0.2719
 3570TIP3   OH232200   2.882   1.318  10.649 -0.0918  0.2699 -0.4192
 3570TIP3    H132201   2.869   1.393  10.591 -1.4870 -0.5772 -1.2940
 3570TIP3    H232202   2.886   1.243  10.589 -1.5279 -0.6218  0.5506
 3571TIP3   OH232203   3.403   5.460   2.372 -0.0709 -0.1772  0.1802
 3571TIP3    H132204   3.375   5.459   2.464 -1.5305 -0.6369 -0.2280
 3571TIP3    H232205   3.346   5.525   2.331  1.1469  0.6336 -0.2423
 3572TIP3   OH232206   5.118   1.279   5.462  0.2531 -0.0814  0.5639
 3572TIP3    H132207   5.145   1.192   5.491  0.9973 -0.3188 -0.8099
 3572TIP3    H232208   5.026   1.284   5.488  0.3204 -1.0955  1.0627
 3573TIP3   OH232209   5.823   3.824  11.676  0.2875 -0.2532  0.8834
 3573TIP3    H132210   5.779   3.876  11.609 -0.7584 -0.4492  1.4107
 3573TIP3    H232211   5.915   3.851  11.670 -0.1260  1.2217  0.7514
 3574TIP3   OH232212   6.740   5.050  15.351  0.2233  1.5303 -0.4498
 3574TIP3    H132213   6.724   4.998  15.429 -0.5686  0.0303 -1.5488
 3574TIP3    H232214   6.811   5.109  15.375  2.9063 -1.6713  0.2549
 3575TIP3   OH232215   4.013   4.370  11.098  0.5097  0.3001  0.1389
 3575TIP3    H132216   4.028   4.446  11.155 -0.6384  0.3332  0.4227
 3575TIP3    H232217   4.023   4.294  11.156  1.9489  0.2003 -0.2090
 3576TIP3   OH232218   4.241   2.829  11.255 -0.7101  0.5050 -0.2677
 3576TIP3    H132219   4.290   2.911  11.262 -1.2832  0.9641 -1.4260
 3576TIP3    H232220   4.305   2.761  11.276 -0.0431  1.1997  0.0093
 3577TIP3   OH232221   6.000   5.769  13.610 -0.0452 -0.1607  0.1310
 3577TIP3    H132222   6.064   5.794  13.543 -0.4990  1.5156  0.2682
 3577TIP3    H232223   6.040   5.794  13.693 -1.4975  2.5945  0.1178
 3578TIP3   OH232224   1.151   6.332   4.851  0.1839 -0.5084  0.9464
 3578TIP3    H132225   1.194   6.399   4.904 -0.0606 -0.4432  1.0646
 3578TIP3    H232226   1.223   6.280   4.814  0.3965  0.1536  0.4114
 3579TIP3   OH232227   3.625   0.382   2.501  0.1770  0.1127 -0.4437
 3579TIP3    H132228   3.685   0.365   2.428  2.2134  0.3063  1.1039
 3579TIP3    H232229   3.659   0.328   2.573 -0.7281  1.2326  0.8699
 3580TIP3   OH232230   2.619   1.899   5.681  0.1300  0.2631  0.3618
 3580TIP3    H132231   2.629   1.911   5.587 -0.0534 -1.3651  0.1114
 3580TIP3    H232232   2.706   1.874   5.712  0.1688  0.7002  0.6161
 3581TIP3   OH232233   4.791   6.392   3.844 -0.2274  0.1892 -0.1518
 3581TIP3    H132234   4.747   6.310   3.866  0.5419 -0.1042  0.3561
 3581TIP3    H232235   4.784   6.398   3.749  0.8442 -1.1536 -0.3526
 3582TIP3   OH232236   6.295   2.285  12.792 -0.0195  0.1143 -0.7398
 3582TIP3    H132237   6.221   2.256  12.844  0.8318  0.4524  0.7168
 3582TIP3    H232238   6.371   2.242  12.832  0.8365  1.5633 -0.7301
 3583TIP3   OH232239   4.352   3.630   1.055 -0.1797  0.0502 -0.2133
 3583TIP3    H132240   4.436   3.661   1.087 -0.5148  0.4181  0.3430
 3583TIP3    H232241   4.315   3.581   1.129 -1.2036  1.3663  0.1932
 3584TIP3   OH232242   5.289   3.426   2.410  0.1565  0.2410  0.2412
 3584TIP3    H132243   5.362   3.481   2.382  0.9541 -0.0906  1.5893
 3584TIP3    H232244   5.253   3.390   2.329  0.6380  1.4645 -0.5421
 3585TIP3   OH232245   1.804   4.491  12.765 -0.2697 -0.0348  0.3866
 3585TIP3    H132246   1.861   4.432  12.813 -1.1127 -0.2734  1.1345
 3585TIP3    H232247   1.836   4.489  12.675  0.5723 -0.5412  0.6930
 3586TIP3   OH232248   4.469   1.414   5.605 -0.1264  0.6482  0.0735
 3586TIP3    H132249   4.526   1.345   5.571 -0.6525 -0.0482  0.5830
 3586TIP3    H232250   4.390   1.408   5.552  0.0914  1.3172 -0.3336
 3587TIP3   OH232251   0.296   6.474  16.184 -0.6155  0.3618  0.1235
 3587TIP3    H132252   0.327   6.387  16.159  1.2099  0.7892  0.7355
 3587TIP3    H232253   0.218   6.458  16.237 -0.1578 -0.9035  0.4392
 3588TIP3   OH232254   5.691   3.918  13.703  0.2167  0.0256 -0.2200
 3588TIP3    H132255   5.651   3.892  13.786 -0.2820  0.9792 -0.1472
 3588TIP3    H232256   5.783   3.896  13.713 -0.0137 -0.7736  0.2067
 3589TIP3   OH232257   4.705   6.143   3.908 -0.9790 -0.4430 -0.2675
 3589TIP3    H132258   4.623   6.156   3.954  0.8680 -0.6803  3.4725
 3589TIP3    H232259   4.691   6.063   3.857 -2.6129 -1.3635  1.4902
 3590TIP3   OH232260   4.907   0.624  14.311  0.7003 -0.4038  0.0142
 3590TIP3    H132261   4.964   0.700  14.325  0.8157  0.1644 -2.9453
 3590TIP3    H232262   4.830   0.641  14.366  1.3307  1.1566  0.4647
 3591TIP3   OH232263   3.265   5.808   3.590  0.2630 -0.5570 -0.1812
 3591TIP3    H132264   3.256   5.903   3.578  2.8054 -0.1671  0.3971
 3591TIP3    H232265   3.190   5.771   3.544 -0.9810  1.7366 -0.1473
 3592TIP3   OH232266   3.216   4.205  15.349  0.2251 -0.7056  0.4126
 3592TIP3    H132267   3.128   4.232  15.323  0.5672  0.3091  0.2712
 3592TIP3    H232268   3.231   4.249  15.433  0.4752 -1.1387  0.5995
 3593TIP3   OH232269   2.994   3.834   5.433  0.2173  0.5889 -0.0634
 3593TIP3    H132270   3.019   3.881   5.353  0.3625 -0.0324 -0.3959
 3593TIP3    H232271   3.066   3.848   5.493 -0.3107  1.8407  0.3088
 3594TIP3   OH232272   1.230   3.618   5.831 -0.4678 -0.1238 -0.4500
 3594TIP3    H132273   1.240   3.695   5.775  2.4673  1.1143  1.5304
 3594TIP3    H232274   1.259   3.647   5.917  1.7923 -3.6192  0.1952
 3595TIP3   OH232275   0.226   6.453  12.136 -0.6250  0.1443  0.3453
 3595TIP3    H132276   0.135   6.435  12.113 -0.5019  0.7866 -0.6592
 3595TIP3    H232277   0.256   6.371  12.177 -1.3245 -0.4547 -0.3106
 3596TIP3   OH232278   1.245   0.137   2.182 -0.2009  0.7449 -0.5051
 3596TIP3    H132279   1.219   0.228   2.196 -1.6925  0.7740 -2.9806
 3596TIP3    H232280   1.320   0.124   2.240 -1.6540  2.6872  1.9447
 3597TIP3   OH232281   3.463   4.257   2.990 -0.6166  0.7257  0.1721
 3597TIP3    H132282   3.412   4.183   2.957 -0.2853  0.9434 -0.8559
 3597TIP3    H232283   3.398   4.317   3.025 -0.8962 -0.0003  0.9239
 3598TIP3   OH232284   5.755   3.204   4.298  0.6500  0.2646  0.1088
 3598TIP3    H132285   5.746   3.164   4.384 -2.1165  1.2410  0.3787
 3598TIP3    H232286   5.696   3.155   4.242 -0.0467  1.6368 -0.4152
 3599TIP3   OH232287   4.580   3.815   4.539 -0.6718  0.1295 -0.4244
 3599TIP3    H132288   4.526   3.790   4.613  0.0056  2.1184  0.8186
 3599TIP3    H232289   4.518   3.840   4.471 -1.3838  1.5860  0.7027
 3600TIP3   OH232290   6.725   6.721  15.449 -0.1167  0.0792  0.4149
 3600TIP3    H132291   6.686   6.782  15.386 -0.2873  0.3501  0.7769
 3600TIP3    H232292   6.651   6.689  15.500  0.0358 -0.0500  0.5530
 3601TIP3   OH232293   1.837   3.988  12.032  0.3199  0.1064 -1.0231
 3601TIP3    H132294   1.898   3.974  12.104 -1.2135  0.7441  0.4742
 3601TIP3    H232295   1.796   3.903  12.017 -0.5380  0.3175  0.0196
 3602TIP3   OH232296   5.171   2.855   4.010  0.0054 -0.2761 -0.6684
 3602TIP3    H132297   5.169   2.938   3.963  0.6240 -0.5008 -1.1144
 3602TIP3    H232298   5.080   2.830   4.019 -0.4251  1.8301  1.9875
 3603TIP3   OH232299   2.713   1.893  14.141 -0.2286  0.6256 -0.4400
 3603TIP3    H132300   2.754   1.889  14.054  1.9165 -3.1883  0.5260
 3603TIP3    H232301   2.766   1.956  14.190  1.2367 -0.2716 -0.7890
 3604TIP3   OH232302   0.854   0.422   1.880 -0.3179  0.5741 -0.0354
 3604TIP3    H132303   0.837   0.516   1.872  1.9416  1.0132 -0.3324
 3604TIP3    H232304   0.915   0.403   1.809  2.4649 -0.2031  2.3684
 3605TIP3   OH232305   0.676   3.339  15.383  0.1973 -0.1712 -0.5423
 3605TIP3    H132306   0.766   3.330  15.353  0.3064  1.0291 -0.6058
 3605TIP3    H232307   0.647   3.424  15.349 -1.0632 -0.6640 -0.7899
 3606TIP3   OH232308   2.132   1.461  12.973 -0.6521  0.0440 -0.0532
 3606TIP3    H132309   2.155   1.493  13.060 -2.2812  2.0031 -0.2490
 3606TIP3    H232310   2.143   1.367  12.978  2.2495  0.3629  1.3062
 3607TIP3   OH232311   5.618   2.907  17.027  0.4918 -0.6276 -0.2933
 3607TIP3    H132312   5.558   2.840  17.060 -1.2529  0.4632 -1.0848
 3607TIP3    H232313   5.585   2.989  17.065  1.2698  0.0514 -1.0414
 3608TIP3   OH232314   3.828   4.983   3.906 -0.1718  0.5004  0.3430
 3608TIP3    H132315   3.852   5.010   3.817  1.4462 -0.7314  0.3505
 3608TIP3    H232316   3.758   4.919   3.893 -2.4030  2.8128  0.2083
 3609TIP3   OH232317   2.323   5.640  16.396 -0.5798  0.1947 -0.0257
 3609TIP3    H132318   2.385   5.711  16.381 -0.7177  0.2541 -0.3240
 3609TIP3    H232319   2.270   5.669  16.470 -1.1636  0.7608 -0.6558
 3610TIP3   OH232320   6.423   0.946  16.020  0.4029  0.4532 -0.5097
 3610TIP3    H132321   6.387   1.031  16.046  0.4300  0.8098 -1.5764
 3610TIP3    H232322   6.504   0.939  16.070  0.3491  1.0087 -0.3304
 3611TIP3   OH232323   1.656   4.424  16.633  0.1272  0.1732  0.1720
 3611TIP3    H132324   1.625   4.497  16.579 -0.0388  0.1181  0.1924
 3611TIP3    H232325   1.714   4.375  16.575  0.5318  0.5281  0.2785
 3612TIP3   OH232326   6.655   6.268  12.210 -0.2924 -0.2621  0.2442
 3612TIP3    H132327   6.650   6.281  12.304 -0.4189  1.7245  0.0165
 3612TIP3    H232328   6.568   6.239  12.185 -0.1047 -1.3452  0.7794
 3613TIP3   OH232329   3.578   3.154   1.470 -0.0303 -0.1401  0.0144
 3613TIP3    H132330   3.526   3.169   1.549  0.8751  1.0877  0.4078
 3613TIP3    H232331   3.658   3.204   1.484 -0.6330  1.7111 -2.4870
 3614TIP3   OH232332   0.463   1.415  15.019  0.1126  0.1905 -0.2822
 3614TIP3    H132333   0.507   1.369  14.948 -0.2670 -0.8410  0.1396
 3614TIP3    H232334   0.379   1.371  15.028 -1.4099  2.6143 -1.5968
 3615TIP3   OH232335   4.705   5.302   6.242  0.1115  0.1851  0.7284
 3615TIP3    H132336   4.687   5.240   6.312 -0.6823  0.2900  0.6196
 3615TIP3    H232337   4.637   5.369   6.250 -0.6132 -0.3253 -0.7502
 3616TIP3   OH232338   5.227   2.292  11.989 -0.4282 -0.0084 -0.0498
 3616TIP3    H132339   5.204   2.239  11.913 -1.9608  0.2029  0.2459
 3616TIP3    H232340   5.163   2.267  12.056  0.1973  0.6317  0.8074
 3617TIP3   OH232341   4.819   5.510   2.955  0.1074  0.2018  0.2938
 3617TIP3    H132342   4.882   5.447   2.920 -0.9117  0.6747 -2.7551
 3617TIP3    H232343   4.866   5.593   2.957 -0.2303  0.4874 -1.6485
 3618TIP3   OH232344   3.099   5.121   5.047  0.1946  0.9241  0.2873
 3618TIP3    H132345   3.086   5.197   5.104 -3.9178  1.8135 -1.4866
 3618TIP3    H232346   3.104   5.158   4.958  0.1005 -0.7532 -0.4566
 3619TIP3   OH232347   4.653   3.300   1.375  0.1697 -0.1447 -0.3436
 3619TIP3    H132348   4.667   3.206   1.362  0.7015 -0.2397  0.7780
 3619TIP3    H232349   4.738   3.339   1.358  0.0366  0.0985 -0.4563
 3620TIP3   OH232350   6.518   4.293  11.208 -0.1962  0.3400  0.4095
 3620TIP3    H132351   6.428   4.326  11.204 -0.2372  0.4076  1.5636
 3620TIP3    H232352   6.547   4.291  11.117 -1.1906  0.8045  0.0702
 3621TIP3   OH232353   4.152   6.114   1.111 -0.0374 -0.6931  0.5750
 3621TIP3    H132354   4.230   6.104   1.057 -0.5122  0.0439 -0.2840
 3621TIP3    H232355   4.084   6.065   1.065 -0.2339 -0.7988  0.9722
 3622TIP3   OH232356   0.579   5.543   0.631 -0.4464 -0.4241 -0.2364
 3622TIP3    H132357   0.550   5.538   0.540 -0.1419 -1.3030 -0.2915
 3622TIP3    H232358   0.674   5.548   0.626 -0.4958  1.8752 -0.0301
 3623TIP3   OH232359   6.486   5.172   5.083  0.0046 -0.5031  0.5055
 3623TIP3    H132360   6.497   5.234   5.155 -0.3989  0.0501  0.1032
 3623TIP3    H232361   6.568   5.178   5.033 -0.6392  0.9130 -0.4371
 3624TIP3   OH232362   5.142   6.773  14.539  0.0514  0.5675 -0.5159
 3624TIP3    H132363   5.206   6.844  14.541  1.8303 -0.9597 -0.8131
 3624TIP3    H232364   5.130   6.754  14.446  0.6842 -0.4248 -0.4118
 3625TIP3   OH232365   6.044   1.036   1.648  0.0631  0.6223  0.0594
 3625TIP3    H132366   6.021   0.973   1.715  0.8620  0.9663  0.6700
 3625TIP3    H232367   6.013   1.120   1.682 -0.4237  0.6647 -0.4624
 3626TIP3   OH232368   4.431   1.378  11.709  0.4414 -0.5014  0.5356
 3626TIP3    H132369   4.424   1.443  11.779 -1.4485  0.0118 -0.0831
 3626TIP3    H232370   4.478   1.305  11.749 -0.0173  0.0465  2.1523
 3627TIP3   OH232371   2.900   1.352   2.258  0.2020 -0.3677 -0.8475
 3627TIP3    H132372   2.899   1.259   2.280  0.6549 -0.5973 -1.7471
 3627TIP3    H232373   2.809   1.374   2.238 -0.4289  0.0918  2.0811
 3628TIP3   OH232374   2.646   6.211  14.544 -0.6109  0.1364  0.6313
 3628TIP3    H132375   2.672   6.120  14.535 -0.1699  0.1271  1.7711
 3628TIP3    H232376   2.608   6.235  14.459  0.4479 -0.7154 -0.1015
 3629TIP3   OH232377   2.749   5.614   3.277 -0.4514  0.4609  0.8065
 3629TIP3    H132378   2.777   5.679   3.212 -1.5418  0.5288  0.3981
 3629TIP3    H232379   2.658   5.595   3.255 -0.1705 -1.1621  0.9722
 3630TIP3   OH232380   5.914   2.046   5.223 -0.4975 -0.1569 -0.2916
 3630TIP3    H132381   5.897   1.984   5.294 -0.0304 -1.6912 -1.4640
 3630TIP3    H232382   6.009   2.053   5.220 -0.4990 -0.3163 -0.9090
 3631TIP3   OH232383   0.719   3.227  13.088 -0.3562  0.5116 -0.2619
 3631TIP3    H132384   0.784   3.262  13.028  0.5715 -2.7171 -1.3603
 3631TIP3    H232385   0.770   3.189  13.159 -0.8882 -2.1266 -1.1666
 3632TIP3   OH232386   3.031   0.527   6.221 -0.5161 -0.1980  0.3567
 3632TIP3    H132387   2.957   0.501   6.276  0.3299 -0.1655  1.5551
 3632TIP3    H232388   3.009   0.615   6.191 -1.4253 -0.5889 -0.1599
 3633TIP3   OH232389   0.133   5.888   0.534 -0.1090  0.5904  0.0914
 3633TIP3    H132390   0.131   5.888   0.438  1.3395  3.1171 -0.0280
 3633TIP3    H232391   0.095   5.973   0.558 -1.0892 -0.2834  1.8239
 3634TIP3   OH232392   6.716   3.087   6.349  0.0634  0.0968  0.3046
 3634TIP3    H132393   6.757   3.163   6.390 -1.6411  0.4087  1.5583
 3634TIP3    H232394   6.779   3.058   6.283  1.2712  1.8630  0.6116
 3635TIP3   OH232395   4.121   6.180  14.975 -0.6705 -0.1580 -0.5613
 3635TIP3    H132396   4.037   6.221  14.954 -1.0390 -1.0308 -0.8188
 3635TIP3    H232397   4.100   6.087  14.986  0.6526 -0.8487 -3.1352
 3636TIP3   OH232398   2.035   6.820   5.453 -0.0630 -0.1319 -0.3586
 3636TIP3    H132399   2.103   6.874   5.412 -1.0679  0.8054 -0.8414
 3636TIP3    H232400   2.077   6.785   5.532  0.9802  0.4073 -0.6469
 3637TIP3   OH232401   5.554   6.717   2.126  0.3025 -0.3204  0.6675
 3637TIP3    H132402   5.512   6.636   2.097 -2.8031  0.2187  3.0818
 3637TIP3    H232403   5.518   6.784   2.067 -0.3720 -0.1937  1.2076
 3638TIP3   OH232404   6.381   4.603  14.471  0.2510  0.0639 -0.2416
 3638TIP3    H132405   6.342   4.661  14.405  0.8892  0.7651 -0.0181
 3638TIP3    H232406   6.472   4.592  14.443  0.3065 -0.2992  0.0772
 3639TIP3   OH232407   2.824   1.565  10.912 -0.4233  0.1950  0.0172
 3639TIP3    H132408   2.913   1.595  10.931  0.0360  0.3012 -2.0702
 3639TIP3    H232409   2.828   1.469  10.919 -0.5739  0.2773  1.4931
 3640TIP3   OH232410   2.725   0.146   3.727 -0.5980 -0.3403 -0.3169
 3640TIP3    H132411   2.707   0.054   3.748 -1.1239 -0.0922  0.3609
 3640TIP3    H232412   2.712   0.193   3.810  1.9384  0.0603 -0.0704
 3641TIP3   OH232413   5.421   2.168  16.270  0.6500  0.2236  0.4619
 3641TIP3    H132414   5.426   2.256  16.233 -2.3566 -0.3847 -1.7621
 3641TIP3    H232415   5.462   2.111  16.205  0.1784 -0.2785  0.5921
 3642TIP3   OH232416   3.218   2.530  16.281 -0.5064 -0.2863  0.1625
 3642TIP3    H132417   3.173   2.552  16.199 -0.2874 -0.1198  0.0855
 3642TIP3    H232418   3.274   2.456  16.259 -1.8700 -1.5122  0.6128
 3643TIP3   OH232419   1.722   0.473  11.426  0.4571  0.3843 -0.3539
 3643TIP3    H132420   1.629   0.498  11.434  0.5130  0.2990  0.7950
 3643TIP3    H232421   1.768   0.541  11.475  0.8928 -0.1972  0.0600
 3644TIP3   OH232422   0.287   0.714  15.310  0.0045 -0.2416 -0.2454
 3644TIP3    H132423   0.313   0.758  15.392 -0.8068 -1.0363  0.4620
 3644TIP3    H232424   0.329   0.628  15.315  1.1031  0.2110 -1.3478
 3645TIP3   OH232425   1.943   4.442   5.095 -0.6250  0.0303  0.3262
 3645TIP3    H132426   1.939   4.347   5.085  0.0527 -0.1119  1.3215
 3645TIP3    H232427   1.896   4.476   5.018  0.6908 -1.0617 -1.0136
 3646TIP3   OH232428   0.643   6.160   2.739 -0.7643  0.3350 -0.3434
 3646TIP3    H132429   0.570   6.212   2.706  0.0088  1.1747 -0.7893
 3646TIP3    H232430   0.661   6.097   2.669 -0.6906  0.5133 -0.4870
 3647TIP3   OH232431   3.850   4.782   2.432 -0.1877  0.2530  0.1431
 3647TIP3    H132432   3.833   4.689   2.445  0.5767 -0.0304 -0.8022
 3647TIP3    H232433   3.941   4.793   2.457 -0.4498  0.8868  0.8623
 3648TIP3   OH232434   3.295   6.107   2.194 -0.1138  0.0045 -0.2116
 3648TIP3    H132435   3.299   6.070   2.106 -0.2759  1.9834 -1.1102
 3648TIP3    H232436   3.381   6.147   2.208  0.0923 -0.7426  0.7602
 3649TIP3   OH232437   6.386   5.389  11.830 -0.0533 -0.2045 -0.4362
 3649TIP3    H132438   6.449   5.461  11.825  2.0648 -1.9544 -0.1139
 3649TIP3    H232439   6.321   5.419  11.893  1.0944  1.1949  0.1490
 3650TIP3   OH232440   2.324   5.356   1.904  0.3124  0.1475  0.5670
 3650TIP3    H132441   2.322   5.310   1.820 -1.7437  0.4018  0.4356
 3650TIP3    H232442   2.279   5.298   1.965 -0.0706  0.8808  0.9939
 3651TIP3   OH232443   3.945   0.636   2.846 -0.3711 -0.0927  0.0710
 3651TIP3    H132444   3.890   0.626   2.924  0.0029  1.8143  0.6206
 3651TIP3    H232445   3.887   0.611   2.773 -1.3345 -0.0255  0.7949
 3652TIP3   OH232446   6.498   4.462   3.848  0.0149 -0.4313 -0.6972
 3652TIP3    H132447   6.520   4.459   3.755 -0.7358  0.6059 -0.9227
 3652TIP3    H232448   6.450   4.544   3.859  1.0928  0.0296  0.8362
 3653TIP3   OH232449   1.546   5.875  12.045  0.3557  0.1505 -0.1997
 3653TIP3    H132450   1.451   5.891  12.050  0.1067 -0.4042 -2.3503
 3653TIP3    H232451   1.556   5.784  12.073  0.1755  0.0372 -0.4988
 3654TIP3   OH232452   2.953   0.756  11.207  0.0168 -0.0925 -0.6410
 3654TIP3    H132453   2.883   0.746  11.142 -0.9738 -0.0669  0.4025
 3654TIP3    H232454   3.023   0.699  11.175 -0.4922 -0.1580 -1.6805
 3655TIP3   OH232455   0.640   2.062   0.302 -0.1428  0.4196 -0.3194
 3655TIP3    H132456   0.632   2.156   0.289 -0.8137  0.4457  0.2330
 3655TIP3    H232457   0.682   2.052   0.388  1.1253  0.2136 -0.9305
 3656TIP3   OH232458   5.584   3.184   4.686  0.3423 -0.5221 -0.1507
 3656TIP3    H132459   5.566   3.262   4.632 -0.9467 -0.1026  0.8278
 3656TIP3    H232460   5.633   3.126   4.628  0.6365  0.6873 -1.1651
 3657TIP3   OH232461   3.606   0.054   2.032  0.3907  0.0892  0.1923
 3657TIP3    H132462   3.593   0.143   2.000 -1.4902 -0.3120 -0.2623
 3657TIP3    H232463   3.639   0.065   2.121 -1.2936  1.2669  0.7030
 3658TIP3   OH232464   4.575   2.451   3.208 -0.4353  0.1536  0.1374
 3658TIP3    H132465   4.586   2.545   3.198 -1.2628  0.0563 -2.7070
 3658TIP3    H232466   4.650   2.414   3.160 -0.9488 -0.5900 -0.1089
 3659TIP3   OH232467   4.032   4.529  14.757  0.2852 -0.1244  0.6016
 3659TIP3    H132468   4.041   4.597  14.690  0.0281  0.9611  1.6359
 3659TIP3    H232469   4.093   4.554  14.826 -0.7444 -0.2132  1.5716
 3660TIP3   OH232470   6.492   0.704  16.551  0.3392  0.1604 -0.3517
 3660TIP3    H132471   6.410   0.655  16.560  1.0054 -1.1294 -0.9488
 3660TIP3    H232472   6.482   0.755  16.472  0.3444 -0.5118 -0.7961
 3661TIP3   OH232473   3.830   5.245  16.290  0.1359 -0.5141 -0.0427
 3661TIP3    H132474   3.782   5.306  16.234 -0.5395  0.1146  1.1929
 3661TIP3    H232475   3.911   5.227  16.242  0.0289  0.8026 -0.7471
 3662TIP3   OH232476   4.826   3.149  12.301  0.6345 -0.1459  0.2831
 3662TIP3    H132477   4.873   3.145  12.384  0.5563 -0.0620  0.3317
 3662TIP3    H232478   4.810   3.242  12.287  2.1379  0.0069 -0.6680
 3663TIP3   OH232479   3.757   6.479  11.220  0.6140 -0.4969 -0.4277
 3663TIP3    H132480   3.821   6.451  11.285  0.6737  0.0901 -0.2361
 3663TIP3    H232481   3.794   6.449  11.136  2.1242  1.5341 -0.5444
 3664TIP3   OH232482   0.948   0.841  15.892  0.3480 -0.0768 -0.8414
 3664TIP3    H132483   0.895   0.896  15.950  1.4117 -0.1630  0.2656
 3664TIP3    H232484   0.929   0.752  15.920  1.7919 -0.0722  0.2585
 3665TIP3   OH232485   4.888   0.270   2.269  0.4209  0.6089 -0.4482
 3665TIP3    H132486   4.833   0.256   2.346  0.7537  1.1362 -0.1065
 3665TIP3    H232487   4.875   0.191   2.216 -2.0369  1.4415 -1.2362
 3666TIP3   OH232488   6.748   5.332   5.129 -0.2883 -0.1998 -0.6490
 3666TIP3    H132489   6.685   5.353   5.197 -0.3955  1.9570 -1.3343
 3666TIP3    H232490   6.803   5.411   5.122  1.2337 -1.2750 -1.4152
 3667TIP3   OH232491   5.258   1.144   2.499 -0.0121 -0.0406 -0.2418
 3667TIP3    H132492   5.331   1.197   2.469  0.4131  0.1949  1.1352
 3667TIP3    H232493   5.232   1.093   2.422  0.9846  0.5571 -0.9982
 3668TIP3   OH232494   3.976   0.102  14.521 -0.8422 -0.2272  0.5558
 3668TIP3    H132495   3.882   0.091  14.506 -0.9156 -1.6410  1.8319
 3668TIP3    H232496   3.983   0.127  14.613 -0.0050  0.7966  0.2303
 3669TIP3   OH232497   0.954   6.507   1.280  0.1392 -0.4377 -0.2776
 3669TIP3    H132498   1.009   6.537   1.352  0.8026 -0.4663 -0.7686
 3669TIP3    H232499   1.005   6.524   1.202 -0.8038  0.1073 -0.7905
 3670TIP3   OH232500   0.905   5.006  15.036  0.4886 -0.0641 -0.3946
 3670TIP3    H132501   0.974   4.953  14.997 -0.3572 -1.4421 -0.0898
 3670TIP3    H232502   0.894   4.971  15.124 -0.6244  0.0947 -0.4547
 3671TIP3   OH232503   0.934   5.012   3.026  0.4030 -0.0818  0.4394
 3671TIP3    H132504   0.986   4.989   3.104  3.0549 -0.6378 -1.3532
 3671TIP3    H232505   0.916   4.928   2.984 -0.7024  0.2417  0.2508
 3672TIP3   OH232506   4.368   0.513   3.233 -0.0531 -0.3442  0.0108
 3672TIP3    H132507   4.349   0.538   3.142 -0.2592  0.0444  0.1606
 3672TIP3    H232508   4.387   0.595   3.278 -0.3774 -0.4892  0.4213
 3673TIP3   OH232509   6.496   2.308  16.886 -0.3819 -0.4060  0.5766
 3673TIP3    H132510   6.441   2.235  16.915  1.1926 -1.5458  0.8440
 3673TIP3    H232511   6.559   2.319  16.957  1.1919 -0.7333 -0.7223
 3674TIP3   OH232512   3.012   4.731   6.420 -0.0558  0.3182  0.2406
 3674TIP3    H132513   3.028   4.646   6.463 -0.5026 -0.2148 -0.6198
 3674TIP3    H232514   3.098   4.760   6.391  0.1671  0.3958  0.9510
 3675TIP3   OH232515   6.307   6.733  12.639  0.0303 -0.1653 -0.1639
 3675TIP3    H132516   6.251   6.771  12.572  0.9696  0.3563 -0.6725
 3675TIP3    H232517   6.321   6.643  12.610 -3.7742 -1.7286  2.0119
 3676TIP3   OH232518   0.682   6.450   0.351  0.6832  0.2002 -0.0606
 3676TIP3    H132519   0.608   6.447   0.413  1.1517 -0.4778  0.4811
 3676TIP3    H232520   0.757   6.422   0.403  1.6801  2.5126 -0.1287
 3677TIP3   OH232521   0.595   3.843  12.685  0.3558 -0.2351 -0.2439
 3677TIP3    H132522   0.643   3.761  12.685  3.1239  1.2668 -0.2215
 3677TIP3    H232523   0.618   3.884  12.769 -2.0746  0.0349  0.3744
 3678TIP3   OH232524   1.839   5.459   4.312  0.0504  0.4362  0.1427
 3678TIP3    H132525   1.916   5.433   4.261  0.5029  2.3356 -0.2212
 3678TIP3    H232526   1.865   5.541   4.355 -1.6062  0.8544  0.4179
 3679TIP3   OH232527   6.460   4.060   4.116  0.1041  0.0884  0.1650
 3679TIP3    H132528   6.371   4.035   4.090  0.4693 -0.7739 -0.2961
 3679TIP3    H232529   6.458   4.156   4.119 -1.1291  0.0643  1.2190
 3680TIP3   OH232530   4.851   4.365  12.167  0.3209  0.4591 -0.2328
 3680TIP3    H132531   4.946   4.371  12.159  0.2357  2.0745 -0.3528
 3680TIP3    H232532   4.818   4.379  12.078 -0.0152 -2.1929 -0.6149
 3681TIP3   OH232533   0.515   2.291  12.135  0.7663 -0.1640  1.0377
 3681TIP3    H132534   0.603   2.254  12.123  1.2231  1.0202  0.6370
 3681TIP3    H232535   0.521   2.341  12.216  0.7907  0.8061  0.4567
 3682TIP3   OH232536   4.783   5.743   7.027 -0.2885  0.4476  0.0070
 3682TIP3    H132537   4.801   5.810   7.093  1.0886 -0.1005  0.2195
 3682TIP3    H232538   4.690   5.722   7.038 -0.3225  1.1108  1.0688
 3683TIP3   OH232539   3.581   2.018   1.961 -0.0936 -0.3032  0.5183
 3683TIP3    H132540   3.672   2.015   1.931 -0.7103 -1.1054 -1.4343
 3683TIP3    H232541   3.563   1.931   1.994 -0.7283 -0.8440 -1.1160
 3684TIP3   OH232542   5.074   6.102  12.013  0.2443 -0.3018  0.2160
 3684TIP3    H132543   4.979   6.110  12.010  0.1846 -0.8596  0.5111
 3684TIP3    H232544   5.095   6.027  11.958  0.4485 -0.6193  0.7095
 3685TIP3   OH232545   0.730   0.152   0.044  0.2380 -0.5803 -0.0458
 3685TIP3    H132546   0.772   0.131  -0.039 -1.2337  0.5640 -1.1199
 3685TIP3    H232547   0.797   0.133   0.110  1.2700 -1.9718 -1.4255
 3686TIP3   OH232548   1.357   1.894  11.376  0.0664  0.2097 -0.2521
 3686TIP3    H132549   1.354   1.974  11.429  1.1286  0.5851 -0.7359
 3686TIP3    H232550   1.391   1.922  11.291  0.8693 -0.8279 -0.2904
 3687TIP3   OH232551   2.813   0.025  12.869  0.3658  0.3144 -0.6835
 3687TIP3    H132552   2.763  -0.037  12.815  1.0867 -0.9286  0.0290
 3687TIP3    H232553   2.750   0.058  12.933  0.0961 -0.1266 -0.7189
 3688TIP3   OH232554   1.997   2.779  15.259  0.3803  0.1734  0.2271
 3688TIP3    H132555   1.987   2.706  15.197 -1.4321  0.2674  0.3452
 3688TIP3    H232556   2.031   2.851  15.206 -0.5153  0.0550 -0.5421
 3689TIP3   OH232557   5.818   5.157  13.084  0.1572  0.5556  0.1636
 3689TIP3    H132558   5.783   5.076  13.047  0.7683 -0.0203  0.8038
 3689TIP3    H232559   5.741   5.205  13.113 -0.1872 -0.1239  0.4119
 3690TIP3   OH232560   6.043   1.931   1.847 -0.1974  0.1907 -0.2873
 3690TIP3    H132561   6.104   2.004   1.840  0.7540 -0.7106 -1.9664
 3690TIP3    H232562   6.036   1.915   1.941  1.1949  1.0957  0.0011
 3691TIP3   OH232563   3.661   4.043   1.834 -0.6972 -0.2441 -0.0341
 3691TIP3    H132564   3.612   3.970   1.796 -0.1265 -0.8844  0.4319
 3691TIP3    H232565   3.747   4.006   1.855 -0.0223  0.8503 -0.8058
 3692TIP3   OH232566   3.079   3.140  14.623 -0.3199  0.6856  0.3376
 3692TIP3    H132567   3.052   3.052  14.596 -1.1110  1.0576 -0.1330
 3692TIP3    H232568   3.112   3.181  14.543  1.8605  0.1971  0.9269
 3693TIP3   OH232569   0.503   0.086   5.734 -0.4938  0.5022  0.1770
 3693TIP3    H132570   0.469   0.082   5.644 -0.2895  0.0905  0.1166
 3693TIP3    H232571   0.504   0.179   5.755 -0.9837  0.5681 -0.0808
 3694TIP3   OH232572   6.224   2.561  10.793  0.5979  0.0002 -0.4315
 3694TIP3    H132573   6.297   2.622  10.793 -0.0764  0.8332  0.7303
 3694TIP3    H232574   6.148   2.613  10.768 -0.1095 -0.1654  1.2309
 3695TIP3   OH232575   6.328   2.024   5.699 -0.1849  0.0607  0.2206
 3695TIP3    H132576   6.420   2.016   5.726 -0.1806  1.0239  0.5291
 3695TIP3    H232577   6.285   1.948   5.739  0.3313  0.0194  0.7098
 3696TIP3   OH232578   0.221   4.174   3.700 -0.0332  0.3185 -0.3218
 3696TIP3    H132579   0.152   4.139   3.643  1.0421 -1.3066 -0.6819
 3696TIP3    H232580   0.258   4.097   3.743  0.9614  1.2602  0.5477
 3697TIP3   OH232581   6.107   0.125   2.015  0.5545 -0.1355 -0.4927
 3697TIP3    H132582   6.110   0.187   2.088  0.6547 -0.3236 -0.3353
 3697TIP3    H232583   6.059   0.171   1.946  0.8696  0.2187 -0.4770
 3698TIP3   OH232584   4.380   3.193  13.455  0.1972 -0.4612 -0.3737
 3698TIP3    H132585   4.384   3.214  13.362  3.0423  0.0554 -0.2314
 3698TIP3    H232586   4.443   3.122  13.466  0.1340 -0.2988  1.2217
 3699TIP3   OH232587   2.267   3.769   6.098  0.2366  0.5551  0.3557
 3699TIP3    H132588   2.357   3.738   6.095 -0.1097 -0.5226  0.6823
 3699TIP3    H232589   2.274   3.863   6.114  1.2973  0.4667  0.4297
 3700TIP3   OH232590   5.276   3.007  13.714  0.0187 -0.1308 -0.8229
 3700TIP3    H132591   5.269   2.982  13.806 -0.2340 -0.4070 -0.9161
 3700TIP3    H232592   5.370   3.003  13.695  0.3918  2.4638  0.1123
 3701TIP3   OH232593   3.522   6.748  17.080 -0.0059  0.7357 -0.3752
 3701TIP3    H132594   3.436   6.733  17.042  0.0500 -1.1264  0.1185
 3701TIP3    H232595   3.584   6.728  17.009  0.0454  1.9102 -0.6806
 3702TIP3   OH232596   4.390   1.800  11.478 -0.6613 -0.1472  0.0928
 3702TIP3    H132597   4.349   1.759  11.554  0.2247 -0.9925  0.1396
 3702TIP3    H232598   4.434   1.878  11.514  3.2123 -2.6359  1.3366
 3703TIP3   OH232599   0.886   3.377  12.942 -0.2924  0.5234 -0.0537
 3703TIP3    H132600   0.838   3.451  12.977 -0.6254 -0.5445  1.8640
 3703TIP3    H232601   0.977   3.407  12.937 -0.4351  1.0799  0.6424
 3704TIP3   OH232602   6.051   2.534   1.168 -0.4071  0.0388  0.0485
 3704TIP3    H132603   5.990   2.474   1.125 -0.7980  0.0796  0.5293
 3704TIP3    H232604   6.077   2.595   1.099 -0.5595 -0.2540 -0.2735
 3705TIP3   OH232605   0.586   3.092   5.152 -0.3120  0.3039  0.0668
 3705TIP3    H132606   0.614   3.182   5.136 -2.6728  0.9625 -0.7814
 3705TIP3    H232607   0.491   3.095   5.148 -0.5207 -2.0100  1.3795
 3706TIP3   OH232608   5.106   0.034   3.106 -0.4355  0.5819 -0.6518
 3706TIP3    H132609   5.147  -0.041   3.062 -0.8690 -0.3116  0.4258
 3706TIP3    H232610   5.175   0.099   3.113  1.2878 -1.3660  2.2992
 3707TIP3   OH232611   2.492   3.273  12.198 -0.2179  0.0628 -0.2911
 3707TIP3    H132612   2.443   3.338  12.148  0.7621 -0.4500 -1.9965
 3707TIP3    H232613   2.499   3.197  12.139  3.7793  0.5787 -0.7927
 3708TIP3   OH232614   1.921   0.034   3.990 -0.1063 -0.0242 -0.1803
 3708TIP3    H132615   1.927   0.129   3.996 -1.6304  0.0551  0.4559
 3708TIP3    H232616   1.983   0.010   3.921  2.5183  1.1057  1.6416
 3709TIP3   OH232617   4.505   6.818   4.477  0.2299 -0.6204 -0.0414
 3709TIP3    H132618   4.554   6.757   4.532 -0.2329 -1.9254 -1.0239
 3709TIP3    H232619   4.493   6.772   4.395 -1.2658  0.2885 -0.3694
 3710TIP3   OH232620   4.125   4.580   0.173  0.1574 -0.1714 -0.0344
 3710TIP3    H132621   4.124   4.650   0.238 -0.2205 -0.6649  0.5008
 3710TIP3    H232622   4.175   4.509   0.213 -1.2011 -0.9885  0.2951
 3711TIP3   OH232623   1.524   6.552   3.244 -0.3560 -0.8670 -0.5586
 3711TIP3    H132624   1.521   6.482   3.178 -0.3922 -3.4010  1.9345
 3711TIP3    H232625   1.617   6.565   3.261 -0.3834 -1.9969  0.5757
 3712TIP3   OH232626   3.829   2.184  11.802 -0.1391  0.1387 -0.4454
 3712TIP3    H132627   3.810   2.157  11.712  3.2227  0.2838 -1.3259
 3712TIP3    H232628   3.847   2.103  11.849 -1.5655  0.0890  0.0594
 3713TIP3   OH232629   2.970   3.695  16.173  0.2406  0.0859  0.3710
 3713TIP3    H132630   2.884   3.661  16.147 -0.0528  0.1633  1.2101
 3713TIP3    H232631   2.967   3.787  16.150  0.2306  0.0153  0.0828
 3714TIP3   OH232632   6.831   3.810  14.864 -0.1487 -0.5374 -0.4506
 3714TIP3    H132633   6.876   3.762  14.795  1.2939  0.9177 -0.5728
 3714TIP3    H232634   6.739   3.784  14.855  0.0791 -0.7990 -2.5623
 3715TIP3   OH232635   6.250   6.303   2.982 -0.3427 -0.0944 -0.1820
 3715TIP3    H132636   6.274   6.265   3.066 -0.2500  0.7135  0.1687
 3715TIP3    H232637   6.295   6.388   2.980 -0.4166 -0.0665 -1.0053
 3716TIP3   OH232638   0.978   3.726  11.945  0.6812 -0.6155  0.2243
 3716TIP3    H132639   0.986   3.742  11.851 -1.5123  1.3910  0.2738
 3716TIP3    H232640   1.041   3.785  11.985 -0.0254  0.2806  0.0497
 3717TIP3   OH232641   3.655   3.787   1.013  0.8944  0.2075  0.2802
 3717TIP3    H132642   3.746   3.795   0.985  0.3191  1.8128 -1.3386
 3717TIP3    H232643   3.623   3.877   1.017 -1.0020 -0.3744 -0.5716
 3718TIP3   OH232644   4.511   1.016   0.955 -0.2246  0.1319  0.1504
 3718TIP3    H132645   4.538   1.074   0.884  0.6856  1.1512  1.2930
 3718TIP3    H232646   4.416   1.029   0.961 -0.2330  0.4502 -0.5009
 3719TIP3   OH232647   6.738   3.325   3.929 -0.1740 -0.5696  0.1091
 3719TIP3    H132648   6.772   3.239   3.906  0.6659 -0.4836  0.9647
 3719TIP3    H232649   6.652   3.307   3.968 -0.9731 -0.8192 -1.7029
 3720TIP3   OH232650   6.346   1.775  12.911  0.2829  0.6539  0.3842
 3720TIP3    H132651   6.357   1.836  12.839 -0.0158 -0.3128 -0.5105
 3720TIP3    H232652   6.264   1.801  12.953  0.7611  1.5881  0.7579
 3721TIP3   OH232653   4.076   4.873  16.658 -0.3603 -0.2404  0.0172
 3721TIP3    H132654   4.121   4.846  16.578 -0.1826  0.7450 -0.2191
 3721TIP3    H232655   4.122   4.952  16.687 -1.4865  0.3885  0.1573
 3722TIP3   OH232656   2.719   6.615   2.908  0.5344 -0.0181  0.3022
 3722TIP3    H132657   2.783   6.627   2.977 -0.4704  0.5967  1.1526
 3722TIP3    H232658   2.638   6.651   2.943 -0.2148 -0.4935 -0.8579
 3723TIP3   OH232659   2.881   5.438   4.381 -0.0337 -0.7874 -0.2228
 3723TIP3    H132660   2.881   5.498   4.306 -0.0877 -0.9953 -0.3917
 3723TIP3    H232661   2.789   5.434   4.409 -0.3909 -2.3092 -1.4539
 3724TIP3   OH232662   5.577   5.088  16.416  0.4100  0.1504  0.1758
 3724TIP3    H132663   5.618   5.004  16.437  2.4801  1.5463  2.1974
 3724TIP3    H232664   5.632   5.125  16.347 -1.0327 -0.4738 -1.3723
 3725TIP3   OH232665   2.087   2.301  14.000 -0.4443  0.2053  0.2458
 3725TIP3    H132666   2.168   2.351  13.986 -1.1706  1.4851  0.4462
 3725TIP3    H232667   2.036   2.315  13.920 -0.1422 -1.2891 -0.2372
 3726TIP3   OH232668   6.341   6.386  11.430  0.2161 -0.0786  0.0203
 3726TIP3    H132669   6.427   6.347  11.417  0.1539  0.1377 -1.1722
 3726TIP3    H232670   6.280   6.315  11.412  0.1379 -0.0187  0.0520
 3727TIP3   OH232671   1.338   5.595   0.688 -0.0739 -0.4234  0.4097
 3727TIP3    H132672   1.302   5.510   0.661  0.5444 -0.1457 -1.4242
 3727TIP3    H232673   1.338   5.647   0.608  0.5729  0.9597  1.2775
 3728TIP3   OH232674   3.126   4.944  16.069  0.3034  0.3232 -0.1663
 3728TIP3    H132675   3.106   4.936  15.975 -1.5962 -0.4418  0.2513
 3728TIP3    H232676   3.203   4.888  16.082  2.0543  2.2462 -1.6352
 3729TIP3   OH232677   5.418   2.879  16.588 -0.2658  0.4949  0.3481
 3729TIP3    H132678   5.454   2.962  16.557  0.4769 -0.6460 -2.1287
 3729TIP3    H232679   5.325   2.883  16.565 -0.4931  1.0727  1.3137
 3730TIP3   OH232680   5.210   5.312  16.452  0.1313 -0.4351 -0.4240
 3730TIP3    H132681   5.132   5.293  16.504 -0.0643  0.5601 -0.3239
 3730TIP3    H232682   5.176   5.360  16.376  0.6787  0.4459 -0.1353
 3731TIP3   OH232683   6.270   3.529   4.827  0.0146  0.0466  0.0379
 3731TIP3    H132684   6.254   3.617   4.795  1.5503  0.0172 -0.8853
 3731TIP3    H232685   6.182   3.493   4.843 -0.6595  1.3543 -0.5666
 3732TIP3   OH232686   5.738   5.443  11.847 -0.4942  0.0926 -0.4943
 3732TIP3    H132687   5.825   5.411  11.824 -1.0013 -0.9473 -1.0899
 3732TIP3    H232688   5.688   5.363  11.869 -0.4902  0.8613  2.8752
 3733TIP3   OH232689   4.835   4.171  11.462 -0.0298 -0.1269  0.6290
 3733TIP3    H132690   4.740   4.183  11.467 -0.2250 -1.3576  0.1206
 3733TIP3    H232691   4.862   4.227  11.389 -0.3880  0.1048  0.6693
 3734TIP3   OH232692   1.187   5.260   4.983  0.8582 -0.1062 -0.6250
 3734TIP3    H132693   1.150   5.183   4.939  0.6370 -0.0744 -0.4981
 3734TIP3    H232694   1.112   5.299   5.030  1.0421 -0.0179 -0.4021
 3735TIP3   OH232695   2.072   0.660  12.872 -0.8923  0.2491  0.3528
 3735TIP3    H132696   2.055   0.605  12.795 -0.7163 -0.3551  0.7384
 3735TIP3    H232697   2.153   0.625  12.909 -0.2936  1.3470  0.0969
 3736TIP3   OH232698   6.123   5.171  17.124  0.3689 -0.1074 -0.2126
 3736TIP3    H132699   6.046   5.201  17.074  0.5701  0.6013 -0.1083
 3736TIP3    H232700   6.184   5.139  17.058  0.3030  0.0647 -0.3580
 3737TIP3   OH232701   4.193   2.686   3.212  0.3529  0.0715  0.2802
 3737TIP3    H132702   4.138   2.667   3.288 -0.2224  0.2223 -0.0827
 3737TIP3    H232703   4.175   2.778   3.192  1.1414  0.2707  0.4651
 3738TIP3   OH232704   5.206   3.027   0.216 -0.1837 -0.3699 -0.5413
 3738TIP3    H132705   5.273   3.039   0.284  0.7674  0.3829 -1.5691
 3738TIP3    H232706   5.123   3.042   0.260  0.4017 -0.0996  0.4935
 3739TIP3   OH232707   1.435   0.427   1.000 -0.1376  0.1955  0.4312
 3739TIP3    H132708   1.518   0.466   1.025 -0.5142  0.3527  1.5273
 3739TIP3    H232709   1.411   0.371   1.075 -0.7628 -0.2492 -0.0847
 3740TIP3   OH232710   5.889   0.581   0.537 -0.3520  0.0012  0.2909
 3740TIP3    H132711   5.896   0.655   0.476 -0.7448  0.3900  0.7094
 3740TIP3    H232712   5.909   0.504   0.484 -0.1370  0.3873 -0.1993
 3741TIP3   OH232713   2.950   3.151  12.941 -0.5389 -0.0128 -0.1207
 3741TIP3    H132714   2.936   3.203  12.861  0.6089 -0.3471 -0.5621
 3741TIP3    H232715   3.024   3.094  12.919  0.0422  0.1603  1.3167
 3742TIP3   OH232716   5.432   2.041  14.225 -0.0524 -0.3460  0.0621
 3742TIP3    H132717   5.490   2.010  14.294 -0.0674  1.7631  1.1008
 3742TIP3    H232718   5.395   2.123  14.259 -1.1802  0.0231 -1.8680
 3743TIP3   OH232719   2.127   2.548  10.537 -0.3891  0.4748  0.1948
 3743TIP3    H132720   2.189   2.477  10.520 -0.1874  1.2556 -2.9817
 3743TIP3    H232721   2.053   2.506  10.580  0.0700 -1.5281 -0.8755
 3744TIP3   OH232722   5.948   4.010  12.310  0.1525  0.2770 -0.0266
 3744TIP3    H132723   6.009   3.937  12.308  0.3858  0.4724 -0.1233
 3744TIP3    H232724   5.865   3.971  12.337  0.6308  0.2415  1.4972
 3745TIP3   OH232725   2.575   1.700   2.248  0.0691 -0.6499  0.1701
 3745TIP3    H132726   2.577   1.748   2.165 -3.3615 -1.7607 -0.7041
 3745TIP3    H232727   2.614   1.615   2.227 -0.5676 -0.8399 -0.2976
 3746TIP3   OH232728   4.695   2.931  12.442  0.2839  0.2443  0.1795
 3746TIP3    H132729   4.707   3.011  12.391  0.2820  0.9019  1.1819
 3746TIP3    H232730   4.728   2.861  12.386 -1.4962  0.6809 -1.5033
 3747TIP3   OH232731   0.082   3.365   2.567 -0.0561 -0.0746  0.1824
 3747TIP3    H132732   0.080   3.270   2.570 -1.7321 -0.1535 -1.5359
 3747TIP3    H232733   0.014   3.389   2.504  0.9138  2.2270 -0.1122
 3748TIP3   OH232734   4.295   4.740   1.759 -0.1663  0.2813 -0.2268
 3748TIP3    H132735   4.289   4.815   1.818 -1.4692 -0.1639  0.2405
 3748TIP3    H232736   4.239   4.764   1.685  2.5487  1.4564 -2.0766
 3749TIP3   OH232737   3.877   1.009   6.573 -0.6747 -0.5575 -0.2604
 3749TIP3    H132738   3.788   1.043   6.571  0.2077  1.9073 -0.8497
 3749TIP3    H232739   3.866   0.914   6.572 -3.2796 -0.3357  0.2195
 3750TIP3   OH232740   1.648   6.353  11.481  0.3535  0.1683 -0.3824
 3750TIP3    H132741   1.692   6.329  11.562  1.3896 -1.0967 -1.2916
 3750TIP3    H232742   1.701   6.315  11.412 -1.5703 -0.5116 -1.5828
 3751TIP3   OH232743   3.847   1.009   3.449 -0.8932  0.1460 -0.4631
 3751TIP3    H132744   3.806   1.002   3.362 -0.3973 -0.4842 -0.6532
 3751TIP3    H232745   3.941   1.009   3.430 -0.7835 -0.0156  0.0783
 3752TIP3   OH232746   6.757   1.638  12.539  0.2583  0.4122  0.0734
 3752TIP3    H132747   6.703   1.564  12.513 -0.0965  0.6266  0.1861
 3752TIP3    H232748   6.816   1.603  12.606  0.8893 -0.0409 -0.6967
 3753TIP3   OH232749   3.883   1.494  13.675  0.1978  0.0740  0.0626
 3753TIP3    H132750   3.818   1.464  13.739  0.3353 -1.5308 -0.5109
 3753TIP3    H232751   3.835   1.498  13.592  0.6236 -0.3809 -0.2149
 3754TIP3   OH232752   3.872   3.694  16.430 -0.1573  0.1113  0.2612
 3754TIP3    H132753   3.796   3.734  16.388 -1.4154 -1.3603  0.9979
 3754TIP3    H232754   3.877   3.606  16.391  0.7730 -0.0387  0.6874
 3755TIP3   OH232755   6.533   4.975   2.862  0.5966  0.7074  0.5684
 3755TIP3    H132756   6.521   5.064   2.895 -0.1864  0.9132 -0.2302
 3755TIP3    H232757   6.626   4.955   2.879  0.8242  1.7371  0.5908
 3756TIP3   OH232758   0.798   0.123  13.154  0.0251  0.3839  0.0166
 3756TIP3    H132759   0.719   0.174  13.173  0.0564  0.0739  1.0723
 3756TIP3    H232760   0.811   0.069  13.232  0.7346 -0.2793 -0.5414
 3757TIP3   OH232761   6.512   4.449   2.132 -0.0985 -0.0307 -0.0463
 3757TIP3    H132762   6.483   4.427   2.044 -3.6128  0.2659  0.9123
 3757TIP3    H232763   6.535   4.542   2.128 -0.7649  0.1164 -0.5320
 3758TIP3   OH232764   5.049   6.379   2.339  0.7255 -0.1563  0.0224
 3758TIP3    H132765   5.055   6.406   2.431 -2.3404  1.3942 -0.1135
 3758TIP3    H232766   4.956   6.389   2.317  1.5625  0.9173 -3.6578
 3759TIP3   OH232767   1.644   0.146  15.491  0.6339  0.7624 -0.0002
 3759TIP3    H132768   1.736   0.135  15.517  0.1609 -3.8859  0.4378
 3759TIP3    H232769   1.598   0.165  15.573  0.8430  0.1573  0.2610
 3760TIP3   OH232770   2.145   0.424   4.665 -0.1607  0.0119  0.0332
 3760TIP3    H132771   2.125   0.389   4.752  0.5991 -0.4799  0.0239
 3760TIP3    H232772   2.233   0.391   4.646  0.3575  1.4608 -0.2323
 3761TIP3   OH232773   1.101   2.908   6.244 -0.5122  0.4087 -0.3596
 3761TIP3    H132774   1.093   2.900   6.339  0.8509  1.6223 -0.1032
 3761TIP3    H232775   1.064   2.994   6.224  1.2505  1.1495 -0.5996
 3762TIP3   OH232776   0.990   4.297   2.900  0.7287  0.1792 -0.3777
 3762TIP3    H132777   1.006   4.344   2.818  2.2172  0.9721  0.3324
 3762TIP3    H232778   0.968   4.366   2.962  2.6230 -0.0659  0.6094
 3763TIP3   OH232779   0.989   2.801   0.245  0.4075  0.3281 -0.0265
 3763TIP3    H132780   1.047   2.875   0.259  0.2190  0.9014 -1.9504
 3763TIP3    H232781   1.012   2.768   0.158 -1.8013  0.2971 -0.6816
 3764TIP3   OH232782   2.743   1.335  16.126 -0.6600 -0.5136  0.0501
 3764TIP3    H132783   2.802   1.308  16.055 -0.7002 -0.7439  0.1029
 3764TIP3    H232784   2.699   1.413  16.092 -2.1131 -1.7125 -0.9641
 3765TIP3   OH232785   0.318   1.452  11.470 -0.5395  0.0550  0.1273
 3765TIP3    H132786   0.370   1.503  11.408  1.1952  2.3622  3.2068
 3765TIP3    H232787   0.234   1.498  11.474 -1.1825 -0.9028 -1.3763
 3766TIP3   OH232788   2.169   0.942  11.935  0.1536  0.0532 -0.3985
 3766TIP3    H132789   2.167   1.033  11.904 -0.3880 -0.4574 -1.9696
 3766TIP3    H232790   2.257   0.931  11.973  0.2401  1.2113 -0.2364
 3767TIP3   OH232791   0.581   0.309   4.515  0.4445 -0.7077 -0.2174
 3767TIP3    H132792   0.666   0.346   4.490  0.1800 -0.1735 -0.3414
 3767TIP3    H232793   0.567   0.238   4.452  0.3646 -0.1856 -0.7987
 3768TIP3   OH232794   6.812   2.298   3.983 -0.0835  0.4613  0.2254
 3768TIP3    H132795   6.811   2.352   4.063  1.4580  0.5066  0.2455
 3768TIP3    H232796   6.764   2.219   4.007  1.4731 -0.1144  1.6630
 3769TIP3   OH232797   5.793   3.504  12.720 -0.1683 -0.2306  0.1372
 3769TIP3    H132798   5.744   3.447  12.778  0.1162 -0.0411  0.5676
 3769TIP3    H232799   5.877   3.520  12.765  0.6151 -1.1690 -0.9287
 3770TIP3   OH232800   5.293   0.247  14.807  0.0118 -0.5395 -0.3208
 3770TIP3    H132801   5.212   0.298  14.815 -0.8401 -1.5427 -1.9986
 3770TIP3    H232802   5.324   0.238  14.897 -0.7008  1.4795  0.1792
 3771TIP3   OH232803   0.623   0.804  11.634  0.6378 -0.8497 -0.9111
 3771TIP3    H132804   0.652   0.714  11.650 -2.5814 -2.0760 -1.3066
 3771TIP3    H232805   0.585   0.802  11.546  1.1906  1.1325 -1.2433
 3772TIP3   OH232806   0.837   0.284  16.734 -0.0245  0.3030  0.1438
 3772TIP3    H132807   0.816   0.378  16.732 -0.4862  0.2039 -1.8170
 3772TIP3    H232808   0.755   0.241  16.710  0.5455 -0.5111 -0.3922
 3773TIP3   OH232809   0.039   4.063   0.825  0.4398  0.4244 -0.1247
 3773TIP3    H132810  -0.043   4.024   0.796 -1.2359  2.7953  1.1203
 3773TIP3    H232811   0.015   4.116   0.902  3.1839  0.9902  0.4516
 3774TIP3   OH232812   6.451   2.848  12.566  0.4705  0.0799  0.0303
 3774TIP3    H132813   6.361   2.819  12.580 -0.1054  0.5382 -2.2392
 3774TIP3    H232814   6.468   2.827  12.474  2.0808  1.5386 -0.0480
 3775TIP3   OH232815   1.089   3.477   0.794 -0.0064  0.0922 -0.3017
 3775TIP3    H132816   1.092   3.571   0.808  1.2991  0.2160 -1.2249
 3775TIP3    H232817   1.001   3.460   0.760 -0.6416  0.7966  0.9595
 3776TIP3   OH232818   6.678   6.206   3.683 -0.1563  0.3781 -0.6130
 3776TIP3    H132819   6.594   6.175   3.718 -0.3131  0.4427 -0.9278
 3776TIP3    H232820   6.682   6.299   3.708 -1.1277  0.9360 -2.3307
 3777TIP3   OH232821   6.209   3.191   4.859  0.4907  0.1193  0.5162
 3777TIP3    H132822   6.261   3.192   4.779 -0.9590  0.8295 -0.4778
 3777TIP3    H232823   6.192   3.099   4.877 -0.4387 -0.0137 -0.9028
 3778TIP3   OH232824   2.967   4.447  11.951  0.0834  0.2634 -0.1518
 3778TIP3    H132825   2.969   4.531  11.904 -3.0752  0.6984  0.2499
 3778TIP3    H232826   2.905   4.394  11.901  0.5524 -1.1406  0.7180
 3779TIP3   OH232827   3.073   1.304   0.400  0.3124 -0.0061  0.0492
 3779TIP3    H132828   3.020   1.228   0.375  0.8566 -1.0365  1.8506
 3779TIP3    H232829   3.061   1.366   0.328 -0.3929 -1.6660 -1.3543
 3780TIP3   OH232830   4.955   0.712   1.813  0.3452 -0.1842 -0.6115
 3780TIP3    H132831   4.952   0.761   1.731 -0.3824 -1.3738 -1.3237
 3780TIP3    H232832   4.889   0.644   1.803  0.6552 -0.7157  0.7351
 3781TIP3   OH232833   1.989   0.596  15.364  0.4699 -0.4255  0.2027
 3781TIP3    H132834   1.910   0.619  15.315  0.5832  1.1176  0.7084
 3781TIP3    H232835   2.046   0.672  15.358  1.5026 -1.1238  0.7110
 3782TIP3   OH232836   1.857   0.616  16.265  0.2565 -0.1570  0.6593
 3782TIP3    H132837   1.917   0.632  16.338 -0.5891  1.3224  1.0579
 3782TIP3    H232838   1.780   0.578  16.305  0.2448 -0.4240  0.3812
 3783TIP3   OH232839   4.450   1.900  13.279  0.0535 -0.3083  0.0769
 3783TIP3    H132840   4.363   1.868  13.303  1.0056 -2.7756  0.5630
 3783TIP3    H232841   4.484   1.939  13.360  0.1418 -1.2182  0.5006
 3784TIP3   OH232842   2.541   0.082   0.466 -0.0570 -0.4679 -0.7199
 3784TIP3    H132843   2.504   0.085   0.378 -1.6201 -0.3374 -0.0866
 3784TIP3    H232844   2.522   0.168   0.503  1.8340 -0.0055 -0.6970
 3785TIP3   OH232845   1.197   2.830   5.482 -0.0530  0.0067  0.4341
 3785TIP3    H132846   1.211   2.820   5.577  2.6582 -1.1006 -0.0014
 3785TIP3    H232847   1.279   2.865   5.449 -0.7810 -0.1058 -1.6006
 3786TIP3   OH232848   4.292   4.802   5.278  0.1416  0.5184  0.1920
 3786TIP3    H132849   4.234   4.842   5.342 -0.3101 -1.7374  1.3057
 3786TIP3    H232850   4.380   4.815   5.313  0.0357  0.8601  0.3322
 3787TIP3   OH232851   0.329   4.167  11.070 -0.6713  0.0465 -0.0228
 3787TIP3    H132852   0.324   4.079  11.032  2.3212 -0.0786 -0.3704
 3787TIP3    H232853   0.243   4.205  11.052 -1.3497 -2.0581 -1.7652
 3788TIP3   OH232854   4.067   2.096  12.867  0.1673  0.4647  0.2425
 3788TIP3    H132855   4.038   2.035  12.799 -1.1179  1.7261 -0.3964
 3788TIP3    H232856   4.137   2.049  12.912  1.2257 -0.3494 -2.0675
 3789TIP3   OH232857   6.702   4.834   0.431  0.2660  0.5821  0.0860
 3789TIP3    H132858   6.657   4.842   0.347  2.1903 -1.0137 -1.2007
 3789TIP3    H232859   6.674   4.911   0.480 -2.7866  0.3404 -1.0478
 3790TIP3   OH232860   4.089   4.842   2.937  0.3431 -0.3980 -0.0553
 3790TIP3    H132861   4.060   4.871   2.850 -0.3818  0.1215  0.3607
 3790TIP3    H232862   4.156   4.906   2.962  2.0537 -1.6889 -1.0853
 3791TIP3   OH232863   6.343   4.343   0.533 -0.0724 -0.7979  0.5281
 3791TIP3    H132864   6.250   4.354   0.555  0.3056  0.1159  1.7633
 3791TIP3    H232865   6.390   4.378   0.608  1.3040  0.8600 -1.0097
 3792TIP3   OH232866   0.332   1.225  11.054  0.0075 -0.2332  0.0060
 3792TIP3    H132867   0.249   1.185  11.078 -0.6828  0.5318 -1.0134
 3792TIP3    H232868   0.366   1.170  10.983  0.1099 -0.2455  0.0643
 3793TIP3   OH232869   3.432   3.930  16.476 -0.3106 -0.1914 -0.4027
 3793TIP3    H132870   3.372   3.942  16.402 -0.3287 -0.2154 -0.3924
 3793TIP3    H232871   3.482   3.851  16.454 -1.6957 -1.3911  0.5334
 3794TIP3   OH232872   2.101   4.653   1.845 -0.0486 -0.4570 -0.1580
 3794TIP3    H132873   2.119   4.604   1.925  0.5860 -2.5777 -1.5057
 3794TIP3    H232874   2.010   4.679   1.852  0.5117  1.1314  2.0927
 3795TIP3   OH232875   0.947   3.225   2.122  0.0034 -0.0608  0.3872
 3795TIP3    H132876   0.962   3.320   2.127 -0.4634  0.0485 -0.2004
 3795TIP3    H232877   0.905   3.212   2.038 -1.5108 -0.5739  1.1903
 3796TIP3   OH232878   6.447   3.725   4.560  0.3457  0.3447 -0.7420
 3796TIP3    H132879   6.397   3.653   4.522  0.3478  0.0582 -0.2207
 3796TIP3    H232880   6.470   3.781   4.486  0.7169 -0.4187 -1.2146
 3797TIP3   OH232881   1.144   2.523  11.105 -0.0380 -0.0976  0.1837
 3797TIP3    H132882   1.124   2.599  11.051 -0.1142 -0.4860 -0.3342
 3797TIP3    H232883   1.084   2.530  11.179  0.8784  1.0872  0.8551
 3798TIP3   OH232884   4.665   3.008   1.342 -0.6409 -0.5322 -0.8821
 3798TIP3    H132885   4.607   2.932   1.349  1.1064 -1.8313  0.0836
 3798TIP3    H232886   4.724   2.988   1.270  0.2577 -0.4073 -0.2002
 3799TIP3   OH232887   0.580   6.302  11.248  0.7728 -0.0600 -0.1418
 3799TIP3    H132888   0.633   6.376  11.218 -0.4885 -0.2384 -3.1183
 3799TIP3    H232889   0.643   6.245  11.292  2.0961  1.9093  0.6669
 3800TIP3   OH232890   2.829   3.592  15.835  0.5106 -0.5429 -0.3274
 3800TIP3    H132891   2.765   3.621  15.770 -0.4097 -0.3804  0.6139
 3800TIP3    H232892   2.905   3.648  15.821 -0.4068  0.8328  0.0116
 3801TIP3   OH232893   5.431   4.360  15.367  0.2475  0.4785  0.4944
 3801TIP3    H132894   5.444   4.404  15.451 -0.2598  1.1257  0.2381
 3801TIP3    H232895   5.354   4.305  15.380  0.6558 -0.0616  0.6966
 3802TIP3   OH232896   5.982   3.034  13.263  0.2857 -0.0285  0.5631
 3802TIP3    H132897   6.030   3.026  13.345 -0.5052  0.5887  1.1070
 3802TIP3    H232898   5.965   3.128  13.253 -0.2277 -0.1624  0.0569
 3803TIP3   OH232899   1.326   2.068   1.923  0.2585 -1.1232 -0.7692
 3803TIP3    H132900   1.241   2.107   1.943  0.1530 -0.5451 -2.2513
 3803TIP3    H232901   1.305   1.983   1.885  0.2340 -0.3303 -2.6260
 3804TIP3   OH232902   3.051   4.309  16.760  0.2587 -0.4111  0.0222
 3804TIP3    H132903   2.959   4.333  16.772  0.2828  0.2486 -0.9970
 3804TIP3    H232904   3.052   4.257  16.679  0.6310 -1.4119  0.6422
 3805TIP3   OH232905   6.775   2.710  11.201  0.0463  0.0771  0.5337
 3805TIP3    H132906   6.863   2.732  11.171  0.0360  1.0561  1.1621
 3805TIP3    H232907   6.740   2.792  11.234 -1.1583 -0.2755  0.1859
 3806TIP3   OH232908   3.649   3.011   1.239  0.4542 -0.2502  0.2566
 3806TIP3    H132909   3.729   3.003   1.292  0.1663  1.4988  1.0319
 3806TIP3    H232910   3.599   3.080   1.283 -0.5789  0.0587 -1.3514
 3807TIP3   OH232911   1.160   3.242   3.550 -0.4774 -0.1059  0.1634
 3807TIP3    H132912   1.183   3.335   3.545  2.0240 -0.7115 -1.8075
 3807TIP3    H232913   1.083   3.233   3.494 -1.4374  0.9268  1.2760
 3808TIP3   OH232914   0.505   1.407  12.265 -0.2316  0.5664  0.6004
 3808TIP3    H132915   0.453   1.423  12.187  0.6396  0.7514  0.0399
 3808TIP3    H232916   0.577   1.470  12.261  0.9202 -0.6761  0.5155
 3809TIP3   OH232917   3.617   5.197   2.558 -0.2873 -0.7546 -0.5335
 3809TIP3    H132918   3.571   5.175   2.477 -1.5238 -2.1257  0.4950
 3809TIP3    H232919   3.548   5.215   2.621  0.6553  0.0423  0.3058
 3810TIP3   OH232920   1.412   3.559   1.346 -0.1532  0.0972 -0.3596
 3810TIP3    H132921   1.437   3.499   1.416 -0.5544 -0.6368 -0.8372
 3810TIP3    H232922   1.450   3.643   1.372  1.7638 -0.6865 -0.4629
 3811TIP3   OH232923   6.851   3.796   4.350 -0.5044 -0.2017 -0.1738
 3811TIP3    H132924   6.917   3.811   4.417 -1.3208  1.9714  0.2432
 3811TIP3    H232925   6.901   3.791   4.268  0.2348  1.4494  0.1266
 3812TIP3   OH232926   3.430   4.126   4.334  0.1941 -0.1438 -0.0182
 3812TIP3    H132927   3.442   4.215   4.365 -0.1866 -0.4146  0.9437
 3812TIP3    H232928   3.499   4.076   4.379 -0.3904 -0.5474  0.4422
 3813TIP3   OH232929   3.490   5.572  12.571 -0.4555 -0.4865 -0.7254
 3813TIP3    H132930   3.414   5.527  12.534 -0.7743 -0.1973 -0.4284
 3813TIP3    H232931   3.512   5.639  12.505 -0.9077 -0.0949 -0.4878
 3814TIP3   OH232932   1.255   6.790   0.904  0.0605  0.0416 -0.2471
 3814TIP3    H132933   1.332   6.764   0.854  0.5834 -0.0793  0.5994
 3814TIP3    H232934   1.255   6.886   0.899  1.5504  0.1926  1.5626
 3815TIP3   OH232935   5.222   1.592   2.978  0.1363  0.1010  0.0475
 3815TIP3    H132936   5.176   1.590   2.894  0.4131  0.5596 -0.1169
 3815TIP3    H232937   5.163   1.547   3.038  0.6476 -1.7410 -0.7374
 3816TIP3   OH232938   1.951   5.954   3.282 -0.1558 -0.5156 -0.2953
 3816TIP3    H132939   1.859   5.943   3.259 -0.6989  3.0207 -0.4651
 3816TIP3    H232940   1.980   5.867   3.310 -4.2186 -1.3089  2.2689
 3817TIP3   OH232941   4.578   2.545  12.532  0.1473  0.3109  0.0684
 3817TIP3    H132942   4.666   2.584  12.533  1.3212 -2.0806 -1.1890
 3817TIP3    H232943   4.547   2.558  12.443 -0.5025  0.5216  0.3197
 3818TIP3   OH232944   0.197   4.848  11.438 -0.4885 -0.0996  0.0017
 3818TIP3    H132945   0.175   4.849  11.531 -0.7372 -0.9677 -0.0408
 3818TIP3    H232946   0.144   4.917  11.399 -2.1137 -1.2188  0.1376
 3819TIP3   OH232947   2.222   1.530  16.266 -0.0482 -0.7705  0.1820
 3819TIP3    H132948   2.131   1.522  16.296 -0.0597 -0.0858  0.3363
 3819TIP3    H232949   2.254   1.610  16.307  0.4364 -0.6826 -0.3574
 3820TIP3   OH232950   3.044   1.672  14.535  0.2666  0.0989 -0.7559
 3820TIP3    H132951   3.090   1.740  14.487  0.1507 -0.2682 -1.3874
 3820TIP3    H232952   3.054   1.593  14.482 -0.4734 -0.1466 -0.5425
 3821TIP3   OH232953   2.052   5.646  12.178  0.3611 -0.2849 -0.3562
 3821TIP3    H132954   2.044   5.700  12.256  1.6207 -0.7079  0.0859
 3821TIP3    H232955   2.146   5.641  12.162  0.1404 -0.6120 -1.6168
 3822TIP3   OH232956   5.995   0.885   2.963 -0.3443  0.2187 -0.0532
 3822TIP3    H132957   6.034   0.822   2.903 -0.6448  0.6974 -0.7633
 3822TIP3    H232958   5.906   0.853   2.978  0.4542 -1.2421  2.0931
 3823TIP3   OH232959   2.993   5.605  15.396 -0.2804  0.2961  0.3250
 3823TIP3    H132960   2.981   5.696  15.424 -1.1505  0.8197 -1.5698
 3823TIP3    H232961   2.911   5.561  15.419  0.2675 -0.1158  1.5457
 3824TIP3   OH232962   0.117   5.380  10.961 -0.5700 -0.0257  0.0756
 3824TIP3    H132963   0.199   5.338  10.934  0.5985  2.4408 -0.5418
 3824TIP3    H232964   0.088   5.428  10.883 -1.1949  1.2153  1.0350
 3825TIP3   OH232965   0.196   2.913  15.476 -0.5830  0.6996  0.2475
 3825TIP3    H132966   0.181   2.960  15.558 -2.0054  0.8957 -0.0904
 3825TIP3    H232967   0.291   2.909  15.467 -0.3069 -0.9505  2.8337
 3826TIP3   OH232968   0.095   1.303  15.816 -0.4711 -0.6751  0.4442
 3826TIP3    H132969   0.090   1.259  15.731 -0.7669  1.0596 -0.5003
 3826TIP3    H232970   0.159   1.374  15.802 -1.4009  0.3703  1.2952
 3827TIP3   OH232971   6.335   1.600  16.294 -0.3248 -0.2590 -0.1982
 3827TIP3    H132972   6.296   1.621  16.209 -1.3241 -1.7540 -0.1515
 3827TIP3    H232973   6.375   1.682  16.323  0.8214  0.0814 -2.5011
 3828TIP3   OH232974   2.159   0.576   4.429 -0.2293  0.0471  0.6754
 3828TIP3    H132975   2.124   0.520   4.499 -0.4540  0.2562  0.7285
 3828TIP3    H232976   2.096   0.647   4.420  1.1734  1.5900  2.2199
 3829TIP3   OH232977   6.386   0.682  12.781 -0.1139 -0.2434 -0.3455
 3829TIP3    H132978   6.416   0.609  12.728 -2.6599 -0.9002 -1.0253
 3829TIP3    H232979   6.379   0.646  12.870 -0.0984 -0.4484 -0.4272
 3830TIP3   OH232980   4.315   4.093  11.381  0.1876 -1.0934  0.7337
 3830TIP3    H132981   4.356   4.173  11.413 -0.6974 -0.8616  1.3258
 3830TIP3    H232982   4.259   4.121  11.309  2.6373 -1.6930 -1.5622
 3831TIP3   OH232983   6.265   6.149   0.980 -0.1599 -0.2465 -0.0108
 3831TIP3    H132984   6.268   6.219   1.045 -0.8493 -0.5453  0.3445
 3831TIP3    H232985   6.242   6.071   1.029  0.7474 -0.7683 -0.3843
 3832TIP3   OH232986   1.112   5.679   4.942 -0.0430  0.5228 -0.3628
 3832TIP3    H132987   1.119   5.667   5.037 -1.1214 -0.2840 -0.3538
 3832TIP3    H232988   1.094   5.591   4.909 -0.4031  0.9158 -1.2386
 3833TIP3   OH232989   6.249   4.348  16.712  0.3550  0.4066 -0.5485
 3833TIP3    H132990   6.228   4.425  16.659  0.5206  0.2126 -0.8935
 3833TIP3    H232991   6.178   4.287  16.695 -0.2664  0.8309  0.4290
 3834TIP3   OH232992   2.050   4.106   4.132 -0.5933  0.1033  0.0196
 3834TIP3    H132993   2.103   4.047   4.185 -2.4903  0.7593  2.8503
 3834TIP3    H232994   2.019   4.052   4.059  1.5084 -1.0321 -0.1208
 3835TIP3   OH232995   5.684   2.653   4.330 -0.0170  0.2010  0.2699
 3835TIP3    H132996   5.698   2.665   4.236 -1.3027 -0.8529 -0.0915
 3835TIP3    H232997   5.726   2.570   4.351 -2.3049 -1.1153 -0.0580
 3836TIP3   OH232998   6.426   5.808   4.217 -0.6589 -0.5858 -0.1191
 3836TIP3    H132999   6.507   5.827   4.264 -0.1445 -1.1331 -0.7607
 3836TIP3    H233000   6.360   5.864   4.258 -0.6264 -2.2537  2.3927
 3837TIP3   OH233001   2.012   3.608  11.247 -0.4035  0.2587  0.5755
 3837TIP3    H133002   1.984   3.523  11.282 -0.4386 -0.7852 -1.7825
 3837TIP3    H233003   1.996   3.670  11.318 -1.6379 -1.4956  1.9119
 3838TIP3   OH233004   6.015   2.392   4.548  0.1875 -0.2662  0.1877
 3838TIP3    H133005   6.069   2.471   4.554 -0.6866  0.2406  2.2022
 3838TIP3    H233006   6.019   2.353   4.635 -2.3695 -0.4002  0.3184
 3839TIP3   OH233007   5.621   6.016  16.827  0.1411 -0.0177 -0.4669
 3839TIP3    H133008   5.568   6.094  16.807  0.3471  0.3765  0.4703
 3839TIP3    H233009   5.573   5.971  16.896  0.6814 -0.0096 -0.0745
 3840TIP3   OH233010   5.283   3.644   3.512  0.3593  0.0136 -0.1588
 3840TIP3    H133011   5.302   3.710   3.446 -1.1530 -0.1029 -0.7484
 3840TIP3    H233012   5.188   3.632   3.508  0.3147 -0.4831  1.5853
 3841TIP3   OH233013   3.874   6.727   3.507 -0.3037  0.2552  0.4085
 3841TIP3    H133014   3.853   6.815   3.536  0.6769  0.8848 -0.7130
 3841TIP3    H233015   3.881   6.734   3.412  0.9760 -0.7502  0.3952
 3842TIP3   OH233016   0.243   1.566  15.763 -0.0302 -0.2679 -0.3275
 3842TIP3    H133017   0.154   1.603  15.765  1.0406  2.5489  0.1931
 3842TIP3    H233018   0.275   1.576  15.852  2.6252  4.0442 -1.4606
 3843TIP3   OH233019   2.896   4.673  11.539  0.5822 -0.3154 -0.3109
 3843TIP3    H133020   2.950   4.672  11.618  0.3975 -0.6069 -0.1864
 3843TIP3    H233021   2.959   4.672  11.467  0.7910  1.2808 -0.1934
 3844TIP3   OH233022   1.330   6.199   4.658 -0.2887 -0.5018  0.0437
 3844TIP3    H133023   1.421   6.214   4.684 -0.0564  0.1567 -1.0690
 3844TIP3    H233024   1.304   6.120   4.704  0.3242  0.1774  1.6395
 3845TIP3   OH233025   0.823   5.053  15.513 -0.2215 -0.5748 -0.6611
 3845TIP3    H133026   0.900   5.057  15.456  0.3481 -1.4180  0.0139
 3845TIP3    H233027   0.819   4.961  15.541 -1.2471 -0.4546 -0.3604
 3846TIP3   OH233028   1.544   4.253  14.296  0.7674  0.7957 -0.2102
 3846TIP3    H133029   1.558   4.199  14.374  1.3315 -1.4875 -1.7780
 3846TIP3    H233030   1.523   4.340  14.330  2.3260  0.2410  2.4604
 3847TIP3   OH233031   4.906   2.738   1.678  0.4410  0.3652  0.2928
 3847TIP3    H133032   4.839   2.805   1.661 -0.6388 -1.1523 -1.8527
 3847TIP3    H233033   4.977   2.761   1.619  1.2641  1.1331  1.5316
 3848TIP3   OH233034   4.555   6.510   5.063 -0.3909 -0.2580  0.3897
 3848TIP3    H133035   4.551   6.457   4.984 -0.1430 -0.4234  0.4886
 3848TIP3    H233036   4.647   6.512   5.086 -0.5958 -1.2256  1.3654
 3849TIP3   OH233037   3.035   1.348  14.334  0.2000 -0.2765 -0.0407
 3849TIP3    H133038   3.026   1.306  14.420  0.3364 -2.1036 -0.8677
 3849TIP3    H233039   2.950   1.335  14.292  0.3788 -0.0745 -0.4751
 3850TIP3   OH233040   0.219   1.229   1.782 -0.1637 -0.7511  0.1881
 3850TIP3    H133041   0.228   1.302   1.844  2.1670 -0.3676 -0.5116
 3850TIP3    H233042   0.305   1.222   1.741 -0.6115 -3.3040 -0.4721
 3851TIP3   OH233043   4.155   3.934   3.954 -0.1773  0.4263  0.4979
 3851TIP3    H133044   4.184   3.888   4.033 -1.9332 -1.0548  0.3538
 3851TIP3    H233045   4.216   3.907   3.886  0.2237  0.1848  0.9467
 3852TIP3   OH233046   4.035   3.163  17.122  0.0142 -0.0253  0.4734
 3852TIP3    H133047   4.127   3.174  17.149 -0.2459 -1.9968  2.5261
 3852TIP3    H233048   3.987   3.160  17.205 -1.9254  0.8771 -0.5647
 3853TIP3   OH233049   0.805   4.878  16.538  0.0491  0.2420 -0.7298
 3853TIP3    H133050   0.776   4.850  16.451  0.0813 -0.0994 -0.6328
 3853TIP3    H233051   0.830   4.970  16.527 -2.2927  0.9615 -0.5422
 3854TIP3   OH233052   1.901   0.302  15.083 -0.5506 -0.2453  0.1300
 3854TIP3    H133053   1.808   0.301  15.103 -0.6083  0.5370 -0.0481
 3854TIP3    H233054   1.910   0.368  15.014  0.3571  0.9070  1.2933
 3855TIP3   OH233055   5.708   2.664   1.829 -0.1057  0.0575 -0.2471
 3855TIP3    H133056   5.704   2.569   1.834 -2.0418  0.0660 -0.7882
 3855TIP3    H233057   5.745   2.683   1.743  1.2930 -0.1726  0.2794
 3856TIP3   OH233058   2.783   2.693   2.975  0.0292 -0.4764 -0.4762
 3856TIP3    H133059   2.765   2.763   2.912 -3.3067  0.1470  0.9580
 3856TIP3    H233060   2.879   2.687   2.977  0.3454  1.4685 -3.3602
 3857TIP3   OH233061   3.827   5.760  14.838  0.2819 -0.4434  0.2279
 3857TIP3    H133062   3.833   5.671  14.874  1.1295 -0.1045  0.9653
 3857TIP3    H233063   3.734   5.781  14.841  0.3201 -0.4027  2.3399
 3858TIP3   OH233064   1.835   2.168   1.701 -0.5464 -0.2319  0.1665
 3858TIP3    H133065   1.868   2.109   1.769  2.0484  0.9276  0.0426
 3858TIP3    H233066   1.810   2.247   1.749 -0.5457 -0.1096 -0.0348
 3859TIP3   OH233067   0.880   4.831   4.130 -0.2373  0.3725  0.7311
 3859TIP3    H133068   0.785   4.846   4.123 -0.4263 -0.3139  1.6654
 3859TIP3    H233069   0.907   4.884   4.205 -0.5245 -2.0411  2.6681
 3860TIP3   OH233070   6.842   2.710  13.918 -0.4375 -0.7154  0.2204
 3860TIP3    H133071   6.805   2.719  14.005  2.7037 -1.1117  1.7263
 3860TIP3    H233072   6.851   2.800  13.886 -1.0672 -0.5372  0.5346
 3861TIP3   OH233073   2.860   3.055  14.053  0.1247  0.1969  0.6957
 3861TIP3    H133074   2.768   3.074  14.068 -0.0549  0.1384 -0.2604
 3861TIP3    H233075   2.861   2.966  14.017  0.1894  1.4403 -2.6624
 3862TIP3   OH233076   2.118   5.826   4.613  0.0617  0.0001  0.4591
 3862TIP3    H133077   2.107   5.855   4.523  0.1814 -0.0472  0.4283
 3862TIP3    H233078   2.062   5.748   4.620 -1.2168  0.9290  0.8923
 3863TIP3   OH233079   4.484   0.261  14.369 -0.3689  0.2569  0.3034
 3863TIP3    H133080   4.497   0.178  14.415 -1.0791 -1.5120 -2.4339
 3863TIP3    H233081   4.390   0.264  14.351  0.1361 -0.2814 -2.8690
 3864TIP3   OH233082   5.138   5.681   0.823 -0.6189 -0.4692  0.3469
 3864TIP3    H133083   5.171   5.594   0.803  2.6294  0.9032 -0.8999
 3864TIP3    H233084   5.124   5.722   0.738 -0.6820  0.6938  0.8862
 3865TIP3   OH233085   0.080   2.458   5.015  0.0012 -0.3753 -0.1205
 3865TIP3    H133086   0.068   2.535   5.069  1.6868  0.8166 -1.3409
 3865TIP3    H233087   0.110   2.390   5.075  1.8423  0.9065  0.4837
 3866TIP3   OH233088   4.421   4.590  12.539 -0.2979 -0.2128  0.2578
 3866TIP3    H133089   4.345   4.648  12.540 -0.0388  0.1305  0.1974
 3866TIP3    H233090   4.443   4.580  12.446  0.9850  1.3502  0.3686
 3867TIP3   OH233091   2.580   4.041  11.615  0.1112 -0.6560  0.3672
 3867TIP3    H133092   2.637   4.052  11.539 -0.4266 -0.0975  0.0333
 3867TIP3    H233093   2.537   4.126  11.625  0.1702 -0.7242  1.2953
 3868TIP3   OH233094   1.637   2.619   0.946  0.1971  0.2488  1.0744
 3868TIP3    H133095   1.560   2.573   0.980  0.1062  1.3325  2.4767
 3868TIP3    H233096   1.704   2.552   0.938 -0.6090 -0.5384  0.7846
 3869TIP3   OH233097   5.667   0.654   2.630 -0.3534 -0.0367  0.1399
 3869TIP3    H133098   5.684   0.585   2.695  2.1160  0.6653  0.3025
 3869TIP3    H233099   5.642   0.730   2.683 -0.2056  0.0099  0.1423
 3870TIP3   OH233100   1.971   0.495   2.230  0.1207  0.0176 -0.2295
 3870TIP3    H133101   2.018   0.579   2.227  2.0063 -0.9661  0.2509
 3870TIP3    H233102   1.952   0.481   2.323 -1.0386  0.3316 -0.4043
 3871TIP3   OH233103   5.013   1.795   0.697  0.3358  0.5198  0.5927
 3871TIP3    H133104   4.980   1.882   0.673  2.0088  0.7946 -1.0518
 3871TIP3    H233105   5.096   1.813   0.742 -0.7914 -0.1736  3.0625
 3872TIP3   OH233106   3.029   1.836  15.150 -0.7200  0.2596  0.1247
 3872TIP3    H133107   3.064   1.813  15.064 -1.4559  1.1779 -0.4369
 3872TIP3    H233108   2.937   1.858  15.133 -1.6663 -2.1665  1.5587
 3873TIP3   OH233109   3.161   2.253  11.024  0.2184 -0.4868  0.4296
 3873TIP3    H133110   3.106   2.313  10.972  0.4873 -1.3213 -0.8734
 3873TIP3    H233111   3.231   2.228  10.964  1.5588 -0.1288  1.7901
 3874TIP3   OH233112   3.279   0.763  11.313  0.1153  0.0335  0.3880
 3874TIP3    H133113   3.244   0.802  11.393 -0.3691 -1.0871  0.7506
 3874TIP3    H233114   3.373   0.756  11.329  0.3869  1.9504 -0.1050
 3875TIP3   OH233115   4.312   1.872  14.967 -0.0282 -0.6384 -0.1428
 3875TIP3    H133116   4.363   1.923  15.029  0.5769  0.6173 -1.6102
 3875TIP3    H233117   4.240   1.929  14.941 -0.3824 -1.2170 -0.4645
 3876TIP3   OH233118   6.577   5.456   4.462  0.5437 -0.5318 -0.4172
 3876TIP3    H133119   6.549   5.372   4.424  0.8686 -0.6979 -0.2897
 3876TIP3    H233120   6.516   5.520   4.425  0.2622 -0.8323 -0.4750
 3877TIP3   OH233121   0.540   4.109   3.861  0.7364 -0.1018 -0.5243
 3877TIP3    H133122   0.456   4.066   3.877  0.4502  0.3000 -0.9412
 3877TIP3    H233123   0.566   4.077   3.775  1.2033 -0.5306 -0.2284
 3878TIP3   OH233124   2.520   0.595   6.581  0.5430 -0.8470  0.5337
 3878TIP3    H133125   2.599   0.581   6.529  0.1375 -1.5246  0.0884
 3878TIP3    H233126   2.546   0.575   6.671  1.1508 -0.0336  0.5498
 3879TIP3   OH233127   0.122   3.601   2.047 -0.1074  0.2632  0.3246
 3879TIP3    H133128   0.121   3.531   2.112 -0.3503  0.2488  0.3055
 3879TIP3    H233129   0.204   3.647   2.062 -0.0767  0.1427  0.5186
 3880TIP3   OH233130   5.926   3.446  14.436 -0.0137  0.0685  0.3534
 3880TIP3    H133131   6.017   3.468  14.414 -0.5436  3.5843  1.0665
 3880TIP3    H233132   5.918   3.468  14.529 -1.7941  0.6450  0.0975
 3881TIP3   OH233133   0.566   0.389   1.856  0.0154  0.3622  0.0674
 3881TIP3    H133134   0.557   0.313   1.799  0.2187  0.0275  0.4713
 3881TIP3    H233135   0.660   0.405   1.859  0.3501 -1.3650  2.4904
 3882TIP3   OH233136   5.452   0.469   4.392 -0.4521 -0.6583 -0.3005
 3882TIP3    H133137   5.471   0.378   4.371  1.0625 -0.7010  1.0688
 3882TIP3    H233138   5.509   0.489   4.466 -0.0198  1.6866 -1.1737
 3883TIP3   OH233139   2.594   0.535  13.644  0.1869  0.1444  0.2682
 3883TIP3    H133140   2.589   0.441  13.662  1.5496 -0.1886 -0.9445
 3883TIP3    H233141   2.510   0.556  13.603 -0.9157 -0.1061  2.2442
 3884TIP3   OH233142   6.061   3.043   1.176 -0.1279  1.0498  0.1261
 3884TIP3    H133143   6.086   3.025   1.267  1.0105  2.2105  0.0717
 3884TIP3    H233144   6.105   3.125   1.155 -0.6531  0.9742 -1.3735
 3885TIP3   OH233145   2.552   2.781  11.639  0.0884  0.2897 -0.3990
 3885TIP3    H133146   2.520   2.865  11.672 -0.5933 -1.1016  2.8020
 3885TIP3    H233147   2.645   2.797  11.621 -0.1543  1.8513 -0.4311
 3886TIP3   OH233148   4.648   4.585   5.618 -0.0111 -0.2900 -0.4235
 3886TIP3    H133149   4.625   4.672   5.585 -2.6302 -0.5945  0.4000
 3886TIP3    H233150   4.673   4.600   5.709 -0.3592 -0.3805 -0.3123
 3887TIP3   OH233151   5.640   6.019   2.516  0.3735 -0.1019 -0.3296
 3887TIP3    H133152   5.545   6.024   2.507  0.1960 -0.9691  0.8202
 3887TIP3    H233153   5.673   6.096   2.470 -0.9768  1.0873  0.6157
 3888TIP3   OH233154   0.396   1.055   0.626  0.0863  0.2099  0.2535
 3888TIP3    H133155   0.468   1.015   0.675  0.0419 -1.4329 -0.9320
 3888TIP3    H233156   0.436   1.083   0.543 -0.6134 -0.7580 -0.4348
 3889TIP3   OH233157   2.566   4.156  13.663  0.4258  0.1737 -0.3649
 3889TIP3    H133158   2.608   4.217  13.602  0.6349  1.4028  0.9508
 3889TIP3    H233159   2.596   4.185  13.750 -2.7187  0.8098  0.6128
 3890TIP3   OH233160   1.180   2.263  11.038  0.7018  0.1453  0.3023
 3890TIP3    H133161   1.144   2.256  10.949 -1.0986 -2.0927  1.0880
 3890TIP3    H233162   1.155   2.350  11.067 -0.5508  0.1479 -0.6793
 3891TIP3   OH233163   0.048   2.641  15.798 -0.2851  0.1119  0.4570
 3891TIP3    H133164   0.129   2.631  15.748 -0.7422 -0.3206 -0.2160
 3891TIP3    H233165   0.052   2.731  15.831  1.4507 -0.5320  2.2207
 3892TIP3   OH233166   1.342   3.014   5.966 -0.7502 -0.5741 -0.1453
 3892TIP3    H133167   1.297   3.033   5.883 -1.2531 -1.4584 -0.0926
 3892TIP3    H233168   1.314   3.084   6.025 -1.1286 -0.4550 -0.4605
 3893TIP3   OH233169   1.343   2.328   4.824  0.1003 -0.5281  0.1824
 3893TIP3    H133170   1.412   2.261   4.819  1.8778  1.1891  0.5541
 3893TIP3    H233171   1.375   2.390   4.890 -0.5552  1.6677 -1.4527
 3894TIP3   OH233172   0.375   0.030  16.490  0.5827  0.3041 -0.1925
 3894TIP3    H133173   0.282   0.015  16.506  0.1641 -0.2934 -2.6799
 3894TIP3    H233174   0.411  -0.058  16.475  1.2850  0.6137 -0.3615
 3895TIP3   OH233175   5.837   4.157   3.559 -0.0967  0.7322  0.2446
 3895TIP3    H133176   5.903   4.154   3.490  0.5157 -0.4845  0.8525
 3895TIP3    H233177   5.828   4.250   3.579  1.4876  0.9323  0.1876
 3896TIP3   OH233178   3.703   4.385   4.246  0.1974 -0.5524 -0.2057
 3896TIP3    H133179   3.738   4.430   4.169  0.1810  1.0601  0.6912
 3896TIP3    H233180   3.772   4.324   4.271  0.4932 -0.5875 -1.0727
 3897TIP3   OH233181   1.463   1.659   1.083 -0.2802  0.2088  0.0080
 3897TIP3    H133182   1.473   1.753   1.073  0.8395  0.1603  0.5154
 3897TIP3    H233183   1.510   1.622   1.008 -2.4943  0.0528 -1.3982
 3898TIP3   OH233184   2.149   2.418  16.742 -0.2145 -0.2153  0.0984
 3898TIP3    H133185   2.090   2.462  16.803  0.4458  0.1717  0.4739
 3898TIP3    H233186   2.144   2.470  16.662  0.6496  0.6311  0.5760
 3899TIP3   OH233187   6.841   6.735   2.704 -0.0749  0.0984  0.7820
 3899TIP3    H133188   6.906   6.781   2.757 -0.2905  1.2027  0.1419
 3899TIP3    H233189   6.885   6.721   2.620 -0.2280 -0.3082  0.7705
 3900TIP3   OH233190   3.141   4.062   3.886  0.1379 -0.0193 -0.2323
 3900TIP3    H133191   3.154   4.072   3.980  0.0638 -1.3549 -0.0619
 3900TIP3    H233192   3.177   3.976   3.865 -1.6683 -0.6423 -1.0464
 3901TIP3   OH233193   4.148   3.860  16.043 -0.2935  0.3443 -0.1838
 3901TIP3    H133194   4.062   3.832  16.075  0.9058 -1.8122  1.3482
 3901TIP3    H233195   4.182   3.784  15.996  0.3821  1.5404 -1.7266
 3902TIP3   OH233196   2.083   5.778  15.919  0.6053 -0.2066  0.9814
 3902TIP3    H133197   2.105   5.820  15.836  1.0417 -0.6757  0.8514
 3902TIP3    H233198   2.077   5.685  15.897 -2.1130 -0.0835  0.8771
 3903TIP3   OH233199   1.816   2.298   4.882 -0.6388  0.3287 -0.0910
 3903TIP3    H133200   1.802   2.352   4.960  0.2534  0.1781  0.1764
 3903TIP3    H233201   1.868   2.354   4.823 -0.1006 -0.0676  0.0020
 3904TIP3   OH233202   1.934   5.822  15.379  0.4901  0.1397  0.1738
 3904TIP3    H133203   1.988   5.883  15.430  0.3216  0.3646  0.0887
 3904TIP3    H233204   1.919   5.867  15.296 -0.1642  0.2687  0.3500
 3905TIP3   OH233205   0.402   2.439  11.163  0.3146 -0.0739  0.0733
 3905TIP3    H133206   0.431   2.450  11.073 -1.0903  1.0198 -0.2862
 3905TIP3    H233207   0.355   2.356  11.164  1.1973 -0.5871  0.0599
 3906TIP3   OH233208   1.010   0.321  12.852 -0.4398  0.2732 -0.6828
 3906TIP3    H133209   0.921   0.285  12.856 -1.2795  2.3357  0.5574
 3906TIP3    H233210   1.051   0.294  12.934 -0.2974  0.2738 -0.7529
 3907TIP3   OH233211   5.777   4.866  14.401 -0.5445  0.5186 -0.4061
 3907TIP3    H133212   5.775   4.771  14.409  0.7318  0.5509  0.4546
 3907TIP3    H233213   5.788   4.882  14.307  1.0377 -0.2312 -0.3751
 3908TIP3   OH233214   6.256   4.879   2.628  0.1596  0.2660  0.5630
 3908TIP3    H133215   6.239   4.816   2.698  0.4168  1.2774  1.5703
 3908TIP3    H233216   6.245   4.965   2.670 -0.3750  0.9035 -0.8155
 3909TIP3   OH233217   5.317   2.400   4.784 -0.3096  0.1956  0.0954
 3909TIP3    H133218   5.291   2.489   4.808  0.8159  0.2461  1.2646
 3909TIP3    H233219   5.235   2.353   4.772 -0.9483  1.5792 -1.3872
 3910TIP3   OH233220   1.556   0.761   4.934 -0.3618 -0.5871 -0.9404
 3910TIP3    H133221   1.570   0.678   4.978  0.1294  0.2753  0.6367
 3910TIP3    H233222   1.643   0.788   4.904 -0.3706 -0.2268 -0.6519
 3911TIP3   OH233223   0.372   1.836  13.134  0.1414 -0.2541  0.3872
 3911TIP3    H133224   0.451   1.798  13.095 -0.1707  0.8588 -1.4604
 3911TIP3    H233225   0.400   1.922  13.164 -0.0350 -0.4349  1.0720
 3912TIP3   OH233226   2.425   0.670   0.629 -0.5294 -0.2272  0.2049
 3912TIP3    H133227   2.433   0.586   0.674  0.7452  0.2309  0.8722
 3912TIP3    H233228   2.515   0.701   0.618 -0.9384  0.7298 -0.6597
 3913TIP3   OH233229   0.273   1.463  12.088 -0.4416 -0.7315  0.1373
 3913TIP3    H133230   0.318   1.457  12.003 -0.9317 -1.7450 -0.0637
 3913TIP3    H233231   0.212   1.389  12.088  0.4124 -1.4843  1.8974
 3914TIP3   OH233232   3.648   5.408  16.122  0.7123  0.0594  0.1611
 3914TIP3    H133233   3.664   5.498  16.094  1.2678 -0.2947 -0.6962
 3914TIP3    H233234   3.553   5.398  16.116  0.5262  0.9241  1.3522
 3915TIP3   OH233235   1.272   0.241   1.264 -0.0031 -0.1030 -0.3450
 3915TIP3    H133236   1.246   0.262   1.354 -0.0795 -0.1387 -0.3583
 3915TIP3    H233237   1.206   0.284   1.209 -0.5453 -0.9105 -0.3523
 3916TIP3   OH233238   1.570   4.338   5.258 -0.2495  0.0550  0.1412
 3916TIP3    H133239   1.534   4.418   5.220 -0.2182 -0.0888 -0.1917
 3916TIP3    H233240   1.500   4.273   5.248 -0.5868  0.2384  1.1348
 3917TIP3   OH233241   4.033   4.102  16.434  0.4107 -0.5884  0.2160
 3917TIP3    H133242   4.085   4.043  16.489  0.4091  0.8037  1.7670
 3917TIP3    H233243   3.943   4.088  16.463  0.0262 -1.8910 -1.4324
 3918TIP3   OH233244   5.817   1.916  16.607 -0.5907 -0.0761 -0.0731
 3918TIP3    H133245   5.894   1.919  16.663 -1.8618  1.6434  1.7584
 3918TIP3    H233246   5.848   1.880  16.524  1.9858 -0.1292  0.8297
 3919TIP3   OH233247   5.490   0.067   3.455 -0.1982 -0.3562  0.1362
 3919TIP3    H133248   5.533  -0.019   3.453  0.3746 -0.0632 -1.6190
 3919TIP3    H233249   5.421   0.058   3.521 -1.1842 -2.6689 -1.1145
 3920TIP3   OH233250   5.527   2.144   3.537  0.3855 -0.0222  0.1789
 3920TIP3    H133251   5.550   2.064   3.490  0.6150 -1.5023  2.6616
 3920TIP3    H233252   5.600   2.204   3.519  1.5320 -1.3173  0.3860
 3921TIP3   OH233253   6.361   1.937  15.475 -0.2552 -0.0974  0.5232
 3921TIP3    H133254   6.332   1.971  15.560  1.5485  0.4877  0.9617
 3921TIP3    H233255   6.456   1.929  15.484 -0.1708 -1.3137 -1.0068
 3922TIP3   OH233256   6.018   4.118  16.094  1.6234  0.0853 -0.1098
 3922TIP3    H133257   6.112   4.121  16.074  2.3334 -0.0206  2.8573
 3922TIP3    H233258   6.008   4.176  16.169 -0.5899 -0.4386  0.0483
 3923TIP3   OH233259   6.407   0.359  11.392  0.3928 -0.3587 -0.7950
 3923TIP3    H133260   6.315   0.332  11.396  0.1002  0.6583  0.0123
 3923TIP3    H233261   6.441   0.320  11.312 -0.2301 -2.2909 -0.1620
 3924TIP3   OH233262   6.012   6.404   3.565  0.0518 -0.8886  0.1272
 3924TIP3    H133263   5.986   6.348   3.639 -0.8393  1.4035  1.6575
 3924TIP3    H233264   6.067   6.471   3.604 -1.7295  1.3102 -0.9419
 3925TIP3   OH233265   3.885   4.210   2.036  0.1416  0.2706  0.2750
 3925TIP3    H133266   3.829   4.271   1.988  1.1675  0.9298 -0.1156
 3925TIP3    H233267   3.944   4.175   1.969  0.1108 -0.5271  0.6516
 3926TIP3   OH233268   4.659   0.627  10.856 -0.1941  0.6261 -0.2657
 3926TIP3    H133269   4.636   0.671  10.774 -1.4574  0.4666 -0.0155
 3926TIP3    H233270   4.586   0.568  10.873  0.8199 -0.5672  0.1292
 3927TIP3   OH233271   5.317   4.624  13.450 -0.7228  0.3716 -0.5057
 3927TIP3    H133272   5.312   4.705  13.501  2.3786  0.3869 -0.0331
 3927TIP3    H233273   5.318   4.653  13.359 -0.6480  0.7763 -0.3788
 3928TIP3   OH233274   5.525   1.295   3.071 -0.1666 -0.4080 -0.2424
 3928TIP3    H133275   5.580   1.342   3.134  0.0609 -1.1105  0.0850
 3928TIP3    H233276   5.437   1.296   3.109  0.1104 -1.4581  0.4360
 3929TIP3   OH233277   2.452   0.032   5.926 -0.6374 -0.0777  0.0501
 3929TIP3    H133278   2.425  -0.043   5.873  0.3301  0.6982 -1.6239
 3929TIP3    H233279   2.386   0.038   5.995 -0.3032 -2.9414  0.7472
 3930TIP3   OH233280   3.780   0.444  12.555  0.3322 -0.1674 -0.1614
 3930TIP3    H133281   3.686   0.463  12.557  0.6957  1.8931  1.0460
 3930TIP3    H233282   3.814   0.500  12.485  1.0293  1.6245  1.4974
 3931TIP3   OH233283   4.458   4.595   1.976 -0.0115 -0.2116  0.4223
 3931TIP3    H133284   4.364   4.610   1.974 -0.5831 -3.2734  0.0664
 3931TIP3    H233285   4.494   4.659   1.914 -2.0436 -0.1382 -0.7572
 3932TIP3   OH233286   3.456   3.940   3.828  0.0272 -0.0143  0.8387
 3932TIP3    H133287   3.510   3.942   3.907 -2.2362  0.3773  2.4546
 3932TIP3    H233288   3.439   3.847   3.813 -0.8422 -0.0257  1.7895
 3933TIP3   OH233289   4.882   3.300  12.014 -0.3460 -0.1328 -0.2972
 3933TIP3    H133290   4.843   3.363  12.074  0.0233 -0.6666  0.5200
 3933TIP3    H233291   4.953   3.259  12.065  0.2705 -0.2700 -1.2385
 3934TIP3   OH233292   2.047   4.424   6.473 -0.4255 -0.2029  0.0952
 3934TIP3    H133293   2.084   4.509   6.494 -0.0755 -0.2590 -0.2684
 3934TIP3    H233294   2.099   4.393   6.398 -1.9586  0.2256 -1.2085
 3935TIP3   OH233295   3.864   3.973   5.801  0.1572  0.5004 -0.3092
 3935TIP3    H133296   3.911   3.909   5.746  1.8895  0.0136  1.5989
 3935TIP3    H233297   3.934   4.023   5.843 -1.1535  2.0588  0.0787
 3936TIP3   OH233298   0.556   1.961   2.512 -0.2081 -0.6007  0.1106
 3936TIP3    H133299   0.478   1.980   2.461 -0.1488  0.5129  0.4072
 3936TIP3    H233300   0.574   1.869   2.496 -0.0051 -0.2193 -2.1278
 3937TIP3   OH233301   6.781   2.812   3.662 -0.4367 -0.3793 -0.8560
 3937TIP3    H133302   6.841   2.786   3.732  1.8479 -0.1080 -2.6111
 3937TIP3    H233303   6.697   2.827   3.707  1.4131  1.9726  2.1945
 3938TIP3   OH233304   0.395   4.627  14.240 -0.3906  0.2616 -0.6017
 3938TIP3    H133305   0.468   4.631  14.178 -0.7233 -1.1338 -1.1234
 3938TIP3    H233306   0.435   4.646  14.325  0.5029 -0.0482 -0.9341
 3939TIP3   OH233307   6.614   3.825   1.568  0.8173 -0.5525 -0.7463
 3939TIP3    H133308   6.647   3.841   1.479 -0.4123 -2.1811 -1.5672
 3939TIP3    H233309   6.672   3.757   1.603  1.9236  0.7977  0.1297
 3940TIP3   OH233310   1.763   3.677  15.487  0.1434 -0.0191  0.1038
 3940TIP3    H133311   1.821   3.752  15.501 -0.1277  0.9077 -3.1466
 3940TIP3    H233312   1.675   3.711  15.500  0.0929 -0.3630  0.7433
 3941TIP3   OH233313   2.527   4.382   0.609  0.4785 -0.4484  0.4565
 3941TIP3    H133314   2.571   4.364   0.526 -0.0997 -0.1388  0.0776
 3941TIP3    H233315   2.597   4.413   0.667  0.9567 -1.0543  0.2168
 3942TIP3   OH233316   0.810   2.758   0.974  0.1406 -0.5826  0.1080
 3942TIP3    H133317   0.771   2.828   0.921  0.1920 -1.7461 -1.5172
 3942TIP3    H233318   0.905   2.774   0.968  0.2901 -1.9049 -1.9690
 3943TIP3   OH233319   2.922   2.706   0.876 -0.3337  0.2067  0.0506
 3943TIP3    H133320   3.004   2.659   0.861  0.2954  0.1226  3.1712
 3943TIP3    H233321   2.934   2.790   0.830  1.3212  0.0356  0.0945
 3944TIP3   OH233322   2.033   5.329   4.760 -0.5024 -0.7024 -0.5117
 3944TIP3    H133323   1.946   5.359   4.788 -0.1409  0.0849 -0.2275
 3944TIP3    H233324   2.031   5.336   4.665 -0.1853  0.9449 -0.4291
 3945TIP3   OH233325   1.399   2.298  12.673 -0.1189  0.0147 -0.5814
 3945TIP3    H133326   1.347   2.262  12.601  0.6064 -0.4327 -0.9045
 3945TIP3    H233327   1.459   2.228  12.696  0.6703  0.6733 -0.5618
 3946TIP3   OH233328   1.499   4.874  13.703 -0.2755 -0.2651 -0.3264
 3946TIP3    H133329   1.567   4.923  13.657  1.6482 -2.0218  0.4788
 3946TIP3    H233330   1.547   4.812  13.757 -2.5207 -2.6723 -0.8779
 3947TIP3   OH233331   3.236   6.029   5.050 -0.3872 -0.7296  0.0818
 3947TIP3    H133332   3.327   5.999   5.057 -0.8308 -2.5120 -1.0550
 3947TIP3    H233333   3.197   5.971   4.985 -2.5564 -0.5491  1.1343
 3948TIP3   OH233334   0.418   0.361  14.687 -0.2682 -0.3078  0.5097
 3948TIP3    H133335   0.338   0.352  14.635 -0.4248 -0.2650  0.7380
 3948TIP3    H233336   0.387   0.396  14.771  0.1313  1.0220  0.1399
 3949TIP3   OH233337   3.989   2.092  12.230 -0.3291  0.0403 -0.5796
 3949TIP3    H133338   4.002   2.117  12.138 -1.4983  0.4718 -0.6490
 3949TIP3    H233339   3.894   2.094  12.242 -0.1946 -0.0243  0.6390
 3950TIP3   OH233340   5.935   0.562  16.406  0.5340 -0.5074  0.0394
 3950TIP3    H133341   5.971   0.639  16.361  0.5338  0.9929  2.4272
 3950TIP3    H233342   5.861   0.535  16.352  2.0624 -0.4581 -2.2214
 3951TIP3   OH233343   5.625   3.451  13.518 -0.1512 -0.9405 -0.0835
 3951TIP3    H133344   5.659   3.433  13.430  2.3702  0.0990  0.5735
 3951TIP3    H233345   5.664   3.383  13.573  0.1299 -0.2865  0.5470
 3952TIP3   OH233346   1.214   0.228   1.834  0.2183  0.4514  0.5499
 3952TIP3    H133347   1.251   0.289   1.899 -1.3460  2.4025 -0.2655
 3952TIP3    H233348   1.240   0.264   1.749  0.8157 -1.1114  0.0353
 3953TIP3   OH233349   0.651   5.129  15.744 -0.7974 -0.0683  0.0803
 3953TIP3    H133350   0.654   5.069  15.670 -1.8081 -0.1304  0.0897
 3953TIP3    H233351   0.559   5.153  15.753 -0.6087  0.3682  0.9731
 3954TIP3   OH233352   5.594   4.943   4.094 -0.4987  0.7433 -0.3475
 3954TIP3    H133353   5.510   4.971   4.058 -1.3029  0.0239  0.8932
 3954TIP3    H233354   5.617   5.010   4.159 -0.5165  0.5325 -0.1206
 3955TIP3   OH233355   4.225   6.029  14.400  0.6362 -0.6283 -0.7148
 3955TIP3    H133356   4.212   5.935  14.390  2.4099 -0.9076 -0.6588
 3955TIP3    H233357   4.228   6.063  14.310 -2.3544 -0.1987 -0.7608
 3956TIP3   OH233358   0.822   3.590  13.509 -0.4610 -0.0241  0.6234
 3956TIP3    H133359   0.772   3.659  13.466 -0.7411 -0.8713 -0.4495
 3956TIP3    H233360   0.848   3.531  13.438  0.4281 -0.6166  1.4176
 3957TIP3   OH233361   2.611   4.407  12.117  0.1481  0.7520  0.0706
 3957TIP3    H133362   2.590   4.394  12.025  1.4224 -0.9223 -0.0235
 3957TIP3    H233363   2.625   4.502  12.125  0.3005  0.8840 -1.5126
 3958TIP3   OH233364   6.165   2.082  15.102 -0.1717  0.2037  0.4207
 3958TIP3    H133365   6.219   2.024  15.156  0.8537 -0.4765 -1.2634
 3958TIP3    H233366   6.093   2.109  15.160  0.4661 -1.0856  1.8747
 3959TIP3   OH233367   5.518   3.390  15.956  0.2598  0.4377 -0.5974
 3959TIP3    H133368   5.483   3.476  15.982  0.0127  0.2335 -0.2395
 3959TIP3    H233369   5.454   3.356  15.894  0.4574  0.5947 -0.8894
 3960TIP3   OH233370   2.387   6.335   3.158  0.1271  0.0362  0.2148
 3960TIP3    H133371   2.378   6.386   3.078  0.3498  0.8000  0.6577
 3960TIP3    H233372   2.322   6.373   3.217 -2.3910 -2.6549 -0.6203
 3961TIP3   OH233373   3.099   0.228  14.297 -0.2548  0.5720 -0.3403
 3961TIP3    H133374   3.005   0.245  14.305 -0.1183  0.6968  1.6279
 3961TIP3    H233375   3.138   0.312  14.275 -0.5881  0.5591 -0.9739
 3962TIP3   OH233376   4.040   3.982   5.402  0.4620 -0.4255 -0.5416
 3962TIP3    H133377   4.013   3.925   5.475 -0.7168  2.1895  1.1896
 3962TIP3    H233378   3.959   4.010   5.362  1.0896 -1.2078 -2.4861
 3963TIP3   OH233379   2.593   0.998   1.730 -0.2286  1.0189  0.1414
 3963TIP3    H133380   2.671   1.048   1.704 -0.1782  2.2705  2.4211
 3963TIP3    H233381   2.621   0.948   1.807 -0.7733 -1.3010 -1.0462
 3964TIP3   OH233382   1.224   1.960  14.581  0.0644 -0.4015 -0.5034
 3964TIP3    H133383   1.273   2.037  14.609 -1.9399  0.2608  1.4906
 3964TIP3    H233384   1.291   1.899  14.549  2.1309  0.5595  1.6942
 3965TIP3   OH233385   3.187   1.236   3.302  0.1111  0.7225  0.0107
 3965TIP3    H133386   3.215   1.324   3.276 -0.0720  0.6427 -0.4671
 3965TIP3    H233387   3.186   1.186   3.220  1.4610 -0.0778  0.4350
 3966TIP3   OH233388   5.917   0.174  11.312  0.3842 -0.2797 -0.3276
 3966TIP3    H133389   5.896   0.265  11.336 -1.8122 -0.9212  0.3974
 3966TIP3    H233390   5.863   0.157  11.235  0.4647 -1.0924 -0.2097
 3967TIP3   OH233391   5.150   3.628  16.096 -0.6105  0.2507 -0.6672
 3967TIP3    H133392   5.064   3.667  16.112 -0.2143  0.5099  1.0879
 3967TIP3    H233393   5.136   3.534  16.107 -0.6175  0.3185 -0.0787
 3968TIP3   OH233394   3.723   4.861  13.088  0.6415  0.1662 -0.3850
 3968TIP3    H133395   3.744   4.867  12.994  2.1508  1.6055  0.0044
 3968TIP3    H233396   3.682   4.775  13.097 -1.0095  0.5973 -2.6273
 3969TIP3   OH233397   3.486   3.053   5.512  0.5678 -0.5277  0.0482
 3969TIP3    H133398   3.578   3.074   5.496  0.3603 -0.9504 -1.9806
 3969TIP3    H233399   3.442   3.074   5.430 -1.4758  1.2832  1.4916
 3970TIP3   OH233400   3.306   2.246  11.262  0.5895  0.5236  0.5411
 3970TIP3    H133401   3.241   2.269  11.196  0.3730  0.9330  0.8910
 3970TIP3    H233402   3.332   2.156  11.240 -3.6339 -1.6618  3.1201
 3971TIP3   OH233403   5.900   6.064  11.329  0.1333 -0.2880 -0.3094
 3971TIP3    H133404   5.984   6.105  11.347  0.5795 -1.2292 -0.2182
 3971TIP3    H233405   5.837   6.116  11.380  0.8365 -0.4053  0.7074
 3972TIP3   OH233406   1.980   0.466  14.385  1.0505  0.3511 -0.2651
 3972TIP3    H133407   1.989   0.400  14.455 -1.4162 -0.3465 -0.5016
 3972TIP3    H233408   1.927   0.422  14.319 -1.3245  2.7801 -0.1092
 3973TIP3   OH233409   2.361   3.878   4.596  0.2956 -0.1024  0.4949
 3973TIP3    H133410   2.430   3.867   4.661 -0.7340 -1.8884  1.3918
 3973TIP3    H233411   2.291   3.820   4.627 -0.2350 -1.0499 -2.2112
 3974TIP3   OH233412   5.713   2.298   1.302 -0.5160  0.2595 -0.5994
 3974TIP3    H133413   5.622   2.300   1.272 -0.7305  0.6150  0.0496
 3974TIP3    H233414   5.707   2.275   1.395  0.0410  0.5726 -0.4830
 3975TIP3   OH233415   3.356   4.547   3.082 -0.0292  0.1857 -0.1102
 3975TIP3    H133416   3.274   4.544   3.133 -1.1149 -1.1261 -1.8263
 3975TIP3    H233417   3.423   4.520   3.145 -1.3687 -1.7401  0.6071
 3976TIP3   OH233418   6.317   0.731  15.592 -0.3008  0.3712  0.6678
 3976TIP3    H133419   6.361   0.697  15.514  1.9443  0.0961  1.9740
 3976TIP3    H233420   6.387   0.743  15.655 -2.2898 -1.7384  3.5269
 3977TIP3   OH233421   3.082   3.264  14.386  0.1604  0.3949 -0.4447
 3977TIP3    H133422   3.047   3.353  14.396  1.3724  0.7968  0.5845
 3977TIP3    H233423   3.089   3.252  14.291 -1.2228  0.8953 -0.6315
 3978TIP3   OH233424   0.707   2.809  15.431 -0.5920 -0.1718 -0.2880
 3978TIP3    H133425   0.780   2.781  15.377 -2.2066 -1.5285 -1.9164
 3978TIP3    H233426   0.747   2.853  15.506  1.7934  0.1840 -1.6959
 3979TIP3   OH233427   5.223   3.017  12.787  0.4861  0.2176 -0.2353
 3979TIP3    H133428   5.192   2.934  12.751  0.9592 -0.4030  0.7403
 3979TIP3    H233429   5.151   3.079  12.772 -0.1943 -0.5690 -0.2636
 3980TIP3   OH233430   4.394   0.749  13.147 -0.1156 -0.2911  0.3261
 3980TIP3    H133431   4.475   0.801  13.138  0.1294 -0.6054  0.6845
 3980TIP3    H233432   4.407   0.675  13.087  0.9495 -1.6796  2.1716
 3981TIP3   OH233433   0.678   2.289  16.164  0.3176 -0.1962 -0.4230
 3981TIP3    H133434   0.741   2.220  16.142 -1.3108 -1.6328 -0.8160
 3981TIP3    H233435   0.732   2.363  16.191  2.1915 -0.9529 -1.8935
 3982TIP3   OH233436   4.169   2.056   2.468 -0.2478  0.1145 -0.3511
 3982TIP3    H133437   4.130   2.080   2.552 -0.6313  0.7776 -0.7128
 3982TIP3    H233438   4.199   1.966   2.480 -0.4066  0.1653  0.4561
 3983TIP3   OH233439   0.204   1.980  15.049  0.0504  0.5545 -0.4560
 3983TIP3    H133440   0.171   1.904  15.096 -0.2124  0.0119 -1.4866
 3983TIP3    H233441   0.175   2.055  15.101 -1.7618  0.0462 -0.6600
 3984TIP3   OH233442   0.626   2.825  11.738  0.2221 -0.5152 -0.1203
 3984TIP3    H133443   0.672   2.786  11.813  0.3030  0.8098  0.5399
 3984TIP3    H233444   0.691   2.827  11.669  0.6918 -0.1418  0.3202
 3985TIP3   OH233445   1.030   4.740  13.845  0.3167 -0.1017 -0.2221
 3985TIP3    H133446   0.984   4.664  13.809 -2.0344  1.2509 -0.2975
 3985TIP3    H233447   1.080   4.774  13.771  0.0528 -0.6095 -0.6438
 3986TIP3   OH233448   0.296   2.174  11.234 -0.4918 -0.1560 -0.0236
 3986TIP3    H133449   0.338   2.091  11.210 -0.3627  0.0622 -0.5557
 3986TIP3    H233450   0.260   2.158  11.321  0.2689 -0.5101  0.2388
 3987TIP3   OH233451   6.250   5.436   2.461  0.2322  0.0846  0.0981
 3987TIP3    H133452   6.203   5.369   2.511  1.4213 -1.1059 -0.3286
 3987TIP3    H233453   6.183   5.476   2.406 -0.4519 -0.9451  0.1593
 3988TIP3   OH233454   1.247   1.120  15.800  0.2600  0.9429 -0.1063
 3988TIP3    H133455   1.284   1.052  15.743  0.4338  0.3468  0.7016
 3988TIP3    H233456   1.315   1.139  15.864 -0.8223 -0.2936  1.5057
 3989TIP3   OH233457   3.644   6.476   3.063 -0.1423 -0.3288 -0.0573
 3989TIP3    H133458   3.549   6.484   3.063 -0.1666 -0.5892 -0.2903
 3989TIP3    H233459   3.671   6.507   2.976 -0.0376 -0.4834 -0.0817
 3990TIP3   OH233460   3.010   2.417  10.859  0.8695 -0.0118 -0.1308
 3990TIP3    H133461   3.054   2.476  10.797  1.9113 -2.7621 -2.2444
 3990TIP3    H233462   2.941   2.375  10.808 -0.5099  0.0467  1.5832
 3991TIP3   OH233463   0.460   5.582  15.835  0.3304 -0.0700 -0.0174
 3991TIP3    H133464   0.409   5.553  15.759  2.1376 -0.7882 -1.0352
 3991TIP3    H233465   0.436   5.520  15.904 -2.0449  1.1556  0.3601
 3992TIP3   OH233466   3.569   3.199  14.837 -0.6962  0.9101 -0.3137
 3992TIP3    H133467   3.635   3.254  14.879 -0.2416  0.6630 -0.7017
 3992TIP3    H233468   3.617   3.123  14.804 -0.8726  1.4844 -2.0367
 3993TIP3   OH233469   1.858   3.044   0.188  0.6735  0.0968 -0.0959
 3993TIP3    H133470   1.927   2.980   0.205 -0.1293 -0.2467  2.4226
 3993TIP3    H233471   1.815   3.012   0.109  1.8610 -1.0477 -0.3208
 3994TIP3   OH233472   5.009   0.007  12.467  0.2035 -0.1067  0.1865
 3994TIP3    H133473   5.104  -0.002  12.475  0.4550  1.4125 -0.7494
 3994TIP3    H233474   4.997   0.086  12.415 -1.5916 -0.1268  0.5235
 3995TIP3   OH233475   3.294   0.423  13.928 -0.0891 -0.1977  0.1932
 3995TIP3    H133476   3.381   0.397  13.958  0.1802  1.0240  0.5398
 3995TIP3    H233477   3.304   0.437  13.834  0.4078  1.0930  0.4207
 3996TIP3   OH233478   3.824   4.735  11.856  0.0828 -0.2130 -0.0362
 3996TIP3    H133479   3.792   4.659  11.806 -0.6861 -0.2862  0.5456
 3996TIP3    H233480   3.746   4.790  11.867  0.2324 -0.1956  1.0648
 3997TIP3   OH233481   5.751   5.444  16.679 -0.3090 -0.2513 -0.1492
 3997TIP3    H133482   5.760   5.350  16.659 -0.5110 -0.3103  0.0301
 3997TIP3    H233483   5.676   5.472  16.626 -0.8278 -0.4009  0.4852
 3998TIP3   OH233484   2.634   2.609   2.701  0.0942 -0.1334 -0.0356
 3998TIP3    H133485   2.565   2.676   2.704 -0.3164 -0.5678  0.9878
 3998TIP3    H233486   2.669   2.614   2.613  0.6713  2.0329  0.2551
 3999TIP3   OH233487   5.734   0.107  11.066 -0.1660 -0.4103 -0.0298
 3999TIP3    H133488   5.688   0.136  10.987  0.1469 -0.0019 -0.0648
 3999TIP3    H233489   5.736   0.012  11.059 -1.3975 -0.4664  0.1887
 4000TIP3   OH233490   1.587   5.217   4.694 -0.1354 -0.4435  0.0680
 4000TIP3    H133491   1.593   5.248   4.604  0.2472  0.7441  0.4863
 4000TIP3    H233492   1.651   5.270   4.742  0.2768 -1.6477  0.8868
 4001TIP3   OH233493   5.223   2.516  11.764  0.5633  0.1418  0.1739
 4001TIP3    H133494   5.212   2.457  11.689 -0.1958 -0.3506  0.6488
 4001TIP3    H233495   5.240   2.457  11.838  1.8438  0.6480  0.3098
 4002TIP3   OH233496   6.159   4.614  13.431  0.0724  0.0714  0.2605
 4002TIP3    H133497   6.184   4.533  13.387 -1.8325  0.2257 -1.2507
 4002TIP3    H233498   6.209   4.682  13.387  1.3172 -0.1934  1.2133
 4003TIP3   OH233499   6.072   2.675   5.800 -0.5973 -0.4217  0.0539
 4003TIP3    H133500   6.120   2.629   5.869 -1.5668 -1.4631  0.0442
 4003TIP3    H233501   6.101   2.766   5.809  0.3901 -0.7915  0.8870
 4004TIP3   OH233502   1.502   5.749   3.115  0.4247 -0.8818 -0.3377
 4004TIP3    H133503   1.549   5.673   3.082  0.8067 -0.2084 -1.4275
 4004TIP3    H233504   1.418   5.747   3.070  0.4598 -0.6325 -0.4176
 4005TIP3   OH233505   6.715   4.757  14.384 -0.8457 -0.0167  0.0582
 4005TIP3    H133506   6.677   4.795  14.464  0.9158  0.3711  0.7611
 4005TIP3    H233507   6.800   4.723  14.412  1.1018  2.5637 -2.1001
 4006TIP3   OH233508   0.073   2.428  10.792 -0.0029  0.3138 -0.0640
 4006TIP3    H133509   0.088   2.407  10.700  0.2921 -1.3635  0.3482
 4006TIP3    H233510   0.093   2.522  10.798  0.7786  0.2716 -1.5342
 4007TIP3   OH233511   1.062   5.423   0.885 -0.4691  0.1903 -0.2055
 4007TIP3    H133512   1.132   5.455   0.942 -0.2125  0.6569 -0.7778
 4007TIP3    H233513   1.002   5.377   0.945 -1.9168  3.3635  1.0311
 4008TIP3   OH233514   6.561   4.961   5.375  0.4017 -0.2292 -0.0361
 4008TIP3    H133515   6.552   5.027   5.306 -0.0995 -0.9008 -0.6276
 4008TIP3    H233516   6.550   5.010   5.456  1.1779  0.6062 -0.4202
 4009TIP3   OH233517   3.850   0.954   3.726 -0.3225  0.0716 -0.0887
 4009TIP3    H133518   3.884   0.981   3.641 -0.3510  2.2304  0.5248
 4009TIP3    H233519   3.800   1.029   3.757 -1.3149 -1.1073  1.3323
 4010TIP3   OH233520   6.258   0.158   3.587  0.0436 -0.0391  0.1792
 4010TIP3    H133521   6.168   0.163   3.618 -0.2652  1.1260 -0.8167
 4010TIP3    H233522   6.264   0.075   3.540 -1.2418  0.9385 -1.8265
 4011TIP3   OH233523   1.349   2.251  14.293  0.3760  0.1478  0.0633
 4011TIP3    H133524   1.413   2.208  14.236  1.3746  1.1300  0.3909
 4011TIP3    H233525   1.343   2.341  14.258 -0.6967  0.1284  0.1576
 4012TIP3   OH233526   6.610   5.474   0.098  0.2345 -0.3172  0.0395
 4012TIP3    H133527   6.525   5.515   0.114  0.4362 -0.0937  0.5724
 4012TIP3    H233528   6.603   5.387   0.138  0.1645 -0.4077 -0.1656
 4013TIP3   OH233529   2.717   5.922   2.879  0.0319 -0.1657 -0.2066
 4013TIP3    H133530   2.660   5.911   2.803 -0.8142 -1.4829  0.5817
 4013TIP3    H233531   2.797   5.960   2.844 -0.8351  0.4913 -1.5417
 4014TIP3   OH233532   0.044   2.283  14.578  0.8788  0.2776 -0.1254
 4014TIP3    H133533   0.082   2.316  14.660  0.8385 -0.5382  0.2268
 4014TIP3    H233534  -0.049   2.303  14.586  1.2383  2.7001 -1.1895
 4015TIP3   OH233535   2.909   2.835   2.583  0.5356 -0.0231 -0.3155
 4015TIP3    H133536   2.849   2.845   2.657 -0.0624 -0.3128 -0.7559
 4015TIP3    H233537   2.959   2.755   2.602 -0.1584 -0.5308 -0.5946
 4016TIP3   OH233538   6.517   0.999   3.946 -0.5420 -0.0264 -0.2311
 4016TIP3    H133539   6.551   0.912   3.968  0.6549  0.5634  0.3235
 4016TIP3    H233540   6.559   1.020   3.863 -0.8506  0.0254 -0.3763
 4017TIP3   OH233541   4.956   6.473  13.541 -0.2787  0.2009 -0.5096
 4017TIP3    H133542   4.907   6.448  13.619  0.4540  0.6089  0.1005
 4017TIP3    H233543   4.900   6.447  13.468 -1.5520  0.9693  0.1617
 4018TIP3   OH233544   5.209   6.157  16.613 -0.0624  0.8229  0.0765
 4018TIP3    H133545   5.132   6.211  16.594 -0.2679  0.5926  0.2545
 4018TIP3    H233546   5.176   6.087  16.669 -0.3279 -0.9487 -2.1317
 4019TIP3   OH233547   1.961   1.636  16.306  0.4845  0.4226  0.1138
 4019TIP3    H133548   1.950   1.647  16.400 -0.9435  2.2010 -0.2071
 4019TIP3    H233549   1.991   1.722  16.275  0.2834  0.0672 -1.1379
 4020TIP3   OH233550   1.102   3.965  15.586  0.2814  0.2987 -0.3197
 4020TIP3    H133551   1.176   3.950  15.645  0.2840  0.7663 -0.2037
 4020TIP3    H233552   1.060   4.044  15.619 -0.4139 -0.0975 -0.2460
 4021TIP3   OH233553   6.221   0.972   3.885  0.7057 -0.0569 -0.0557
 4021TIP3    H133554   6.307   1.001   3.914  0.1381  0.1755  1.5066
 4021TIP3    H233555   6.172   1.053   3.871  0.4098 -0.1956  0.1583
 4022TIP3   OH233556   3.345   3.434  16.856 -0.3608  0.5036  0.3207
 4022TIP3    H133557   3.272   3.381  16.823  0.2243 -0.8971  1.1800
 4022TIP3    H233558   3.403   3.371  16.899  1.7768  1.4378 -0.9992
 4023TIP3   OH233559   4.054   2.359   5.055  0.6801 -0.2289  0.2615
 4023TIP3    H133560   4.120   2.428   5.053  0.4003  0.0594  0.7345
 4023TIP3    H233561   4.091   2.292   5.113  0.3259  0.1709  0.9485
 4024TIP3   OH233562   4.476   5.036  12.174 -0.0477 -0.0353  0.5798
 4024TIP3    H133563   4.399   5.041  12.118 -0.4380 -1.0777  1.0054
 4024TIP3    H233564   4.442   5.037  12.263  0.5457  1.1771  0.8222
 4025TIP3   OH233565   4.117   0.266  16.931 -0.7442  0.8542  0.2537
 4025TIP3    H133566   4.119   0.357  16.961  0.1528  0.1348  2.6990
 4025TIP3    H233567   4.111   0.215  17.012  1.8619 -1.3219 -0.7703
 4026TIP3   OH233568   0.830   1.336  15.006  0.3092 -0.4411  0.2155
 4026TIP3    H133569   0.748   1.318  14.961  0.3826  1.3146 -0.6978
 4026TIP3    H233570   0.808   1.329  15.099 -0.7797 -0.3823 -0.0265
 4027TIP3   OH233571   1.497   4.517  14.397 -0.1765  0.2502 -0.0321
 4027TIP3    H133572   1.567   4.564  14.350  0.9642 -1.1736  0.1706
 4027TIP3    H233573   1.512   4.538  14.489 -0.1939  0.1586 -0.0093
 4028TIP3   OH233574   5.327   5.658  16.335  0.2305 -0.5254  0.0895
 4028TIP3    H133575   5.238   5.636  16.307 -0.9561  1.1030  2.2537
 4028TIP3    H233576   5.315   5.722  16.404  3.1811  0.7833 -0.4554
 4029TIP3   OH233577   6.644   1.295   3.623  0.7074  0.3663 -0.0127
 4029TIP3    H133578   6.722   1.317   3.674  0.4628  0.2857  0.4044
 4029TIP3    H233579   6.616   1.378   3.586 -0.8724  1.0476  2.4879
 4030TIP3   OH233580   0.423   1.192  11.461  0.1251  0.1716  0.2639
 4030TIP3    H133581   0.346   1.160  11.413  0.0083  0.4404  0.2714
 4030TIP3    H233582   0.400   1.282  11.486  0.7673  0.5457 -0.4550
 4031TIP3   OH233583   3.239   4.317   3.820 -0.0308  0.2460  0.3467
 4031TIP3    H133584   3.220   4.225   3.842  2.0783 -0.1525  0.7168
 4031TIP3    H233585   3.161   4.347   3.774 -1.1833 -1.4299  1.0841
 4032TIP3   OH233586   4.863   0.961   5.612 -0.0216  0.2343  0.1076
 4032TIP3    H133587   4.882   0.909   5.690  0.2050 -1.0812 -0.7752
 4032TIP3    H233588   4.940   1.016   5.601  1.0444 -1.2934 -0.4879
 4033TIP3   OH233589   5.952   0.876  14.149  0.6727  0.2238  0.0096
 4033TIP3    H133590   5.997   0.959  14.165 -0.4446  0.6362  1.1421
 4033TIP3    H233591   5.923   0.882  14.057  0.5556  1.1078  0.0929
 4034TIP3   OH233592   1.488   2.884   1.031 -0.0896  0.8651  0.0441
 4034TIP3    H133593   1.424   2.813   1.032  0.5338  0.2873 -0.0741
 4034TIP3    H233594   1.439   2.962   1.057 -0.7599  0.3719  0.2723
 4035TIP3   OH233595   3.067   2.340  14.690  0.8799 -0.4664 -0.1064
 4035TIP3    H133596   3.126   2.412  14.666  0.5081 -0.0573  0.1775
 4035TIP3    H233597   3.108   2.300  14.766  0.2490  0.5270  0.7916
 4036TIP3   OH233598   5.927   1.622   4.626 -0.2545 -0.4083  0.9777
 4036TIP3    H133599   5.990   1.692   4.607  0.1443 -1.0093 -0.0005
 4036TIP3    H233600   5.905   1.634   4.719  0.7682  0.2398  1.1541
 4037TIP3   OH233601   6.732   1.353  16.650 -0.3934  0.7506 -0.1120
 4037TIP3    H133602   6.686   1.375  16.731  0.8304 -0.9855  1.1258
 4037TIP3    H233603   6.821   1.331  16.679  0.2617  0.7449 -2.0203
 4038TIP3   OH233604   4.931   4.818  12.601 -0.4082 -0.2546  0.3485
 4038TIP3    H133605   4.841   4.848  12.615 -0.6947 -0.7405 -0.3926
 4038TIP3    H233606   4.923   4.745  12.539  0.2948 -1.6699  1.8568
 4039TIP3   OH233607   5.738   2.185   1.561 -0.1881 -0.1312 -0.7427
 4039TIP3    H133608   5.782   2.180   1.646 -0.4411 -0.3001 -0.6201
 4039TIP3    H233609   5.662   2.128   1.570 -0.4083  0.1245 -0.9683
 4040TIP3   OH233610   6.140   0.800   3.458  0.0688 -0.4939 -0.4705
 4040TIP3    H133611   6.136   0.884   3.414 -0.8875  0.5994  1.5567
 4040TIP3    H233612   6.128   0.735   3.388 -0.0601  1.0580 -1.9490
 4041TIP3   OH233613   0.593   3.152   1.823 -0.0256 -0.0475 -0.3797
 4041TIP3    H133614   0.503   3.123   1.837 -1.2815  2.2629 -2.7403
 4041TIP3    H233615   0.595   3.241   1.860  1.1478  0.1035 -0.7765
 4042TIP3   OH233616   2.802   4.199  16.587 -0.0497 -0.8923  0.3884
 4042TIP3    H133617   2.734   4.181  16.522 -0.4806 -0.3927  0.7016
 4042TIP3    H233618   2.802   4.123  16.644 -0.5735 -0.7458  0.5869
 4043TIP3   OH233619   4.345   4.266  12.329  0.0547  0.0417  0.3467
 4043TIP3    H133620   4.383   4.187  12.291  1.1954  0.0400  1.4378
 4043TIP3    H233621   4.264   4.280  12.280  0.9981 -0.4814 -1.4361
 4044TIP3   OH233622   6.040   0.721  15.400 -0.1890  0.4598 -0.2912
 4044TIP3    H133623   6.033   0.804  15.352  1.2523  0.2994 -0.8134
 4044TIP3    H233624   5.996   0.657  15.343 -0.2354  0.6379 -0.4581
 4045TIP3   OH233625   1.520   5.926   3.675  0.2725  0.3865 -0.0215
 4045TIP3    H133626   1.547   6.018   3.679  0.5046  0.2918  1.5480
 4045TIP3    H233627   1.601   5.877   3.690 -0.0646 -0.0183  0.5215
 4046TIP3   OH233628   2.705   6.715   0.143  0.0817  0.2471  0.3609
 4046TIP3    H133629   2.735   6.655   0.210 -1.2724 -0.9856 -0.1010
 4046TIP3    H233630   2.758   6.694   0.066  1.3821  1.4195  0.8834
 4047TIP3   OH233631   2.240   0.119   4.222 -0.0683  0.5834 -0.1956
 4047TIP3    H133632   2.325   0.097   4.259 -0.1988  0.6676  0.1565
 4047TIP3    H233633   2.180   0.056   4.262 -0.5414  1.8924  1.2434
 4048TIP3   OH233634   0.525   4.632   2.750 -0.8084 -0.3194  0.1719
 4048TIP3    H133635   0.441   4.633   2.704  0.1675  0.9687 -1.7157
 4048TIP3    H233636   0.504   4.656   2.840 -2.4577 -0.0583 -0.2540
 4049TIP3   OH233637   6.088   5.655   6.420 -0.3855 -0.0969 -0.5745
 4049TIP3    H133638   6.063   5.651   6.512 -1.1426 -2.3092 -0.8074
 4049TIP3    H233639   6.042   5.731   6.385  0.1844  0.9723  0.9266
 4050TIP3   OH233640   2.113   2.649   3.457  0.0065  0.3287 -0.4181
 4050TIP3    H133641   2.158   2.718   3.409  1.3411  1.0470  1.7585
 4050TIP3    H233642   2.029   2.639   3.411  1.4395  0.4281 -3.3063
 4051TIP3   OH233643   1.275   2.547   3.349 -0.3814 -0.6659  0.7075
 4051TIP3    H133644   1.338   2.584   3.287 -0.3367 -1.1140  0.4810
 4051TIP3    H233645   1.313   2.463   3.375 -0.9852 -1.0507  0.3931
 4052TIP3   OH233646   3.971   2.024  14.445 -0.1110  0.1544 -0.1910
 4052TIP3    H133647   4.012   1.964  14.508 -3.0409 -1.7525  0.0798
 4052TIP3    H233648   3.935   1.967  14.377 -0.1512  1.9086 -1.7200
 4053TIP3   OH233649   2.839   1.711   1.071 -0.1323  0.1126  0.0957
 4053TIP3    H133650   2.773   1.779   1.085  1.2179  1.3195  0.9184
 4053TIP3    H233651   2.840   1.698   0.976 -0.8487  0.8055 -0.0235
 4054TIP3   OH233652   4.634   2.852  14.519  0.2157  0.1055 -0.1734
 4054TIP3    H133653   4.722   2.889  14.528  0.1839  0.2058 -0.2801
 4054TIP3    H233654   4.587   2.914  14.463  0.0120  0.1647  0.0605
 4055TIP3   OH233655   6.250   0.007   6.247  0.1015 -0.5244  0.0894
 4055TIP3    H133656   6.297   0.004   6.330  0.4636 -0.0807 -0.0909
 4055TIP3    H233657   6.222   0.099   6.239 -1.1833 -0.8744  0.4019
 4056TIP3   OH233658   0.892   5.710   3.514 -0.3024  0.3112 -0.5464
 4056TIP3    H133659   0.912   5.629   3.468 -1.0134  0.0072 -0.3433
 4056TIP3    H233660   0.976   5.756   3.521  0.4664 -1.1882  0.8480
 4057TIP3   OH233661   1.561   4.415   3.791 -0.1497 -0.0226 -0.1324
 4057TIP3    H133662   1.490   4.397   3.730  1.0113 -0.6583 -1.3622
 4057TIP3    H233663   1.586   4.329   3.824 -1.5168  0.4000  2.1980
 4058TIP3   OH233664   0.709   6.525   0.842 -0.0938  0.3220 -0.1582
 4058TIP3    H133665   0.747   6.519   0.754  3.0220  0.8736  1.0360
 4058TIP3    H233666   0.718   6.436   0.878 -1.5869  0.0360 -0.4105
 4059TIP3   OH233667   3.267   6.359   2.685 -0.4744 -0.0739  0.4279
 4059TIP3    H133668   3.281   6.287   2.624  1.0232 -0.7607  1.5116
 4059TIP3    H233669   3.278   6.320   2.772 -3.7929  0.5895  1.2802
 4060TIP3   OH233670   2.844   3.618   5.547  0.0784  0.1645  0.0200
 4060TIP3    H133671   2.754   3.609   5.517 -0.9263  1.1881  2.4947
 4060TIP3    H233672   2.876   3.697   5.503 -0.8574  0.8167  0.4706
 4061TIP3   OH233673   6.403   5.348  13.011  0.4834  0.1777 -0.2337
 4061TIP3    H133674   6.466   5.315  13.075 -0.0831 -1.4207 -0.4468
 4061TIP3    H233675   6.347   5.407  13.061  1.0773  0.2519  0.3597
 4062TIP3   OH233676   2.335   6.113   0.034 -0.4939  0.6170 -0.6754
 4062TIP3    H133677   2.350   6.022   0.007  0.2288  1.0174 -1.7002
 4062TIP3    H233678   2.383   6.122   0.117 -1.6406 -0.2763  0.1110
 4063TIP3   OH233679   2.627   1.182   5.088 -0.5824  0.3641 -0.1154
 4063TIP3    H133680   2.688   1.204   5.159 -0.8982  0.7220  0.0524
 4063TIP3    H233681   2.625   1.260   5.033  0.0752 -0.1142 -0.8234
 4064TIP3   OH233682   2.870   1.981   0.148  0.3119 -0.4193 -0.1334
 4064TIP3    H133683   2.944   1.923   0.129  0.4929 -0.2478  0.0436
 4064TIP3    H233684   2.879   2.002   0.241  0.8826  0.7600 -0.4291
 4065TIP3   OH233685   6.601   5.007  11.662 -0.2340  0.0497 -0.5092
 4065TIP3    H133686   6.656   4.960  11.599 -1.6618 -3.0270  0.3568
 4065TIP3    H233687   6.516   5.015  11.619 -0.2451  1.2491 -0.3160
 4066TIP3   OH233688   3.054   5.600  15.125 -0.8983  0.0871  0.1410
 4066TIP3    H133689   3.146   5.618  15.109 -0.5646 -1.0968  0.6160
 4066TIP3    H233690   3.049   5.577  15.218 -1.3984 -1.3409 -0.2037
 4067TIP3   OH233691   3.422   5.116   3.216  0.0388  0.2082 -0.2386
 4067TIP3    H133692   3.359   5.108   3.144 -0.3134  0.3273  0.0510
 4067TIP3    H233693   3.463   5.030   3.221 -0.9850 -0.2672  0.3648
 4068TIP3   OH233694   0.542   2.894  11.233  0.2487  0.2460 -0.3266
 4068TIP3    H133695   0.456   2.931  11.250 -0.2903 -0.3340 -1.5731
 4068TIP3    H233696   0.566   2.929  11.147 -0.6912 -2.8091 -2.0076
 4069TIP3   OH233697   6.478   0.210  14.898 -0.0942  0.2309 -0.2477
 4069TIP3    H133698   6.415   0.157  14.850 -1.8739  3.2266 -1.4830
 4069TIP3    H233699   6.532   0.252  14.831 -0.4452  1.9380  0.4820
 4070TIP3   OH233700   0.368   1.949   5.199 -0.3147  0.0241 -0.4224
 4070TIP3    H133701   0.446   1.939   5.144  0.1433  0.0521  0.2138
 4070TIP3    H233702   0.313   1.874   5.175 -0.8050  0.8481 -1.9954
 4071TIP3   OH233703   0.936   3.077  10.975  0.1941  0.0881  0.5773
 4071TIP3    H133704   0.999   3.006  10.970  1.2955  1.0594  0.1625
 4071TIP3    H233705   0.867   3.053  10.913  1.0426 -0.1435 -0.2808
 4072TIP3   OH233706   1.481   5.384  16.352 -0.9216  0.0764  0.9144
 4072TIP3    H133707   1.536   5.348  16.421 -1.3531  0.9912  1.7524
 4072TIP3    H233708   1.512   5.341  16.272  1.6634  1.2587  1.1962
 4073TIP3   OH233709   6.456   1.411   2.588  0.2333 -0.3260 -0.4443
 4073TIP3    H133710   6.382   1.423   2.529  0.8151  0.8050 -0.9716
 4073TIP3    H233711   6.523   1.369   2.534  0.2807 -0.5722 -0.1975
 4074TIP3   OH233712   1.375   2.594  13.548  0.5935  0.0362 -0.0366
 4074TIP3    H133713   1.441   2.637  13.493  0.2242  0.2489 -0.3219
 4074TIP3    H233714   1.380   2.502  13.523 -0.0404  0.2333 -0.9270
 4075TIP3   OH233715   0.020   5.369   0.054 -0.3534 -0.4892  0.1686
 4075TIP3    H133716   0.020   5.386   0.148  0.8346 -1.6215  0.3985
 4075TIP3    H233717  -0.072   5.355   0.032 -0.5502 -1.2263  1.3632
 4076TIP3   OH233718   4.204   4.800  12.470 -0.4521 -0.2757 -0.5265
 4076TIP3    H133719   4.173   4.816  12.559 -0.9854  1.9269 -1.0459
 4076TIP3    H233720   4.142   4.737  12.434  0.2736 -1.8843  0.8854
 4077TIP3   OH233721   2.773   0.311   4.612  0.5276 -0.3601 -0.3760
 4077TIP3    H133722   2.771   0.395   4.565  0.8726  0.4359  0.9951
 4077TIP3    H233723   2.732   0.249   4.551 -1.4422  1.1711 -0.7262
 4078TIP3   OH233724   1.020   5.236  11.434  0.1284  0.8002 -0.7401
 4078TIP3    H133725   1.066   5.161  11.396 -0.5435 -0.2249  0.3931
 4078TIP3    H233726   0.938   5.242  11.383 -0.9756 -0.8470  0.7162
 4079TIP3   OH233727   0.352   5.671  16.733  0.4089 -0.3335  0.7878
 4079TIP3    H133728   0.385   5.748  16.779 -0.2232  0.9654 -0.8453
 4079TIP3    H233729   0.345   5.604  16.801  0.5666  1.1538  2.3402
 4080TIP3   OH233730   0.916   5.724   1.949  0.2395  0.4145  0.2585
 4080TIP3    H133731   0.870   5.667   2.010 -2.3592  0.4315 -1.5478
 4080TIP3    H233732   0.915   5.677   1.865  1.0424  1.6568 -0.4956
 4081TIP3   OH233733   6.712   0.884   5.462 -0.0205  0.1017  0.2300
 4081TIP3    H133734   6.769   0.807   5.457 -0.7998 -0.3956 -1.9840
 4081TIP3    H233735   6.678   0.882   5.552 -0.0976 -2.2242  0.2117
 4082TIP3   OH233736   2.621   6.201   1.590  0.0363 -0.2177  0.3234
 4082TIP3    H133737   2.596   6.215   1.498  1.1731  0.1670  0.0524
 4082TIP3    H233738   2.662   6.284   1.616  0.7980 -0.7347  0.8075
 4083TIP3   OH233739   4.364   5.939   3.719  0.1434 -0.0652  0.3867
 4083TIP3    H133740   4.392   5.848   3.711  0.5124  0.1520 -0.9566
 4083TIP3    H233741   4.411   5.985   3.650  0.8483  1.3795  1.7581
 4084TIP3   OH233742   1.832   5.808  15.734 -0.1613 -0.4973 -0.1040
 4084TIP3    H133743   1.833   5.792  15.640 -1.9290 -0.7250 -0.1252
 4084TIP3    H233744   1.816   5.722  15.773  0.1622 -0.3417  0.3869
 4085TIP3   OH233745   6.514   3.300   4.163 -0.1133 -0.3149 -0.0653
 4085TIP3    H133746   6.561   3.244   4.225 -3.2222  0.6581  3.5822
 4085TIP3    H233747   6.432   3.252   4.146  0.4883 -0.4131 -3.4371
 4086TIP3   OH233748   4.382   6.846   1.990  0.1076 -0.0752 -0.3506
 4086TIP3    H133749   4.286   6.838   1.990  0.0749 -0.2466  2.0147
 4086TIP3    H233750   4.399   6.938   2.006  0.2994 -0.2755  0.6815
 4087TIP3   OH233751   0.698   0.797  14.067  0.1969 -0.6699 -0.3559
 4087TIP3    H133752   0.636   0.737  14.026 -0.5655 -0.3205  0.2710
 4087TIP3    H233753   0.644   0.863  14.109  1.0140  0.8628 -1.5859
 4088TIP3   OH233754   0.762   0.975  16.074 -0.4005 -0.3519 -0.4571
 4088TIP3    H133755   0.679   0.955  16.117 -0.2903 -0.1446 -0.1432
 4088TIP3    H233756   0.747   1.060  16.031 -1.2412 -1.5717 -2.7590
 4089TIP3   OH233757   0.769   4.640   1.022  0.8640 -0.5093 -0.4714
 4089TIP3    H133758   0.708   4.577   1.060 -1.3690  1.2683 -0.9055
 4089TIP3    H233759   0.837   4.586   0.981 -0.8000 -2.6188 -0.6263
 4090TIP3   OH233760   2.134   5.919   4.319 -0.7990 -0.1302  0.0308
 4090TIP3    H133761   2.141   5.834   4.277 -0.9418 -0.8882  1.4877
 4090TIP3    H233762   2.224   5.945   4.336 -0.7449  0.1395 -0.6584
 4091TIP3   OH233763   0.992   3.155   3.771 -0.4687 -0.1711  0.1788
 4091TIP3    H133764   1.048   3.186   3.700 -0.4257  0.0155  0.2916
 4091TIP3    H233765   0.913   3.123   3.728 -0.3016 -0.3790  0.0214
 4092TIP3   OH233766   3.865   6.337  14.783 -0.4077 -0.1697  0.1688
 4092TIP3    H133767   3.940   6.389  14.754 -0.2181 -0.5181  0.0249
 4092TIP3    H233768   3.789   6.384  14.749 -0.1942 -0.5337 -0.8501
 4093TIP3   OH233769   2.341   1.283   0.646 -0.8891  0.0931  0.1871
 4093TIP3    H133770   2.386   1.304   0.565  2.7513 -2.9134  1.1346
 4093TIP3    H233771   2.387   1.334   0.713  0.0251 -1.6312  0.9532
 4094TIP3   OH233772   5.911   1.097   0.352  0.0529  0.2597 -0.1729
 4094TIP3    H133773   5.871   1.171   0.399  1.7708  0.9067  0.3236
 4094TIP3    H233774   5.936   1.134   0.267 -0.2414 -0.1132 -0.4295
 4095TIP3   OH233775   6.457   5.557   5.766 -0.1879  0.3797 -0.4298
 4095TIP3    H133776   6.450   5.462   5.756  0.2079  0.4411 -1.4721
 4095TIP3    H233777   6.451   5.573   5.860 -0.2538 -0.6783 -0.2502
 4096TIP3   OH233778   2.404   2.452  15.671 -0.1248 -0.8519  0.1010
 4096TIP3    H133779   2.373   2.378  15.723  0.1374 -1.6930 -0.8982
 4096TIP3    H233780   2.498   2.456  15.688 -0.0406 -1.1211 -0.2845
 4097TIP3   OH233781   3.593   0.556  17.023  0.3875 -1.1478 -0.3288
 4097TIP3    H133782   3.524   0.493  17.002 -0.7372  0.0111 -0.2274
 4097TIP3    H233783   3.633   0.522  17.103 -0.1779 -1.7694 -0.3036
 4098TIP3   OH233784   4.073   3.735  13.244  0.2341 -0.3431 -0.5758
 4098TIP3    H133785   4.076   3.709  13.152 -0.2504 -0.0489 -0.6808
 4098TIP3    H233786   4.055   3.654  13.291  1.5688 -0.6876 -0.6334
 4099TIP3   OH233787   5.227   2.072   0.696  0.3135 -0.1346 -0.4383
 4099TIP3    H133788   5.248   1.990   0.740  1.2792  1.3884  2.2133
 4099TIP3    H233789   5.132   2.073   0.690  0.2180 -0.9365  0.6288
 4100TIP3   OH233790   2.057   3.740  11.002  0.0649  0.1935  0.2692
 4100TIP3    H133791   2.043   3.670  11.065  0.1567  1.0826  1.3030
 4100TIP3    H233792   1.978   3.793  11.005  0.2727  0.5330  0.0084
 4101TIP3   OH233793   2.546   2.067   6.526 -0.1541  0.3141  0.2056
 4101TIP3    H133794   2.609   2.024   6.467 -0.0192 -0.3462  0.8127
 4101TIP3    H233795   2.574   2.158   6.529  0.3160  0.1860 -0.1335
 4102TIP3   OH233796   4.672   6.809   1.237  0.0542 -0.0873 -0.2645
 4102TIP3    H133797   4.590   6.769   1.267  0.0928  0.4584  0.5969
 4102TIP3    H233798   4.736   6.787   1.304  0.9824 -1.7105 -1.6268
 4103TIP3   OH233799   4.435   5.204   0.424 -0.4508 -0.3987 -0.5759
 4103TIP3    H133800   4.401   5.289   0.453 -1.4807 -0.5121 -1.4133
 4103TIP3    H233801   4.358   5.148   0.416  0.2316 -1.4951  0.1675
 4104TIP3   OH233802   3.172   0.168   2.659 -0.6023 -0.6215  0.3215
 4104TIP3    H133803   3.128   0.124   2.586  0.2055 -0.8225 -0.0533
 4104TIP3    H233804   3.150   0.115   2.735 -0.1829 -1.3027 -0.0212
 4105TIP3   OH233805   4.052   6.670  11.501  0.2916  0.0623 -0.5799
 4105TIP3    H133806   4.136   6.647  11.541  0.7472  1.0313 -0.9378
 4105TIP3    H233807   4.034   6.758  11.535  0.7565  0.9893 -2.5627
 4106TIP3   OH233808   5.064   0.336  14.381  0.4229  0.3088 -0.2906
 4106TIP3    H133809   5.057   0.241  14.393  0.4552  0.4543  0.9611
 4106TIP3    H233810   5.071   0.347  14.286 -1.4673 -0.8224 -0.6271
 4107TIP3   OH233811   5.353   6.528  11.503 -0.2224 -0.0901  0.0617
 4107TIP3    H133812   5.328   6.613  11.468 -1.9334  0.6014  2.7187
 4107TIP3    H233813   5.402   6.548  11.583 -0.1933 -1.5976  0.4561
 4108TIP3   OH233814   4.649   2.197   1.794  0.1836 -0.3661  0.2356
 4108TIP3    H133815   4.700   2.248   1.858  1.4765  0.2012 -1.1909
 4108TIP3    H233816   4.641   2.255   1.718  1.2941 -2.0722 -1.2583
 4109TIP3   OH233817   6.058   5.149   3.594 -0.0667  0.2243 -0.6655
 4109TIP3    H133818   6.016   5.235   3.597 -0.4242  0.0827 -1.3599
 4109TIP3    H233819   6.082   5.131   3.685  0.0595  1.0772 -0.5205
 4110TIP3   OH233820   5.577   3.178  11.147 -0.3306 -0.1628  0.1690
 4110TIP3    H133821   5.526   3.254  11.121  3.0345  2.2736  0.0196
 4110TIP3    H233822   5.549   3.160  11.237 -1.5391  0.9483  0.0386
 4111TIP3   OH233823   0.655   0.326  10.738 -0.2598 -0.0368  0.4268
 4111TIP3    H133824   0.599   0.249  10.747 -0.4529  0.2231  1.5093
 4111TIP3    H233825   0.707   0.308  10.659 -0.0871 -1.4141  0.8324
 4112TIP3   OH233826   4.429   0.117   7.049 -0.7574  0.1156  0.3699
 4112TIP3    H133827   4.499   0.146   6.990 -0.9828  1.2709  0.6330
 4112TIP3    H233828   4.449   0.026   7.067  1.0961  0.5860  0.9751
 4113TIP3   OH233829   3.797   2.006   4.095 -0.2867 -0.1647 -0.2643
 4113TIP3    H133830   3.868   2.027   4.034 -0.5447  0.4963 -0.3470
 4113TIP3    H233831   3.810   1.914   4.116  0.4513 -0.1174 -0.4727
 4114TIP3   OH233832   1.715   2.354   2.551  0.2431  0.4613 -0.2746
 4114TIP3    H133833   1.712   2.432   2.497 -0.6938  0.6894  0.0921
 4114TIP3    H233834   1.707   2.386   2.641 -1.3167 -0.1117 -0.1804
 4115TIP3   OH233835   2.983   6.279  12.565 -0.4275 -0.2443  0.5412
 4115TIP3    H133836   3.004   6.370  12.588 -0.3104  0.0184 -0.5542
 4115TIP3    H233837   2.893   6.283  12.534  0.2488 -0.0941 -1.5523
 4116TIP3   OH233838   3.868   1.225   5.501  0.1016 -0.3999 -0.3401
 4116TIP3    H133839   3.796   1.282   5.526 -0.5530 -1.8579  1.4033
 4116TIP3    H233840   3.940   1.284   5.482 -0.6259  1.0345  1.0674
 4117TIP3   OH233841   2.466   2.508  12.531  0.3143  0.6871  0.1082
 4117TIP3    H133842   2.483   2.564  12.606  0.5734  0.9562 -0.1449
 4117TIP3    H233843   2.426   2.429  12.567  2.8655 -0.3806  0.8680
 4118TIP3   OH233844   2.756   6.101  12.089  0.1249  0.3606  0.3641
 4118TIP3    H133845   2.749   6.044  12.013  3.0054  2.5143 -1.7563
 4118TIP3    H233846   2.681   6.160  12.083 -0.5297 -0.4748  0.1459
 4119TIP3   OH233847   5.840   6.716   0.100 -0.2057 -0.6846 -0.3955
 4119TIP3    H133848   5.889   6.646   0.145 -0.6640  0.5947  2.2672
 4119TIP3    H233849   5.900   6.746   0.031  0.9493 -2.0926 -0.0599
 4120TIP3   OH233850   2.462   3.021   2.838  0.2529  0.4632 -0.1134
 4120TIP3    H133851   2.372   3.011   2.808 -0.4725  0.0243  2.0413
 4120TIP3    H233852   2.459   3.094   2.901  1.1267 -0.3172  0.8849
 4121TIP3   OH233853   5.541   6.242  14.330 -0.2874  0.0022 -0.4760
 4121TIP3    H133854   5.567   6.294  14.405  0.0114 -1.9341  0.8192
 4121TIP3    H233855   5.527   6.306  14.260  1.7032  1.6483  0.5424
 4122TIP3   OH233856   6.654   0.297  14.654 -0.2375 -0.3092  0.1651
 4122TIP3    H133857   6.582   0.239  14.629 -0.6517  0.5686 -0.7610
 4122TIP3    H233858   6.733   0.250  14.628 -0.4810 -1.0863  0.7819
 4123TIP3   OH233859   2.694   6.767   5.791 -0.0309  0.1873 -0.1566
 4123TIP3    H133860   2.608   6.758   5.749 -0.6236 -1.0694  1.2463
 4123TIP3    H233861   2.687   6.845   5.845 -0.6006 -0.3998  0.6301
 4124TIP3   OH233862   0.678   3.373  13.614 -0.0354 -0.2144  0.0273
 4124TIP3    H133863   0.713   3.456  13.582 -1.9584  0.0724 -1.5790
 4124TIP3    H233864   0.754   3.314  13.615  1.2176  1.3393  0.4834
 4125TIP3   OH233865   1.082   0.239  16.642  0.1579  0.3447 -0.6007
 4125TIP3    H133866   0.998   0.209  16.677  0.2583  1.0700  0.2994
 4125TIP3    H233867   1.064   0.256  16.550 -0.2018 -1.2690 -0.8705
 4126TIP3   OH233868   3.125   2.682  12.320 -0.2727 -0.0269  0.1215
 4126TIP3    H133869   3.183   2.691  12.244  0.2198 -1.1618  0.3347
 4126TIP3    H233870   3.071   2.606  12.299 -1.0677  0.4721  0.3330
 4127TIP3   OH233871   3.949   6.086  14.049  0.2423  0.6663 -0.4419
 4127TIP3    H133872   4.035   6.096  14.088 -0.4787  2.4197  0.8802
 4127TIP3    H233873   3.889   6.128  14.112 -1.2577  1.6360 -2.3868
 4128TIP3   OH233874   1.784   6.352  15.293 -0.0621  0.0343  0.0335
 4128TIP3    H133875   1.716   6.406  15.251 -0.6052 -0.2384  0.5437
 4128TIP3    H233876   1.853   6.414  15.317  0.3791  0.1684 -1.4678
 4129TIP3   OH233877   5.934   6.276   5.495 -0.6729  0.0087 -0.5336
 4129TIP3    H133878   5.882   6.304   5.571  0.7876 -1.4812  1.1203
 4129TIP3    H233879   5.993   6.350   5.479 -0.6773  0.1659  0.1075
 4130TIP3   OH233880   6.026   3.879   0.563 -0.5776  0.5333 -0.4577
 4130TIP3    H133881   5.930   3.883   0.556 -0.8493 -0.2040  1.9113
 4130TIP3    H233882   6.045   3.785   0.568  0.1099  0.7049  0.4403
 4131TIP3   OH233883   1.177   0.341  16.962  0.4995 -0.4921 -0.1625
 4131TIP3    H133884   1.171   0.270  16.898  0.2326 -1.0024  0.4145
 4131TIP3    H233885   1.155   0.420  16.912 -0.1938 -0.9416 -0.5917
 4132TIP3   OH233886   2.499   1.056  11.121  0.0889 -0.4361 -0.1677
 4132TIP3    H133887   2.589   1.046  11.091 -0.1500 -0.0142 -1.0807
 4132TIP3    H233888   2.465   1.130  11.069 -1.3057 -1.7070 -1.1426
 4133TIP3   OH233889   1.985   3.481  11.889  0.1550 -0.0705  0.2434
 4133TIP3    H133890   1.942   3.516  11.967 -1.6794  1.6103 -1.4302
 4133TIP3    H233891   1.944   3.396  11.875  1.2805 -0.9054  1.6541
 4134TIP3   OH233892   6.653   0.873   1.177 -0.0268 -0.3393  0.4124
 4134TIP3    H133893   6.628   0.786   1.148 -2.4444  0.3625  0.1308
 4134TIP3    H233894   6.600   0.889   1.256 -2.1596  2.0088 -1.3254
 4135TIP3   OH233895   4.772   6.461  16.539 -0.2802  0.1528 -0.8640
 4135TIP3    H133896   4.780   6.502  16.625  1.1714  0.5215 -1.1522
 4135TIP3    H233897   4.740   6.530  16.481 -2.1094 -0.3162 -0.4899
 4136TIP3   OH233898   6.430   5.246  11.219  0.0210  0.1859  0.0192
 4136TIP3    H133899   6.458   5.167  11.266 -0.6769  0.3037  0.6534
 4136TIP3    H233900   6.349   5.272  11.264  0.7469  1.8021  0.4361
 4137TIP3   OH233901   1.517   5.518  11.416  0.2564 -0.5303 -0.5655
 4137TIP3    H133902   1.543   5.591  11.471  2.1470 -0.4907 -1.4544
 4137TIP3    H233903   1.575   5.446  11.442 -2.9616 -2.5476  1.8487
 4138TIP3   OH233904   5.168   3.815   1.552 -0.4050 -0.1405 -0.2457
 4138TIP3    H133905   5.204   3.766   1.478 -0.5830 -0.5748 -0.0532
 4138TIP3    H233906   5.079   3.837   1.525 -0.5631 -0.5363 -0.0584
 4139TIP3   OH233907   5.289   0.073   1.274  0.2367 -0.1599  0.1406
 4139TIP3    H133908   5.325   0.006   1.216  0.1048 -0.6412  0.6095
 4139TIP3    H233909   5.348   0.148   1.263 -0.9501  0.5458 -2.2068
 4140TIP3   OH233910   3.812   6.216  13.821 -0.2972 -0.2245 -0.2720
 4140TIP3    H133911   3.735   6.264  13.850 -0.8546  0.9852 -3.3804
 4140TIP3    H233912   3.876   6.229  13.891 -2.1402  0.6760  1.3211
 4141TIP3   OH233913   0.542   2.609   3.763  0.6107 -0.2227  0.9104
 4141TIP3    H133914   0.566   2.540   3.702  0.4312  2.1085 -2.0219
 4141TIP3    H233915   0.447   2.607   3.767  0.6364 -0.6169  1.4652
 4142TIP3   OH233916   0.009   2.996  15.296 -0.1093 -0.1300 -0.2424
 4142TIP3    H133917  -0.030   2.925  15.244  0.8381 -0.4060 -0.5833
 4142TIP3    H233918   0.057   2.952  15.366  1.1880  0.1234 -0.9493
 4143TIP3   OH233919   3.724   3.601   0.521  0.1156  0.1649 -0.4007
 4143TIP3    H133920   3.717   3.692   0.493 -1.6124 -0.3016 -1.6723
 4143TIP3    H233921   3.635   3.578   0.550 -0.6234 -2.1908 -3.8689
 4144TIP3   OH233922   1.987   0.987  16.623 -0.3169 -0.3359 -0.2087
 4144TIP3    H133923   1.921   1.015  16.560 -0.5143  1.7303  0.8280
 4144TIP3    H233924   2.070   0.999  16.578 -0.4237  1.6038  0.0139
 4145TIP3   OH233925   5.547   0.975   2.155  0.4244 -0.0663  0.0694
 4145TIP3    H133926   5.611   1.030   2.110 -2.1723  1.8065 -1.6404
 4145TIP3    H233927   5.514   0.916   2.087  0.0559 -0.7171  0.8019
 4146TIP3   OH233928   4.769   1.458   2.744  0.1347 -0.1004  0.3272
 4146TIP3    H133929   4.802   1.494   2.661 -1.2958  0.4266 -0.0509
 4146TIP3    H233930   4.832   1.390   2.768  1.1224  0.4361 -0.6626
 4147TIP3   OH233931   3.193   3.758   3.870  0.2170  0.2574  0.2508
 4147TIP3    H133932   3.233   3.678   3.906  1.1065 -0.3739 -1.9787
 4147TIP3    H233933   3.138   3.727   3.798  0.3403  1.6174 -0.4659
 4148TIP3   OH233934   5.254   6.072  14.103 -0.5065 -0.4208 -0.1018
 4148TIP3    H133935   5.256   6.104  14.193 -0.8942 -1.9261  0.4783
 4148TIP3    H233936   5.166   6.094  14.072 -1.1672 -1.8191  0.6712
 4149TIP3   OH233937   2.756   6.247  16.012  0.2687 -0.0778  0.3521
 4149TIP3    H133938   2.822   6.240  15.942  0.3253 -0.1975  0.4155
 4149TIP3    H233939   2.799   6.300  16.079 -0.6340  2.0095 -0.6695
 4150TIP3   OH233940   4.246   4.245   3.106 -0.2898 -0.1986 -0.2542
 4150TIP3    H133941   4.289   4.162   3.085  1.0559  0.0821  1.1948
 4150TIP3    H233942   4.190   4.224   3.181 -1.0696 -0.0863 -0.7927
 4151TIP3   OH233943   3.492   5.333   5.400 -1.1058 -0.0439 -0.1462
 4151TIP3    H133944   3.435   5.297   5.332 -0.6402 -0.6357 -0.2340
 4151TIP3    H233945   3.476   5.277   5.476 -1.2606  0.3080  0.0787
 4152TIP3   OH233946   1.679   6.298  14.923 -0.3631  0.5324 -0.6123
 4152TIP3    H133947   1.726   6.251  14.992 -0.7688  0.3577 -0.4452
 4152TIP3    H233948   1.711   6.259  14.842 -0.2231  0.4149 -0.5018
 4153TIP3   OH233949   5.340   5.207   5.309 -0.4714 -0.4149  0.4233
 4153TIP3    H133950   5.347   5.279   5.372  0.4165 -0.2265  0.1343
 4153TIP3    H233951   5.247   5.188   5.304 -0.4968 -1.2919  2.7473
 4154TIP3   OH233952   4.125   4.526   5.746 -0.1594  0.0507 -0.6713
 4154TIP3    H133953   4.212   4.530   5.707 -1.1578 -0.7852 -3.1690
 4154TIP3    H233954   4.131   4.457   5.812  1.3983  0.9749  0.1966
 4155TIP3   OH233955   5.360   4.421  11.670  0.3880 -0.4351 -0.0467
 4155TIP3    H133956   5.306   4.369  11.730  1.1726 -0.3300  0.7823
 4155TIP3    H233957   5.378   4.362  11.597  0.1833 -0.8865  0.2615
 4156TIP3   OH233958   2.174   5.198  14.661 -0.1709  0.4488  0.4945
 4156TIP3    H133959   2.195   5.111  14.627  0.2489  0.7961 -0.1575
 4156TIP3    H233960   2.111   5.182  14.731 -0.5179 -0.3361  0.0150
 4157TIP3   OH233961   6.194   2.633   4.551 -0.1351  0.1400 -0.3588
 4157TIP3    H133962   6.134   2.671   4.616 -0.8045 -0.6053 -0.5279
 4157TIP3    H233963   6.268   2.694   4.549 -0.9479  1.1676 -0.2505
 4158TIP3   OH233964   4.516   2.176   0.473  0.0414 -0.1834  0.3753
 4158TIP3    H133965   4.457   2.120   0.422  0.3300  0.6400 -0.9069
 4158TIP3    H233966   4.461   2.213   0.542 -1.4041  1.7532 -1.6695
 4159TIP3   OH233967   6.025   2.137  11.126 -0.3419 -0.2895 -0.0199
 4159TIP3    H133968   5.956   2.087  11.170  1.2792 -0.7893  2.1647
 4159TIP3    H233969   6.060   2.078  11.060 -1.2635 -0.4290 -0.3966
 4160TIP3   OH233970   6.619   3.403  15.033 -0.2159  0.1644 -0.6346
 4160TIP3    H133971   6.678   3.373  15.102 -0.6743  1.1851  0.2265
 4160TIP3    H233972   6.532   3.374  15.061 -0.2125 -0.9164 -1.6616
 4161TIP3   OH233973   3.366   4.543   3.909 -0.0220  0.3202 -0.1142
 4161TIP3    H133974   3.351   4.450   3.890 -0.4315  0.4727 -0.5574
 4161TIP3    H233975   3.309   4.589   3.848 -1.4885  0.8516  1.5929
 4162TIP3   OH233976   5.853   3.472  11.849  0.1633 -0.3406 -0.0381
 4162TIP3    H133977   5.767   3.440  11.878  0.5712 -1.3679  0.0781
 4162TIP3    H233978   5.849   3.465  11.753 -0.2299  0.5760 -0.1071
 4163TIP3   OH233979   4.364   3.369   3.608  0.3052 -0.1786 -0.3546
 4163TIP3    H133980   4.421   3.434   3.648  0.3284  0.3040 -1.1335
 4163TIP3    H233981   4.294   3.421   3.568 -1.6656 -0.8345  2.0061
 4164TIP3   OH233982   1.729   3.368  15.018 -0.6434 -0.3676 -0.3549
 4164TIP3    H133983   1.709   3.372  14.925  0.5187 -0.7837 -0.6453
 4164TIP3    H233984   1.815   3.325  15.022 -0.8673 -0.7482  0.9291
 4165TIP3   OH233985   4.507   6.042  12.815 -0.7160  0.4802  0.3258
 4165TIP3    H133986   4.593   6.010  12.789  0.0748  2.1975  0.7550
 4165TIP3    H233987   4.462   5.964  12.848  0.9620 -0.2977  0.8761
 4166TIP3   OH233988   5.448   4.935   4.917 -0.3185  0.0573 -0.5380
 4166TIP3    H133989   5.457   4.860   4.858  1.7595  1.2414 -1.8633
 4166TIP3    H233990   5.355   4.959   4.911 -1.0950 -2.4744  0.0995
 4167TIP3   OH233991   1.121   4.434  13.176  0.0168  0.0749  0.2433
 4167TIP3    H133992   1.176   4.506  13.144  0.2354 -0.5079 -0.7138
 4167TIP3    H233993   1.125   4.443  13.272  1.7959  0.0478  0.2030
 4168TIP3   OH233994   2.738   2.646  13.338 -0.0416  0.5242  0.7416
 4168TIP3    H133995   2.737   2.736  13.307 -0.9933  0.8781  1.7322
 4168TIP3    H233996   2.827   2.615  13.320 -0.7060  0.3692 -3.1036
 4169TIP3   OH233997   3.339   0.572   3.533 -0.0736  0.7080  0.2139
 4169TIP3    H133998   3.247   0.567   3.508 -0.3333  0.2130  1.2255
 4169TIP3    H233999   3.366   0.481   3.546  0.2587  0.9060  0.9625
 4170TIP3   OH234000   1.936   6.700  10.329 -0.5152 -0.1890 -0.1731
 4170TIP3    H134001   1.886   6.742  10.259 -0.9002  2.0810  1.3821
 4170TIP3    H234002   1.970   6.620  10.288 -0.9928  0.8497 -2.8373
 4171TIP3   OH234003   3.169   0.493   2.198 -0.3536 -0.7182 -0.0278
 4171TIP3    H134004   3.109   0.427   2.233 -2.5018  0.7295 -0.7728
 4171TIP3    H234005   3.171   0.561   2.265 -1.5899  0.3917 -1.0801
 4172TIP3   OH234006   2.557   6.508  17.012 -0.0408 -0.0849 -0.6755
 4172TIP3    H134007   2.600   6.515  17.098  0.4119 -2.3475 -0.6607
 4172TIP3    H234008   2.607   6.566  16.955  1.7792 -1.0755 -0.1588
 4173TIP3   OH234009   4.424   5.935  14.556 -0.1370  0.1972 -0.1002
 4173TIP3    H134010   4.359   5.982  14.504  0.5570  1.4857  0.1669
 4173TIP3    H234011   4.374   5.895  14.627 -0.8013  0.1460 -0.5888
 4174TIP3   OH234012   0.887   4.688  11.683 -0.3999 -0.1432 -0.0693
 4174TIP3    H134013   0.977   4.716  11.700 -0.3258 -0.7821  0.6942
 4174TIP3    H234014   0.878   4.692  11.588  0.8051 -1.1315 -0.2623
 4175TIP3   OH234015   4.165   0.436  13.009  0.0633 -0.1277 -0.2086
 4175TIP3    H134016   4.071   0.456  13.014 -0.0302 -0.0977 -1.5666
 4175TIP3    H234017   4.179   0.371  13.078 -1.1051 -0.6373 -0.4108
 4176TIP3   OH234018   1.866   5.989   2.334  1.2211  0.5196  0.1414
 4176TIP3    H134019   1.800   5.931   2.373  0.8412  0.2466 -0.8865
 4176TIP3    H234020   1.860   6.070   2.385 -0.2451  0.6663 -0.2456
 4177TIP3   OH234021   6.639   5.236  12.352 -0.0247  0.3545 -0.3307
 4177TIP3    H134022   6.629   5.241  12.257  0.7972 -0.6394 -0.4822
 4177TIP3    H234023   6.698   5.162  12.367 -1.0980 -0.2853  1.0067
 4178TIP3   OH234024   2.776   5.317   5.064  0.4726  0.7147 -0.2349
 4178TIP3    H134025   2.826   5.374   5.121  0.2524 -0.4794  1.2179
 4178TIP3    H234026   2.684   5.333   5.088  0.3271  0.7711 -0.8125
 4179TIP3   OH234027   2.872   1.581  12.359 -0.0721  0.1381  0.0409
 4179TIP3    H134028   2.945   1.551  12.305 -0.4272  0.0129 -0.3800
 4179TIP3    H234029   2.830   1.501  12.391  0.7889  0.2100  1.4250
 4180TIP3   OH234030   0.288   5.903  11.578 -0.0556  0.7548 -0.4590
 4180TIP3    H134031   0.301   5.983  11.528  2.4918  1.1286  0.6246
 4180TIP3    H234032   0.369   5.853  11.564 -0.3171 -0.2406  1.2653
 4181TIP3   OH234033   6.173   0.228  11.373 -0.1930 -0.0028 -0.3526
 4181TIP3    H134034   6.079   0.218  11.357 -0.0117  1.1836 -2.4570
 4181TIP3    H234035   6.210   0.142  11.356 -0.8436 -0.4134  0.2410
 4182TIP3   OH234036   0.485   0.666  13.208  0.5328 -0.0556  0.0275
 4182TIP3    H134037   0.509   0.627  13.124 -0.1702 -0.2681 -0.0772
 4182TIP3    H234038   0.393   0.642  13.221  0.2718  1.0164  0.2692
 4183TIP3   OH234039   3.999   1.752  11.602 -0.5914  0.6837 -0.1707
 4183TIP3    H134040   4.042   1.838  11.592 -3.1836  2.6848  3.3793
 4183TIP3    H234041   3.953   1.739  11.520  0.9703  1.9755 -1.3279
 4184TIP3   OH234042   0.273   5.946   3.105 -0.1494  0.3110 -0.0652
 4184TIP3    H134043   0.229   6.029   3.123  1.0104  0.5250  2.0685
 4184TIP3    H234044   0.340   5.968   3.039  0.1386  1.0799  0.4692
 4185TIP3   OH234045   1.041   4.215   2.350 -0.3318  0.3542  0.2324
 4185TIP3    H134046   1.009   4.302   2.375  0.1600 -0.1338  2.8602
 4185TIP3    H234047   0.962   4.163   2.339 -0.6004  0.6356  0.7679
 4186TIP3   OH234048   3.364   0.767   5.443  0.6254  0.1077  0.3036
 4186TIP3    H134049   3.296   0.825   5.476  0.6280  1.0959 -1.3428
 4186TIP3    H234050   3.396   0.810   5.364 -0.1943 -2.6536 -1.6841
 4187TIP3   OH234051   3.403   4.715   4.924  0.3952  0.0364  0.4727
 4187TIP3    H134052   3.392   4.671   4.840  1.5004  1.6513 -0.5814
 4187TIP3    H234053   3.366   4.803   4.910 -0.5978 -0.0652  2.1037
 4188TIP3   OH234054   2.520   1.052   5.647  0.7694  0.2603  0.3141
 4188TIP3    H134055   2.524   0.994   5.724 -1.1151  1.8279  1.6934
 4188TIP3    H234056   2.487   0.996   5.577  1.9606 -1.0753  0.7705
 4189TIP3   OH234057   4.382   5.354   1.925  0.8560  0.1000 -0.1065
 4189TIP3    H134058   4.441   5.387   1.858  1.5957  0.6664  0.8131
 4189TIP3    H234059   4.421   5.380   2.008 -0.4550  0.1039  0.5416
 4190TIP3   OH234060   0.638   2.349  11.302  0.5347  0.4086 -0.1792
 4190TIP3    H134061   0.664   2.280  11.242 -0.0647  1.9442 -2.3134
 4190TIP3    H234062   0.551   2.375  11.272  0.2132  1.2409  1.3783
 4191TIP3   OH234063   1.660   4.150  13.745 -0.6372 -0.8058 -1.3123
 4191TIP3    H134064   1.617   4.222  13.698 -2.3104 -1.4864 -0.9253
 4191TIP3    H234065   1.618   4.150  13.831  1.3674 -0.4805 -0.2999
 4192TIP3   OH234066   5.773   0.029   0.312  0.6349 -0.2765  0.2977
 4192TIP3    H134067   5.700   0.084   0.283  0.7444 -0.8116 -1.0423
 4192TIP3    H234068   5.775  -0.043   0.250  1.9070 -0.6237  0.7122
 4193TIP3   OH234069   1.838   5.416   3.535 -0.4468  0.0550 -0.2703
 4193TIP3    H134070   1.803   5.465   3.461 -0.0225  0.1208 -0.4290
 4193TIP3    H234071   1.793   5.331   3.530  0.2828 -0.2980 -1.1885
 4194TIP3   OH234072   4.194   6.849   5.275  0.5391 -0.1399 -0.1756
 4194TIP3    H134073   4.124   6.853   5.209 -0.5869 -0.8537  0.9266
 4194TIP3    H234074   4.271   6.884   5.231 -0.7329  1.5562 -1.1313
 4195TIP3   OH234075   3.540   3.677  16.450 -0.2042  0.1584  0.3155
 4195TIP3    H134076   3.599   3.618  16.497 -1.3215 -1.2006  0.0931
 4195TIP3    H234077   3.566   3.668  16.358 -1.7660 -1.8001 -0.0228
 4196TIP3   OH234078   1.691   2.900  13.080 -0.2389  0.3712 -0.0274
 4196TIP3    H134079   1.760   2.920  13.017  0.0466  2.2618  0.8295
 4196TIP3    H234080   1.725   2.931  13.163 -1.1894 -0.8256  0.8439
 4197TIP3   OH234081   4.161   1.263  10.211  0.2470 -0.0978  0.4917
 4197TIP3    H134082   4.147   1.351  10.247  2.3563  0.4571  0.0638
 4197TIP3    H234083   4.254   1.260  10.190 -0.0890 -1.8746 -1.0155
 4198TIP3   OH234084   3.962   6.021  12.930 -0.2777  0.2268 -0.0461
 4198TIP3    H134085   3.900   6.008  12.857 -0.8078  1.8804  0.0804
 4198TIP3    H234086   3.961   5.937  12.976 -2.4102  0.1744 -0.0784
 4199TIP3   OH234087   4.078   0.865   2.150  0.5056  0.0401 -0.2709
 4199TIP3    H134088   4.163   0.840   2.114 -0.4789 -2.3553 -1.1017
 4199TIP3    H234089   4.040   0.923   2.083  1.4009  1.0738  0.0786
 4200TIP3   OH234090   1.550   3.382  15.339 -0.7190  0.1074 -0.0538
 4200TIP3    H134091   1.554   3.398  15.433 -0.9612  0.8870 -0.1681
 4200TIP3    H234092   1.642   3.377  15.312 -0.6180  1.1278  0.0351
 4201TIP3   OH234093   6.224   4.679   2.831  0.5030 -0.0371 -0.3563
 4201TIP3    H134094   6.318   4.661   2.832  0.5817  0.2554 -1.3538
 4201TIP3    H234095   6.203   4.703   2.921  1.0559 -1.7074  0.2538
 4202TIP3   OH234096   5.847   3.185  14.442 -0.1547 -0.3766 -0.4558
 4202TIP3    H134097   5.762   3.195  14.399 -0.4976 -1.0882  0.0483
 4202TIP3    H234098   5.885   3.273  14.439 -0.8338 -0.0826 -0.8273
 4203TIP3   OH234099   4.635   1.281  16.222  0.2594 -0.0893 -0.4552
 4203TIP3    H134100   4.641   1.376  16.223 -0.5195 -0.0310 -1.0143
 4203TIP3    H234101   4.688   1.253  16.148 -1.0853  0.0439 -1.5040
 4204TIP3   OH234102   2.106   1.797   2.118  0.3409 -0.5165 -0.3436
 4204TIP3    H134103   2.031   1.834   2.164  0.9826  0.7182 -0.2565
 4204TIP3    H234104   2.182   1.826   2.169  0.9482 -0.6748 -1.1453
 4205TIP3   OH234105   5.076   0.881  13.088 -0.2459 -0.1302 -0.5607
 4205TIP3    H134106   5.078   0.909  13.180  1.3132  1.3301 -1.0018
 4205TIP3    H234107   5.076   0.786  13.093 -1.1574 -0.1019  0.9515
 4206TIP3   OH234108   2.989   3.819   1.134 -0.5948 -0.5709  0.4672
 4206TIP3    H134109   3.003   3.887   1.068 -0.6322 -0.4685  0.5648
 4206TIP3    H234110   3.065   3.826   1.192  0.0199 -1.4204 -0.2208
 4207TIP3   OH234111   4.446   5.801   3.199 -0.3312  0.8168 -0.0522
 4207TIP3    H134112   4.355   5.829   3.210 -0.6919  0.4063 -1.6860
 4207TIP3    H234113   4.495   5.851   3.265 -1.0802  4.3959 -1.9704
 4208TIP3   OH234114   1.918   6.506  10.852  0.0167  0.0510  0.1162
 4208TIP3    H134115   2.004   6.473  10.828 -0.1695 -0.0046 -0.5008
 4208TIP3    H234116   1.932   6.554  10.934  0.4513 -0.7942  0.5581
 4209TIP3   OH234117   5.463   1.131  15.559  0.3363  0.2377  0.0409
 4209TIP3    H134118   5.530   1.074  15.521  0.1307  0.8550 -1.2708
 4209TIP3    H234119   5.436   1.085  15.639  2.1172 -0.1516  0.4724
 4210TIP3   OH234120   1.190   6.021   4.252  0.0725  0.0723 -0.0895
 4210TIP3    H134121   1.115   6.075   4.277  0.7156  0.6255  0.7146
 4210TIP3    H234122   1.197   5.956   4.322  0.1262 -0.2041 -0.3484
 4211TIP3   OH234123   0.869   2.014   6.223  0.0010  0.2493 -0.2459
 4211TIP3    H134124   0.840   1.984   6.137  0.5297  0.8832 -0.6528
 4211TIP3    H234125   0.875   1.934   6.275 -1.0790 -0.0494 -0.5621
 4212TIP3   OH234126   5.892   5.245   4.455 -0.5831 -0.2028 -0.0043
 4212TIP3    H134127   5.941   5.309   4.405  1.4419 -0.7720  1.1181
 4212TIP3    H234128   5.845   5.296   4.521  1.5946  0.1777  1.3611
 4213TIP3   OH234129   2.692   4.446   2.613 -0.3836 -0.0158 -0.3119
 4213TIP3    H134130   2.601   4.456   2.585 -0.1044 -1.7967 -2.0448
 4213TIP3    H234131   2.696   4.357   2.648  0.7654 -0.0594 -0.5387
 4214TIP3   OH234132   1.680   1.191   2.658  0.2500 -0.6668  0.1475
 4214TIP3    H134133   1.621   1.153   2.593  0.3541 -0.7749  0.1175
 4214TIP3    H234134   1.621   1.226   2.725  0.1436 -0.5809  0.0104
 4215TIP3   OH234135   3.470   6.137   0.765  0.3164  0.4020  0.3927
 4215TIP3    H134136   3.474   6.162   0.673 -1.2502 -0.3335  0.1011
 4215TIP3    H234137   3.530   6.062   0.772 -2.2960 -1.9764 -0.9142
 4216TIP3   OH234138   1.435   2.149  16.168  0.2136  0.5553  0.0250
 4216TIP3    H134139   1.429   2.064  16.124  0.0451  0.3613  0.4170
 4216TIP3    H234140   1.517   2.187  16.137 -0.0376  0.5382 -0.6642
 4217TIP3   OH234141   4.754   2.282  12.532  0.1002 -0.3125  0.0994
 4217TIP3    H134142   4.704   2.361  12.510  2.3783  0.8789 -1.1836
 4217TIP3    H234143   4.698   2.209  12.505 -1.2257  0.9081 -0.5519
 4218TIP3   OH234144   1.556   4.261  10.451 -0.1875  0.0349  0.2442
 4218TIP3    H134145   1.623   4.202  10.484 -1.8371 -1.6424  0.7535
 4218TIP3    H234146   1.480   4.206  10.437 -1.3818  1.8097 -0.6379
 4219TIP3   OH234147   5.168   1.015   5.491  0.1352 -0.5350  0.7987
 4219TIP3    H134148   5.125   0.938   5.454 -1.2557 -0.5703  2.3738
 4219TIP3    H234149   5.207   1.059   5.416 -2.0963 -0.8714 -0.6318
 4220TIP3   OH234150   5.235   4.037  15.517 -0.3183 -0.1924 -0.7890
 4220TIP3    H134151   5.195   4.064  15.599 -0.3681 -0.6821 -0.6470
 4220TIP3    H234152   5.293   3.964  15.541  1.1552  0.8904 -0.8821
 4221TIP3   OH234153   3.580   2.444  11.410  0.1154 -0.1595 -0.2813
 4221TIP3    H134154   3.551   2.533  11.432  2.3574  1.2393 -2.3862
 4221TIP3    H234155   3.502   2.402  11.374 -0.4798  1.8361 -1.5159
 4222TIP3   OH234156   0.190   1.199  12.103  0.3664  0.4348  0.3138
 4222TIP3    H134157   0.192   1.114  12.147  0.4360 -1.3351 -2.8089
 4222TIP3    H234158   0.230   1.183  12.018 -0.5974  3.3771 -0.8222
 4223TIP3   OH234159   5.347   5.309  11.485 -0.5673 -0.5077 -0.6917
 4223TIP3    H134160   5.436   5.332  11.511 -0.4697 -1.1618 -0.4259
 4223TIP3    H234161   5.295   5.386  11.506 -0.0427 -0.0702 -0.9772
 4224TIP3   OH234162   2.996   0.446   5.266  0.5493  0.3646 -0.0717
 4224TIP3    H134163   2.916   0.484   5.231 -0.1041 -0.7405  0.1874
 4224TIP3    H234164   2.992   0.354   5.242  1.3118  0.1118  0.7216
 4225TIP3   OH234165   3.866   4.618   6.427 -0.8122 -0.8929  0.0092
 4225TIP3    H134166   3.888   4.705   6.462  0.7225 -0.9992 -0.6127
 4225TIP3    H234167   3.871   4.560   6.503  2.5202 -1.1283 -0.2216
 4226TIP3   OH234168   1.658   5.199   2.516 -0.1255 -0.1999  0.1291
 4226TIP3    H134169   1.692   5.238   2.596 -0.3522 -1.8465  1.0738
 4226TIP3    H234170   1.575   5.160   2.542 -0.0021 -1.1194 -0.8076
 4227TIP3   OH234171   0.890   5.659  11.166 -0.0400 -0.1730 -0.0860
 4227TIP3    H134172   0.907   5.667  11.260 -0.0357  3.5583 -0.2533
 4227TIP3    H234173   0.809   5.608  11.161  0.0772 -0.6347  1.9195
 4228TIP3   OH234174   3.791   3.506   5.886  0.1539  0.4158  0.1752
 4228TIP3    H134175   3.722   3.465   5.939 -0.7027  0.8185 -0.6006
 4228TIP3    H234176   3.744   3.544   5.812  1.2393  0.5889 -0.4328
 4229TIP3   OH234177   1.076   4.885   4.567 -0.0730 -0.1615  0.1464
 4229TIP3    H134178   1.079   4.791   4.584 -1.8506 -0.1784  0.5519
 4229TIP3    H234179   1.000   4.916   4.616 -0.7598  1.1136 -1.6157
 4230TIP3   OH234180   3.871   4.682   3.099 -0.3734 -0.1523 -0.2664
 4230TIP3    H134181   3.913   4.745   3.040  1.6827 -1.5336 -0.4017
 4230TIP3    H234182   3.873   4.600   3.051 -0.8107 -0.8314  0.8425
 4231TIP3   OH234183   6.483   5.789  13.400 -0.4376  0.4651 -0.1085
 4231TIP3    H134184   6.502   5.698  13.421  1.3137  1.1157  1.5240
 4231TIP3    H234185   6.404   5.809  13.451  0.6907  0.5218  1.7311
 4232TIP3   OH234186   5.884   6.695  16.149 -0.3750 -0.1947 -0.0071
 4232TIP3    H134187   5.879   6.600  16.141  1.7416 -0.8089  3.6106
 4232TIP3    H234188   5.972   6.717  16.121 -0.3744  0.4723  0.4855
 4233TIP3   OH234189   2.425   1.943  14.234 -0.3013 -0.5806 -0.3546
 4233TIP3    H134190   2.480   2.018  14.213  0.6343 -1.5131 -1.3069
 4233TIP3    H234191   2.354   1.946  14.170  0.4180 -1.1923 -1.2066
 4234TIP3   OH234192   1.939   3.151  14.809 -0.6304  0.4963 -0.4212
 4234TIP3    H134193   1.979   3.117  14.889 -0.5634  1.4099 -0.0529
 4234TIP3    H234194   1.850   3.118  14.810 -0.9953  1.4529  0.6465
 4235TIP3   OH234195   5.521   3.977  15.766 -0.3492  0.0319 -0.2424
 4235TIP3    H134196   5.593   4.024  15.723 -0.9054  1.8606  0.7077
 4235TIP3    H234197   5.466   4.047  15.804 -1.8958 -1.3618  0.2019
 4236TIP3   OH234198   0.937   0.708  12.577  0.3066  0.0745  0.2538
 4236TIP3    H134199   0.882   0.786  12.582 -0.6965 -0.6723  2.7497
 4236TIP3    H234200   0.896   0.654  12.510  0.7842  1.4542 -1.2277
 4237TIP3   OH234201   2.358   6.519   2.861  0.1896 -0.1179 -0.0335
 4237TIP3    H134202   2.315   6.500   2.778  0.1444 -2.2265  0.4176
 4237TIP3    H234203   2.445   6.479   2.853  0.7251  0.9009  0.4293
 4238TIP3   OH234204   6.264   6.573   2.620 -0.5609  0.3660 -0.7620
 4238TIP3    H134205   6.213   6.560   2.540 -0.4619 -0.2922 -0.7261
 4238TIP3    H234206   6.201   6.611   2.682 -0.4281  1.6634 -1.3855
 4239TIP3   OH234207   0.586   5.795  11.756  0.0778 -0.0735 -0.3543
 4239TIP3    H134208   0.657   5.852  11.727 -0.3024  0.2621 -0.6396
 4239TIP3    H234209   0.626   5.737  11.820  0.4230  0.6628  0.1094
 4240TIP3   OH234210   2.861   6.734   5.056 -0.6215  0.2376  0.3423
 4240TIP3    H134211   2.873   6.825   5.028  1.0229  1.4594  4.2072
 4240TIP3    H234212   2.769   6.728   5.081 -1.1042  0.3263 -1.3370
 4241TIP3   OH234213   2.931   1.694  12.967 -0.4535 -0.0442 -0.1113
 4241TIP3    H134214   2.999   1.760  12.958  0.3903 -0.7809  0.6334
 4241TIP3    H234215   2.851   1.737  12.938  0.1980  1.0684 -0.3008
 4242TIP3   OH234216   1.938   1.939  10.822  0.8800 -0.0052  0.1806
 4242TIP3    H134217   1.957   1.897  10.738  0.0461 -0.4425  0.1989
 4242TIP3    H234218   1.984   2.022  10.819  1.5587 -0.3925 -0.3632
 4243TIP3   OH234219   1.117   2.742   0.659  0.0516  0.1968  0.2120
 4243TIP3    H134220   1.086   2.765   0.746 -0.4610  0.2035  0.0300
 4243TIP3    H234221   1.057   2.674   0.629 -0.5172  1.0339 -0.6088
 4244TIP3   OH234222   4.659   0.088  16.525 -0.4285  0.1973  0.1151
 4244TIP3    H134223   4.574   0.059  16.492  0.2034 -3.1057  1.0203
 4244TIP3    H234224   4.639   0.159  16.585 -2.4569  0.0417 -0.3089
 4245TIP3   OH234225   5.897   4.157  15.203  0.6835  0.0222 -0.5418
 4245TIP3    H134226   5.950   4.232  15.230  1.2921 -0.7979  0.6547
 4245TIP3    H234227   5.817   4.164  15.254  1.7233 -1.3805  1.4672
 4246TIP3   OH234228   0.513   3.611  14.514  0.1519 -0.0432  0.1173
 4246TIP3    H134229   0.591   3.665  14.524  0.0919 -0.1266  1.1418
 4246TIP3    H234230   0.444   3.672  14.489  0.7302 -0.1039 -1.7950
 4247TIP3   OH234231   5.762   3.066  15.784 -0.6335  0.4447 -0.3270
 4247TIP3    H134232   5.765   3.161  15.792 -1.3826  0.5429 -1.0663
 4247TIP3    H234233   5.670   3.044  15.795 -0.2846 -0.3590  1.3546
 4248TIP3   OH234234   1.429   0.295  13.849 -0.2367  0.3977  0.6602
 4248TIP3    H134235   1.500   0.263  13.793 -0.6330 -0.4216  0.6096
 4248TIP3    H234236   1.439   0.244  13.930 -0.9909  0.0046  0.5103
 4249TIP3   OH234237   6.832   1.911   4.139  0.3496  0.3568  0.1209
 4249TIP3    H134238   6.921   1.888   4.112  1.4637  3.7506  0.5111
 4249TIP3    H234239   6.784   1.920   4.057  0.6579 -0.3215 -0.1458
 4250TIP3   OH234240   2.287   3.683   2.190  0.1984 -0.3036 -0.0379
 4250TIP3    H134241   2.278   3.651   2.280 -1.2052 -0.7809 -0.3134
 4250TIP3    H234242   2.381   3.690   2.176  0.5300 -2.6835  0.6266
 4251TIP3   OH234243   1.426   5.020  15.773 -0.3944 -0.1311  0.4626
 4251TIP3    H134244   1.431   5.114  15.759 -1.0293 -0.0370  0.8421
 4251TIP3    H234245   1.507   4.986  15.735  0.6807  0.7621  1.8728
 4252TIP3   OH234246   3.580   5.947  12.630  0.4742  0.3727  0.0526
 4252TIP3    H134247   3.579   5.946  12.534  0.8729  0.7952  0.0374
 4252TIP3    H234248   3.492   5.921  12.655  0.0938  1.1359 -0.4452
 4253TIP3   OH234249   6.147   2.169  16.597  0.5579  0.0764  0.4884
 4253TIP3    H134250   6.238   2.141  16.609  0.5559  0.8007  2.5351
 4253TIP3    H234251   6.109   2.166  16.685 -1.9946 -2.0508 -0.5558
 4254TIP3   OH234252   0.559   3.007  16.527  0.7215 -0.0419  0.2414
 4254TIP3    H134253   0.647   3.003  16.490  1.0919 -1.2602  1.1916
 4254TIP3    H234254   0.572   2.995  16.621 -0.4937 -0.6063  0.3564
 4255TIP3   OH234255   5.752   5.690  12.656  0.2938  0.3557  0.3900
 4255TIP3    H134256   5.738   5.756  12.724  2.4908  1.1728  0.1479
 4255TIP3    H234257   5.669   5.643  12.650 -0.1529  0.5936  3.2607
 4256TIP3   OH234258   2.975   0.107  11.794 -0.3171 -0.0075  0.4352
 4256TIP3    H134259   2.918   0.134  11.722 -0.1858  1.4717  0.8509
 4256TIP3    H234260   3.026   0.035  11.759 -1.5457 -0.5211 -0.3503
 4257TIP3   OH234261   5.196   1.190  10.557 -0.7283  0.2008 -0.1608
 4257TIP3    H134262   5.202   1.106  10.604 -1.1606  1.4161  2.2371
 4257TIP3    H234263   5.269   1.188  10.496  0.8158 -0.9479  1.5811
 4258TIP3   OH234264   4.972   2.137  16.186 -0.5577 -0.0585 -0.2614
 4258TIP3    H134265   4.917   2.085  16.127 -0.9006 -0.5456  0.4710
 4258TIP3    H234266   4.998   2.212  16.134 -0.6015 -0.6311 -1.1403
 4259TIP3   OH234267   3.917   6.369  16.582  0.1131  0.0961  0.0292
 4259TIP3    H134268   3.860   6.446  16.571  0.3101  0.6815  2.4767
 4259TIP3    H234269   3.875   6.301  16.530 -1.1730  1.3310 -0.6280
 4260TIP3   OH234270   1.230   4.218  11.392  0.1251 -0.7806 -0.0336
 4260TIP3    H134271   1.210   4.142  11.447 -0.3272 -0.8758 -0.3197
 4260TIP3    H234272   1.149   4.234  11.344  0.5310 -0.7295 -0.7078
 4261TIP3   OH234273   4.835   5.384   1.721  0.1418 -0.6008  0.4410
 4261TIP3    H134274   4.887   5.306   1.741 -0.5573 -0.8142  1.5078
 4261TIP3    H234275   4.872   5.417   1.639  2.1961 -0.5539  1.3048
 4262TIP3   OH234276   4.548   0.318   4.098  0.0051  0.3125  0.1285
 4262TIP3    H134277   4.582   0.230   4.089 -0.6152  0.1634 -0.9356
 4262TIP3    H234278   4.534   0.330   4.192 -0.7958 -1.0718  0.2040
 4263TIP3   OH234279   1.217   3.814   1.327  0.3209 -0.2635 -0.2977
 4263TIP3    H134280   1.306   3.837   1.299  0.3606  1.1961  0.8953
 4263TIP3    H234281   1.162   3.838   1.253  0.7308  0.6137 -0.3297
 4264TIP3   OH234282   5.486   2.114   5.416  0.5703  0.0906  0.3522
 4264TIP3    H134283   5.425   2.123   5.490  1.5497 -1.1814  1.3637
 4264TIP3    H234284   5.543   2.041   5.441  0.1571 -1.2130 -2.2206
 4265TIP3   OH234285   6.079   6.292   4.936  0.3202  0.0941  0.0270
 4265TIP3    H134286   6.014   6.269   4.871  0.5335 -1.2536  0.2564
 4265TIP3    H234287   6.158   6.244   4.910 -0.3791 -2.9009  2.7932
 4266TIP3   OH234288   2.143   2.520   5.923 -0.0066 -0.2683  0.4877
 4266TIP3    H134289   2.187   2.515   6.007  2.1180  0.1965 -0.5333
 4266TIP3    H234290   2.143   2.431   5.889  0.0194 -0.2917  0.5506
 4267TIP3   OH234291   4.223   1.342   4.030 -0.7506 -0.2012  0.1580
 4267TIP3    H134292   4.183   1.396   4.099 -0.3757 -0.4881  0.6035
 4267TIP3    H234293   4.176   1.259   4.035  0.1825 -0.6923  0.9748
 4268TIP3   OH234294   2.096   3.019  10.970 -0.2136  0.5304 -0.2488
 4268TIP3    H134295   2.132   2.967  11.042  0.6853  0.2361 -0.8808
 4268TIP3    H234296   2.122   3.109  10.989  3.3260  0.0616 -1.9855
 4269TIP3   OH234297   4.790   4.676   2.635 -0.2295  0.3691 -0.2168
 4269TIP3    H134298   4.743   4.741   2.688 -0.8957  0.0909 -0.4444
 4269TIP3    H234299   4.778   4.705   2.544 -0.8805 -0.2669 -0.3531
 4270TIP3   OH234300   2.968   6.006  12.632 -0.6360  0.3848  0.0781
 4270TIP3    H134301   2.986   5.996  12.726 -0.9493  0.5242  0.1532
 4270TIP3    H234302   2.966   6.101  12.618 -2.0987  0.3950  0.2257
 4271TIP3   OH234303   5.596   5.161  14.786 -0.0416 -0.2277 -0.1914
 4271TIP3    H134304   5.595   5.107  14.707  2.2466 -0.3658 -0.1945
 4271TIP3    H234305   5.638   5.243  14.759 -1.3747  0.6672  0.3535
 4272TIP3   OH234306   0.245   5.634  16.470  0.0155 -0.2830 -0.0989
 4272TIP3    H134307   0.257   5.539  16.466  1.5358 -0.1568  0.5906
 4272TIP3    H234308   0.285   5.659  16.553 -2.6639  0.6878  1.0063
 4273TIP3   OH234309   0.692   5.001  13.819  0.0626  0.6699  0.0723
 4273TIP3    H134310   0.776   5.044  13.802 -0.1379  0.5646 -1.2652
 4273TIP3    H234311   0.641   5.068  13.865  0.7530  0.8433  0.6168
 4274TIP3   OH234312   3.014   4.167   1.153 -0.4721  0.1960  0.1252
 4274TIP3    H134313   3.054   4.253   1.139  1.8332 -0.9804 -1.0444
 4274TIP3    H234314   3.050   4.113   1.083 -1.0495 -1.9963  1.4440
 4275TIP3   OH234315   0.622   5.797  15.788  0.3080 -0.1271 -0.4622
 4275TIP3    H134316   0.559   5.731  15.816  0.8897  0.0248  1.3024
 4275TIP3    H234317   0.707   5.762  15.815  0.7238  0.8670 -0.4235
 4276TIP3   OH234318   4.943   3.301  15.324  0.0704  0.0729 -0.2310
 4276TIP3    H134319   4.940   3.358  15.401  0.6554 -0.2726  0.0551
 4276TIP3    H234320   5.037   3.292  15.305  0.0713 -1.5813  0.3341
 4277TIP3   OH234321   3.193   6.668  16.674 -0.1847 -0.4033 -0.4507
 4277TIP3    H134322   3.197   6.574  16.654 -0.5781  0.0699 -3.1559
 4277TIP3    H234323   3.101   6.692  16.662  0.2952  0.7414 -2.1818
 4278TIP3   OH234324   4.484   6.606  13.992 -0.2265  0.0729 -0.2425
 4278TIP3    H134325   4.495   6.702  13.993 -0.3458  0.0845 -0.1072
 4278TIP3    H234326   4.448   6.585  14.078 -1.6544  0.0779 -0.8104
 4279TIP3   OH234327   5.515   0.262   3.767 -0.1350 -0.0549  0.0126
 4279TIP3    H134328   5.563   0.182   3.786 -1.0329 -0.8826 -1.0368
 4279TIP3    H234329   5.490   0.297   3.852  1.2935 -0.2250  0.5255
 4280TIP3   OH234330   1.779   0.729   4.801  0.0858 -0.3785 -1.3593
 4280TIP3    H134331   1.732   0.777   4.733 -1.7030 -0.1695 -0.0545
 4280TIP3    H234332   1.871   0.734   4.775 -0.2973  1.6552 -2.5612
 4281TIP3   OH234333   4.039   4.712   1.036  0.0671 -0.0833  0.5050
 4281TIP3    H134334   3.973   4.771   0.999  0.5345 -0.8512 -1.6893
 4281TIP3    H234335   4.120   4.737   0.991  0.5059 -1.5912  0.4276
 4282TIP3   OH234336   3.743   6.302  15.608 -0.2320  0.3176  0.2584
 4282TIP3    H134337   3.765   6.391  15.580  3.9375 -0.3203  0.8675
 4282TIP3    H234338   3.724   6.311  15.701  0.8629  0.5533  0.4786
 4283TIP3   OH234339   4.301   5.033  11.952  0.1387  0.5598  0.3548
 4283TIP3    H134340   4.283   5.124  11.977  2.3544  1.0538  0.4106
 4283TIP3    H234341   4.243   5.016  11.879  0.1936  2.2950 -0.1300
 4284TIP3   OH234342   2.971   5.520   1.682  0.1745 -0.7419  0.1259
 4284TIP3    H134343   3.058   5.512   1.644  0.9571  1.3096  1.3195
 4284TIP3    H234344   2.986   5.510   1.777 -0.5168  1.5857  0.5397
 4285TIP3   OH234345   5.629   1.902  12.226 -1.0278 -0.6292  0.0414
 4285TIP3    H134346   5.723   1.888  12.241 -1.1877 -0.5127  1.1881
 4285TIP3    H234347   5.612   1.855  12.144 -0.3089 -2.0949  0.6933
 4286TIP3   OH234348   3.482   4.572  16.715  0.2700  0.7186 -0.0841
 4286TIP3    H134349   3.405   4.542  16.765 -0.8808  1.4141 -1.3683
 4286TIP3    H234350   3.550   4.509  16.737 -0.7858 -0.1861  0.7643
 4287TIP3   OH234351   5.329   6.194  15.128  0.1750 -0.3352  0.0339
 4287TIP3    H134352   5.355   6.238  15.209  0.3762  0.5393 -0.4870
 4287TIP3    H234353   5.248   6.148  15.150  0.5613 -0.6168  0.8875
 4288TIP3   OH234354   0.886   0.802   5.457  0.3910  0.4174  0.1303
 4288TIP3    H134355   0.793   0.827   5.461  0.2100 -0.1979 -0.2073
 4288TIP3    H234356   0.912   0.796   5.549 -0.9838 -3.3008  0.4276
 4289TIP3   OH234357   5.094   5.134   1.985 -0.7671  0.3594  0.0907
 4289TIP3    H134358   5.057   5.188   1.916 -1.9852  0.5030  0.8317
 4289TIP3    H234359   5.050   5.049   1.975  1.3348 -0.6522 -1.2509
 4290TIP3   OH234360   6.235   0.089   4.077  0.1245  0.0782  0.3460
 4290TIP3    H134361   6.159   0.031   4.081 -1.2505  1.8594  1.7166
 4290TIP3    H234362   6.244   0.112   3.985 -2.7229  1.9030  0.4111
 4291TIP3   OH234363   0.167   0.449   6.351  0.4511 -0.5324 -0.0501
 4291TIP3    H134364   0.128   0.488   6.273 -0.6650  0.0392  0.7788
 4291TIP3    H234365   0.151   0.355   6.341 -0.5410 -0.3717 -0.0573
 4292TIP3   OH234366   6.831   5.963   0.979 -0.3287  0.1457  0.0941
 4292TIP3    H134367   6.825   5.950   1.074  1.2311  1.5064  0.4385
 4292TIP3    H234368   6.923   5.980   0.963 -0.2464 -1.7687 -1.9663
 4293TIP3   OH234369   0.430   4.263  12.287 -0.2423  0.0001  0.3595
 4293TIP3    H134370   0.425   4.273  12.382  1.2444  1.7185  0.3098
 4293TIP3    H234371   0.506   4.207  12.273  0.9622  1.5991  0.1721
 4294TIP3   OH234372   0.599   4.521  15.367  0.5782 -0.0802  0.4688
 4294TIP3    H134373   0.654   4.450  15.334  0.3082 -1.0070  1.8867
 4294TIP3    H234374   0.629   4.599  15.321  2.4986 -0.7097  0.5579
 4295TIP3   OH234375   1.921   4.859   2.715  0.1790 -0.2261  0.3798
 4295TIP3    H134376   1.954   4.935   2.668 -0.5267 -0.2901 -0.2391
 4295TIP3    H234377   1.879   4.805   2.648 -0.0706 -0.7539  0.9408
 4296TIP3   OH234378   3.398   4.895   3.928 -0.0852  0.3603 -0.0463
 4296TIP3    H134379   3.410   4.985   3.898  1.0294  0.7982  1.6405
 4296TIP3    H234380   3.431   4.894   4.017 -2.6911 -1.0455  1.0204
 4297TIP3   OH234381   0.472   5.421  16.212 -0.1045  0.5947  0.2689
 4297TIP3    H134382   0.498   5.513  16.215 -0.0838  0.6400 -0.8116
 4297TIP3    H234383   0.506   5.390  16.128 -1.7084  0.1007 -0.2267
 4298TIP3   OH234384   5.048   1.009   4.332  0.0756  0.0071  0.4455
 4298TIP3    H134385   5.066   1.083   4.391  0.4513  1.3056 -1.2334
 4298TIP3    H234386   4.955   1.018   4.311 -0.1881 -0.7696  1.2190
 4299TIP3   OH234387   4.600   4.175   5.608 -0.1321  0.2776 -0.4793
 4299TIP3    H134388   4.641   4.089   5.619 -1.8054 -0.5004 -0.0622
 4299TIP3    H234389   4.612   4.218   5.693  2.1530  1.1768 -1.1695
 4300TIP3   OH234390   6.354   6.685  16.235 -0.1973  0.6018 -0.1968
 4300TIP3    H134391   6.445   6.655  16.241 -0.9833 -2.4682 -1.5682
 4300TIP3    H234392   6.321   6.676  16.324  0.1332 -1.0104 -0.2004
 4301TIP3   OH234393   5.512   1.813   3.574  0.2461  0.5651 -0.5959
 4301TIP3    H134394   5.512   1.726   3.535  1.2860  0.7365 -1.0090
 4301TIP3    H234395   5.561   1.868   3.513  0.4615  1.2166  0.1327
 4302TIP3   OH234396   0.330   4.585  12.779  0.3223  0.4558  0.2606
 4302TIP3    H134397   0.403   4.568  12.720  1.0706  1.8958  0.7341
 4302TIP3    H234398   0.264   4.626  12.724  0.1451 -0.1804 -0.0124
 4303TIP3   OH234399   2.326   4.191   4.925 -0.1490  0.0688 -0.3037
 4303TIP3    H134400   2.365   4.264   4.974 -0.5237 -0.2790  0.5251
 4303TIP3    H234401   2.397   4.158   4.870  0.4801  0.0133  0.5325
 4304TIP3   OH234402   5.604   4.666   4.602 -0.2614 -0.3458  0.0970
 4304TIP3    H134403   5.574   4.733   4.542 -1.5038  0.6200  1.7032
 4304TIP3    H234404   5.562   4.585   4.572  0.2718 -0.1890 -1.1289
 4305TIP3   OH234405   1.099   0.825   2.033  0.3392 -0.2127 -0.5451
 4305TIP3    H134406   1.069   0.868   2.113  0.0826  0.0311 -0.7682
 4305TIP3    H234407   1.187   0.794   2.054  1.4397  2.2937 -1.0316
 4306TIP3   OH234408   3.555   6.085   2.959 -0.5823 -0.0751  0.1158
 4306TIP3    H134409   3.538   6.077   3.053 -0.0840  1.1209  0.3201
 4306TIP3    H234410   3.600   6.004   2.936  1.0507  0.4493  1.3262
 4307TIP3   OH234411   6.390   5.740   5.501 -0.2753 -0.9863 -0.1446
 4307TIP3    H134412   6.364   5.659   5.456 -1.3082 -1.3443  1.0548
 4307TIP3    H234413   6.462   5.713   5.558  1.0007 -0.5399 -1.4430
 4308TIP3   OH234414   1.264   3.174  13.806 -0.7270 -0.0280 -0.1499
 4308TIP3    H134415   1.285   3.090  13.764  0.2331 -1.2412  2.5246
 4308TIP3    H234416   1.236   3.150  13.894 -1.7167  2.4257  0.2851
 4309TIP3   OH234417   2.893   4.184   3.886 -0.2851 -0.0213 -0.4240
 4309TIP3    H134418   2.980   4.143   3.882 -0.0475  0.1082  2.0006
 4309TIP3    H234419   2.834   4.111   3.902 -0.2549  0.1783  0.6768
 4310TIP3   OH234420   2.940   3.504  14.335  0.7671  0.0493 -0.2213
 4310TIP3    H134421   2.989   3.533  14.258  0.2437  1.4838 -0.0401
 4310TIP3    H234422   2.849   3.527  14.315  0.2627 -1.7619 -0.1693
 4311TIP3   OH234423   4.133   0.357   4.419 -0.2885  0.5455  0.6308
 4311TIP3    H134424   4.202   0.402   4.371 -0.1906  1.8253  1.8844
 4311TIP3    H234425   4.091   0.300   4.355  0.9921  0.8277 -0.4947
 4312TIP3   OH234426   3.075   4.478   5.849  0.1042  0.0699  0.0980
 4312TIP3    H134427   3.060   4.507   5.759  0.6575  0.1946  0.0436
 4312TIP3    H234428   3.165   4.444   5.849 -0.5557 -1.8229  0.1080
 4313TIP3   OH234429   1.164   3.488  10.659  0.1333 -0.0982 -0.2274
 4313TIP3    H134430   1.095   3.553  10.673 -0.1090 -0.4648  0.2963
 4313TIP3    H234431   1.126   3.405  10.689  1.2407 -0.1039  1.2380
 4314TIP3   OH234432   1.785   5.415   4.806  0.1747 -0.0073  0.0100
 4314TIP3    H134433   1.746   5.459   4.881  0.3418 -0.0392  0.1159
 4314TIP3    H234434   1.736   5.448   4.730  0.6106  0.7184  0.0370
 4315TIP3   OH234435   3.277   5.646  16.052 -0.3662  0.1397  0.0373
 4315TIP3    H134436   3.215   5.711  16.021  0.6327  1.2075  0.2100
 4315TIP3    H234437   3.309   5.680  16.135 -0.6365 -1.1275  0.6921
 4316TIP3   OH234438   4.586   2.596   5.555  0.8981 -0.0329 -0.2671
 4316TIP3    H134439   4.574   2.651   5.632  0.8168 -1.2251  0.5898
 4316TIP3    H234440   4.521   2.628   5.492 -0.9547 -0.7956  1.1639
 4317TIP3   OH234441   0.269   3.719   3.218 -0.5964  0.0783  0.0387
 4317TIP3    H134442   0.269   3.809   3.250 -1.4101 -0.1570  0.7378
 4317TIP3    H234443   0.183   3.708   3.177 -0.0720 -0.0430 -1.0696
 4318TIP3   OH234444   4.920   5.352  14.254 -0.2743  0.0105  0.2931
 4318TIP3    H134445   4.999   5.298  14.249  1.4951  2.4061  0.8609
 4318TIP3    H234446   4.897   5.370  14.162 -0.0784 -0.5431  0.1301
 4319TIP3   OH234447   1.131   5.564  13.439  0.4925  0.7895 -0.1591
 4319TIP3    H134448   1.208   5.516  13.470  0.4753  0.4924 -0.5740
 4319TIP3    H234449   1.088   5.595  13.519  0.3608 -0.1160  0.1320
 4320TIP3   OH234450   3.107   2.510  11.176  0.0131  0.0992 -0.0001
 4320TIP3    H134451   3.059   2.592  11.189  0.5199  0.8410 -2.3246
 4320TIP3    H234452   3.040   2.445  11.158 -0.2514  0.7405 -1.4185
 4321TIP3   OH234453   4.514   3.883  12.707  0.1883  0.5374  0.2183
 4321TIP3    H134454   4.489   3.891  12.799 -2.9107 -1.1013 -0.3535
 4321TIP3    H234455   4.449   3.933  12.659  0.8299  0.0992 -1.1745
 4322TIP3   OH234456   0.746   6.832   4.952 -0.1308 -0.2190  0.2683
 4322TIP3    H134457   0.716   6.743   4.934 -1.2908 -0.2990  2.2390
 4322TIP3    H234458   0.734   6.879   4.869 -2.2948 -1.2103 -0.0641
 4323TIP3   OH234459   5.437   2.327  14.150 -0.1665  0.2252 -0.4326
 4323TIP3    H134460   5.438   2.263  14.079 -1.1555 -2.2670  1.6305
 4323TIP3    H234461   5.345   2.352  14.158  0.0742  1.1983 -0.5798
 4324TIP3   OH234462   3.751   1.625   5.322  0.2405 -0.6185 -0.3410
 4324TIP3    H134463   3.700   1.595   5.398  0.7186 -1.3527 -0.2999
 4324TIP3    H234464   3.697   1.694   5.283  0.7231  0.9721  1.6178
 4325TIP3   OH234465   4.173   2.283  11.691 -0.2326 -0.2361  0.0555
 4325TIP3    H134466   4.219   2.350  11.741  2.0007 -2.3888  1.0939
 4325TIP3    H234467   4.108   2.331  11.640  1.4611  2.7179  0.4910
 4326TIP3   OH234468   1.251   4.670   3.104  0.0370 -0.3639 -0.2517
 4326TIP3    H134469   1.288   4.586   3.076 -3.1406 -0.8474 -3.8776
 4326TIP3    H234470   1.237   4.718   3.022 -2.1878  1.9446  1.3363
 4327TIP3   OH234471   6.101   6.607   2.136  0.2691 -0.6442 -0.0876
 4327TIP3    H134472   6.195   6.595   2.123 -0.0395 -1.3062 -1.9477
 4327TIP3    H234473   6.066   6.622   2.048 -1.7028 -2.8487  0.2271
 4328TIP3   OH234474   1.161   1.122   1.901  0.0005  0.3233  0.1532
 4328TIP3    H134475   1.178   1.210   1.868  0.6926 -0.2912 -1.1849
 4328TIP3    H234476   1.243   1.075   1.889 -0.1097 -0.3084  1.5952
 4329TIP3   OH234477   0.429   5.487   4.995  0.5419  0.0234 -0.4213
 4329TIP3    H134478   0.424   5.397   4.962  0.3029 -0.9021  1.9762
 4329TIP3    H234479   0.497   5.485   5.061  0.4229  1.5991 -0.2122
 4330TIP3   OH234480   6.271   1.037  11.819 -0.0798 -0.2054 -0.0624
 4330TIP3    H134481   6.254   0.978  11.893  0.3091  0.9790  1.0263
 4330TIP3    H234482   6.185   1.072  11.796 -0.0301  0.6124  0.9069
 4331TIP3   OH234483   0.554   0.858   0.451  0.1246 -0.0060  0.0097
 4331TIP3    H134484   0.576   0.778   0.404  1.3457  0.5782 -0.4592
 4331TIP3    H234485   0.562   0.834   0.544 -0.8522 -0.7714 -0.0904
 4332TIP3   OH234486   1.907   0.125  11.840 -0.2259  0.6488 -0.1271
 4332TIP3    H134487   1.869   0.174  11.913 -0.8942  2.6301 -1.7228
 4332TIP3    H234488   1.977   0.181  11.807 -0.0336 -0.1320 -1.1082
 4333TIP3   OH234489   3.830   1.768  12.155 -0.3734  0.0684 -0.2412
 4333TIP3    H134490   3.772   1.706  12.200 -0.5058  0.6820  0.4466
 4333TIP3    H234491   3.810   1.853  12.195 -0.4963  0.6350 -1.4617
 4334TIP3   OH234492   3.530   0.654   4.523  0.8077  0.0752 -0.5870
 4334TIP3    H134493   3.580   0.599   4.463  1.7690 -0.2641  0.4750
 4334TIP3    H234494   3.578   0.647   4.606  0.4317  1.8086 -0.1984
 4335TIP3   OH234495   0.125   4.008   6.175 -0.0008  0.6644 -0.1000
 4335TIP3    H134496   0.186   3.935   6.187 -0.8640 -0.0490  0.0697
 4335TIP3    H234497   0.038   3.968   6.181 -0.5379  1.2138 -2.8404
 4336TIP3   OH234498   2.931   0.208   3.396 -0.2214 -0.1631 -0.0457
 4336TIP3    H134499   2.931   0.133   3.336 -0.1673  1.0720 -1.6678
 4336TIP3    H234500   2.840   0.215   3.426 -0.6537  0.2277 -1.3738
 4337TIP3   OH234501   3.156   2.973  13.595  0.0463 -0.0937 -0.4377
 4337TIP3    H134502   3.139   2.972  13.501  0.4804 -1.1571 -0.5240
 4337TIP3    H234503   3.243   2.932  13.604  1.2357  2.3888  0.2141
 4338TIP3   OH234504   1.781   3.812  15.026 -0.0256 -0.2463  0.5684
 4338TIP3    H134505   1.786   3.777  14.937  2.0411  1.1552  0.0595
 4338TIP3    H234506   1.819   3.743  15.081 -0.8041 -0.8912  0.3122
 4339TIP3   OH234507   3.540   6.723  10.514 -0.5884  0.0240  0.5401
 4339TIP3    H134508   3.619   6.770  10.540 -0.9119 -0.8883  3.6566
 4339TIP3    H234509   3.495   6.783  10.454  0.2693  2.5737  2.2684
 4340TIP3   OH234510   5.403   6.822  13.018 -0.2112  0.0282  0.0159
 4340TIP3    H134511   5.353   6.835  13.099  2.0418 -0.3647  1.5672
 4340TIP3    H234512   5.399   6.727  13.003  1.0815 -0.1873  0.8891
 4341TIP3   OH234513   5.626   6.091  14.759 -0.1676 -0.2365  0.1422
 4341TIP3    H134514   5.554   6.129  14.808  0.1695  0.6767 -0.0466
 4341TIP3    H234515   5.587   6.058  14.679 -0.6080 -1.1019  0.7033
 4342TIP3   OH234516   3.671   4.427   3.044  0.2572  0.0258  0.3213
 4342TIP3    H134517   3.646   4.479   3.120  0.4428 -0.3237  0.6289
 4342TIP3    H234518   3.602   4.361   3.037  0.9639 -0.8267  1.0613
 4343TIP3   OH234519   4.336   2.294  12.899  0.1851  0.5657  0.2630
 4343TIP3    H134520   4.254   2.247  12.884  0.6660  0.3141 -1.9626
 4343TIP3    H234521   4.397   2.227  12.929  0.6112 -0.1161 -1.9730
 4344TIP3   OH234522   6.042   4.847   3.864 -0.1425 -0.4036  0.0772
 4344TIP3    H134523   6.057   4.919   3.926 -1.4101 -0.2815  0.2754
 4344TIP3    H234524   6.039   4.768   3.920 -1.3611 -0.2850  0.2165
 4345TIP3   OH234525   4.908   3.059  13.008 -0.0377 -0.1661 -0.2901
 4345TIP3    H134526   4.914   2.971  12.970 -1.3549 -0.5177  0.2410
 4345TIP3    H234527   4.979   3.063  13.072  0.3957 -0.6217 -0.7334
 4346TIP3   OH234528   4.570   0.509   6.298  0.9315 -0.6965 -0.4523
 4346TIP3    H134529   4.627   0.571   6.344  0.7233  0.9239 -2.2548
 4346TIP3    H234530   4.578   0.533   6.206 -1.1642 -1.7100 -0.9512
 4347TIP3   OH234531   3.838   6.426   1.245 -0.1693  0.0337  0.2878
 4347TIP3    H134532   3.915   6.463   1.288  0.5436 -0.1250 -0.8099
 4347TIP3    H234533   3.766   6.483   1.272  0.6463  1.3117 -0.1135
 4348TIP3   OH234534   1.633   4.209   0.263  0.0311 -0.1873  0.4070
 4348TIP3    H134535   1.557   4.267   0.270 -0.0304 -0.3131  0.7824
 4348TIP3    H234536   1.599   4.122   0.284  0.0405 -0.4287 -0.5296
 4349TIP3   OH234537   3.225   0.305   1.831  0.6309 -0.1821  0.5876
 4349TIP3    H134538   3.275   0.371   1.881 -0.6903  0.1403  1.5417
 4349TIP3    H234539   3.277   0.225   1.839  1.3746  0.3201  0.9177
 4350TIP3   OH234540   4.347   2.219   4.642  0.2646 -0.1929 -0.7528
 4350TIP3    H134541   4.298   2.236   4.562  0.3949 -0.7637 -0.9583
 4350TIP3    H234542   4.357   2.124   4.644  1.3390 -0.0907 -0.7109
 4351TIP3   OH234543   1.707   4.631  10.746 -0.3188 -0.1409  0.0125
 4351TIP3    H134544   1.692   4.638  10.652  2.1681  0.5288 -0.4040
 4351TIP3    H234545   1.704   4.537  10.764  0.3447 -0.3627 -0.9721
 4352TIP3   OH234546   2.506   2.291  16.534  0.4059  0.3290  0.5680
 4352TIP3    H134547   2.492   2.327  16.621  0.8571 -0.9275  1.1805
 4352TIP3    H234548   2.428   2.318  16.484  0.7327  2.1304  0.9683
 4353TIP3   OH234549   4.161   5.094   4.365 -0.0603  0.5336  0.4281
 4353TIP3    H134550   4.216   5.072   4.440  0.1000  0.2676  0.2285
 4353TIP3    H234551   4.131   5.010   4.331  3.0337  0.3335 -2.2453
 4354TIP3   OH234552   1.335   4.219  14.566  0.2242 -0.2261  0.3929
 4354TIP3    H134553   1.309   4.137  14.607  0.4089  0.3317  1.6577
 4354TIP3    H234554   1.347   4.280  14.638  0.5645  0.7921 -0.4890
 4355TIP3   OH234555   2.996   6.394   1.638 -0.0112 -0.1113  0.2322
 4355TIP3    H134556   2.995   6.431   1.550  0.4148 -0.8648 -0.0999
 4355TIP3    H234557   2.910   6.418   1.675 -0.1357  0.3258 -0.3319
 4356TIP3   OH234558   4.243   5.484   3.459  0.2038 -0.2234 -0.3435
 4356TIP3    H134559   4.255   5.461   3.551 -0.2036  1.4719  0.1797
 4356TIP3    H234560   4.331   5.507   3.428  0.1930  0.1481 -0.0979
 4357TIP3   OH234561   1.413   3.363   3.323  0.5111  0.0940  0.0912
 4357TIP3    H134562   1.402   3.453   3.356 -0.2180  0.6883 -1.6557
 4357TIP3    H234563   1.362   3.361   3.242  2.3893 -1.2252 -1.1365
 4358TIP3   OH234564   6.724   1.641  14.758 -0.5728 -0.5976  0.1648
 4358TIP3    H134565   6.787   1.662  14.689  0.0465  0.0843  0.9207
 4358TIP3    H234566   6.666   1.717  14.762 -0.4981 -0.5574  0.5127
 4359TIP3   OH234567   3.126   3.998   3.509  0.4104  0.0831 -0.7569
 4359TIP3    H134568   3.219   3.995   3.530  0.3156  2.7067  0.4498
 4359TIP3    H234569   3.082   3.965   3.588  0.2869  0.0367 -0.8445
 4360TIP3   OH234570   5.005   6.147  15.741  0.0149 -0.5439 -1.2071
 4360TIP3    H134571   4.955   6.178  15.816  1.7773  1.4392 -0.7419
 4360TIP3    H234572   4.979   6.055  15.730 -1.7667 -0.3058  0.5351
 4361TIP3   OH234573   1.969   2.228  13.199 -0.5751  0.8461 -0.2335
 4361TIP3    H134574   1.992   2.239  13.107  1.3443 -0.8192 -0.0215
 4361TIP3    H234575   1.874   2.213  13.199 -0.2424 -2.0104 -2.2828
 4362TIP3   OH234576   6.089   1.478  11.378 -0.2058  0.0164  0.1508
 4362TIP3    H134577   6.105   1.426  11.300  1.6181 -0.5039  0.8239
 4362TIP3    H234578   6.089   1.569  11.347 -0.5455 -0.2281 -0.5872
 4363TIP3   OH234579   2.972   1.585   4.513  0.1063  0.4850 -0.6736
 4363TIP3    H134580   2.996   1.627   4.596 -1.4495  0.0642  0.0297
 4363TIP3    H234581   3.013   1.640   4.446  0.7952  1.2560  0.3406
 4364TIP3   OH234582   4.019   1.479   3.467 -0.1828  0.0733  0.5539
 4364TIP3    H134583   4.051   1.502   3.554 -1.5326 -0.8719  1.3544
 4364TIP3    H234584   4.097   1.455   3.417  0.6071  0.5858  1.5132
 4365TIP3   OH234585   5.943   3.452  13.831 -0.1073 -0.3040 -0.5932
 4365TIP3    H134586   5.925   3.543  13.852 -1.7026 -0.9832  1.3453
 4365TIP3    H234587   6.023   3.431  13.879 -0.2892 -0.1704 -0.2271
 4366TIP3   OH234588   4.575   6.746   5.521 -0.3131  0.2421 -0.1980
 4366TIP3    H134589   4.632   6.669   5.524 -2.6472 -1.6519 -1.3349
 4366TIP3    H234590   4.558   6.760   5.428 -0.9640  1.3623  0.0662
 4367TIP3   OH234591   4.173   1.737  15.999  0.6450 -0.2320  0.0802
 4367TIP3    H134592   4.083   1.740  16.029  0.8035  0.5736  0.5019
 4367TIP3    H234593   4.202   1.648  16.016  0.2895 -0.1709  1.0104
 4368TIP3   OH234594   5.876   2.226   1.098 -0.6927  0.3969  0.0713
 4368TIP3    H134595   5.840   2.259   1.180 -0.6524 -1.2334  0.7771
 4368TIP3    H234596   5.936   2.156   1.124 -3.0849 -2.4372 -1.4335
 4369TIP3   OH234597   3.732   6.764  11.333  0.3813  0.5586  0.6015
 4369TIP3    H134598   3.814   6.724  11.306  0.9797  1.2755  1.2853
 4369TIP3    H234599   3.741   6.774  11.428 -1.1177 -0.7148  0.9168
 4370TIP3   OH234600   2.250   4.960   3.148  0.5290  0.3722 -0.1488
 4370TIP3    H134601   2.325   4.904   3.125  0.7553 -0.2634  1.9543
 4370TIP3    H234602   2.173   4.909   3.122  0.7646  0.8087 -1.8447
 4371TIP3   OH234603   2.115   6.801  15.414  0.0858  0.0791 -0.3199
 4371TIP3    H134604   2.064   6.877  15.385  0.1498  0.1436 -0.2660
 4371TIP3    H234605   2.135   6.753  15.334 -0.6035 -0.2894 -0.2717
 4372TIP3   OH234606   1.868   1.099  16.386  0.0474 -0.4992 -0.2392
 4372TIP3    H134607   1.835   1.025  16.336  1.0856 -0.5263 -0.9322
 4372TIP3    H234608   1.805   1.169  16.371 -0.7357 -1.1201  0.1039
 4373TIP3   OH234609   2.395   6.522  14.454 -0.0859  0.2592 -0.1227
 4373TIP3    H134610   2.356   6.478  14.530 -0.3276  1.2662  0.3522
 4373TIP3    H234611   2.394   6.615  14.477  0.2961  0.5313 -1.1598
 4374TIP3   OH234612   3.847   2.532  15.279 -0.5103 -0.4293 -0.1398
 4374TIP3    H134613   3.875   2.615  15.316 -0.7132 -0.5889  0.3780
 4374TIP3    H234614   3.928   2.486  15.257 -0.4021  0.0128 -0.6702
 4375TIP3   OH234615   5.434   6.239  12.588  0.3525 -0.3320  0.5154
 4375TIP3    H134616   5.350   6.235  12.632  1.4503 -0.9519  2.6623
 4375TIP3    H234617   5.415   6.210  12.498 -1.5385 -1.3224  1.1836
 4376TIP3   OH234618   1.455   2.840   3.501  0.0137 -0.5994  0.0237
 4376TIP3    H134619   1.367   2.830   3.538 -0.1275  0.1617 -0.0894
 4376TIP3    H234620   1.441   2.846   3.407 -0.0153  1.3977  0.1134
 4377TIP3   OH234621   4.258   3.345   5.345  0.5310  0.4868  0.1301
 4377TIP3    H134622   4.167   3.341   5.375  0.3908 -1.5596 -0.3789
 4377TIP3    H234623   4.310   3.318   5.421  0.3677 -2.0654 -0.5557
 4378TIP3   OH234624   1.154   4.713  12.898  0.0073  0.0961 -0.1255
 4378TIP3    H134625   1.111   4.751  12.821  0.9846  0.4237 -0.5310
 4378TIP3    H234626   1.247   4.709  12.873  0.6590  1.9338  1.6989
 4379TIP3   OH234627   0.047   0.359  16.993  0.0487  0.4676 -0.6321
 4379TIP3    H134628   0.027   0.406  17.074 -0.1576  0.6764 -0.8017
 4379TIP3    H234629   0.139   0.380  16.975  0.8000 -1.4174  0.7616
 4380TIP3   OH234630   5.295   2.759   6.195  0.2868 -0.3676 -0.0201
 4380TIP3    H134631   5.337   2.713   6.268 -0.7550 -1.0881  0.1550
 4380TIP3    H234632   5.294   2.695   6.124 -1.1253 -0.6411  0.2088
 4381TIP3   OH234633   2.134   3.895  11.833  0.8174  0.3589  0.1432
 4381TIP3    H134634   2.045   3.919  11.807  1.1882 -0.5499 -2.2375
 4381TIP3    H234635   2.130   3.889  11.929 -2.2882 -1.8592  0.0332
 4382TIP3   OH234636   0.698   5.257  12.488 -0.8029 -0.6343 -0.4545
 4382TIP3    H134637   0.715   5.342  12.445  1.3918  0.8313  2.9348
 4382TIP3    H234638   0.619   5.272  12.541 -0.1745 -0.5532  0.4707
 4383TIP3   OH234639   1.429   3.863  16.800 -0.3476  0.0821  0.5573
 4383TIP3    H134640   1.343   3.900  16.816 -0.2526  0.3915  0.3622
 4383TIP3    H234641   1.415   3.799  16.730 -1.1393 -2.7417  3.0950
 4384TIP3   OH234642   0.639   3.370  14.968  0.4630  0.3760  0.4820
 4384TIP3    H134643   0.601   3.386  14.881 -2.4332  0.1268  1.5661
 4384TIP3    H234644   0.602   3.439  15.023  0.5375 -0.6778  1.9223
 4385TIP3   OH234645   5.814   0.813   2.384  0.0167 -0.1061 -0.2252
 4385TIP3    H134646   5.778   0.752   2.449 -0.3293  0.1671 -0.1601
 4385TIP3    H234647   5.825   0.895   2.431  0.2900 -0.0588 -0.3683
 4386TIP3   OH234648   2.137   6.686   4.208 -0.1131 -0.1726 -0.5105
 4386TIP3    H134649   2.056   6.737   4.205  0.9600  1.5757 -0.8951
 4386TIP3    H234650   2.108   6.595   4.203 -2.0303  0.4239 -0.9660
 4387TIP3   OH234651   0.611   2.744   0.502 -0.2374  0.3653  0.1009
 4387TIP3    H134652   0.641   2.807   0.437 -0.5469  1.4309  0.9692
 4387TIP3    H234653   0.575   2.672   0.450  1.2101  0.3250 -0.9211
 4388TIP3   OH234654   0.854   3.000   5.606 -0.5349 -0.3676 -0.3664
 4388TIP3    H134655   0.793   3.044   5.546 -4.4085 -1.6517  2.2659
 4388TIP3    H234656   0.898   3.072   5.652 -0.5088  0.6040 -1.8052
 4389TIP3   OH234657   2.812   2.150   1.346  0.3244 -0.0347  0.5204
 4389TIP3    H134658   2.903   2.159   1.319  0.0133  1.2795 -0.1630
 4389TIP3    H234659   2.786   2.063   1.317  1.4489 -0.5552  1.0273
 4390TIP3   OH234660   4.924   4.332  11.269  0.0036  0.1475  0.2647
 4390TIP3    H134661   4.884   4.309  11.185  0.4920  1.7397 -0.4541
 4390TIP3    H234662   5.012   4.363  11.245  0.7203 -0.7894  1.5344
 4391TIP3   OH234663   0.499   1.586   5.083 -0.3386  0.8199  0.6759
 4391TIP3    H134664   0.543   1.595   4.999 -0.6408  0.2704  0.4558
 4391TIP3    H234665   0.472   1.675   5.106 -0.1131  0.9936  0.2718
 4392TIP3   OH234666   5.636   4.769  13.158  0.0195 -1.0246 -0.1145
 4392TIP3    H134667   5.687   4.827  13.101 -1.2667  0.2603  0.0006
 4392TIP3    H234668   5.690   4.760  13.237 -0.0199  0.5700  0.1406
 4393TIP3   OH234669   6.451   4.633  13.136  0.1008 -0.0701  0.1109
 4393TIP3    H134670   6.482   4.563  13.194  1.6499 -0.3454 -0.9942
 4393TIP3    H234671   6.402   4.692  13.194  1.2177 -0.5602  1.6240
 4394TIP3   OH234672   5.956   2.886  12.957  0.7826  0.0985 -0.2200
 4394TIP3    H134673   5.892   2.851  13.020  0.9822  1.0103  0.5072
 4394TIP3    H234674   5.903   2.909  12.881  0.4552 -0.5053 -0.1852
 4395TIP3   OH234675   5.280   0.081   3.628 -0.4963  0.0897 -0.5512
 4395TIP3    H134676   5.253   0.163   3.668 -2.0806 -0.2558 -0.8532
 4395TIP3    H234677   5.219   0.015   3.661  1.3202 -1.1905  0.4292
 4396TIP3   OH234678   1.064   0.856  12.874 -0.5598 -0.5246  0.0009
 4396TIP3    H134679   1.056   0.861  12.778  1.8204 -0.5846 -0.2456
 4396TIP3    H234680   1.040   0.766  12.895 -0.6163 -0.6520 -0.5824
 4397TIP3   OH234681   4.752   6.253  13.611 -0.6046 -0.2225 -0.1641
 4397TIP3    H134682   4.807   6.186  13.570  0.7729  1.4652 -1.1699
 4397TIP3    H234683   4.763   6.239  13.705 -0.3041 -1.3582 -0.3562
 4398TIP3   OH234684   1.816   3.410   2.440 -0.6429  0.6283  0.2391
 4398TIP3    H134685   1.875   3.462   2.386 -0.9720  0.7200 -0.0345
 4398TIP3    H234686   1.739   3.396   2.385 -0.7593  0.2695  0.4892
 4399TIP3   OH234687   0.293   1.513   3.330 -0.6030 -0.1065 -0.6515
 4399TIP3    H134688   0.249   1.568   3.395  0.6943  0.8144 -0.5083
 4399TIP3    H234689   0.347   1.454   3.382  0.1883  0.4167 -0.8600
 4400TIP3   OH234690   1.400   5.489  13.479  0.1250 -0.3738  0.4700
 4400TIP3    H134691   1.427   5.581  13.484 -0.1019 -0.0667 -2.1142
 4400TIP3    H234692   1.440   5.457  13.398 -2.2089 -1.6293 -0.3021
 4401TIP3   OH234693   6.762   2.799  11.929  0.3872  0.5785  0.2474
 4401TIP3    H134694   6.757   2.743  12.006  0.6587  1.0635  0.6205
 4401TIP3    H234695   6.819   2.871  11.955 -0.4489  1.3526 -0.0196
 4402TIP3   OH234696   5.084   5.115   5.325  0.2469  0.4654 -0.3009
 4402TIP3    H134697   5.031   5.140   5.249  0.6082  0.3220 -0.6034
 4402TIP3    H234698   5.112   5.026   5.306 -0.3917  0.0978  0.4122
 4403TIP3   OH234699   2.218   0.455  14.769 -0.7568  0.6944 -0.4830
 4403TIP3    H134700   2.257   0.428  14.852 -0.1626  0.7759 -0.7280
 4403TIP3    H234701   2.130   0.486  14.793 -0.3927  1.2547  0.2024
 4404TIP3   OH234702   5.200   6.390  15.332 -0.5180  0.7811  0.1615
 4404TIP3    H134703   5.125   6.340  15.363  0.4719 -0.5880  0.4502
 4404TIP3    H234704   5.174   6.482  15.343 -2.3047  0.3488 -0.2010
 4405TIP3   OH234705   6.750   4.456  13.094  0.0424 -0.0286  0.5213
 4405TIP3    H134706   6.790   4.539  13.119 -1.4396  0.5636  1.0414
 4405TIP3    H234707   6.670   4.451  13.146  0.5196 -2.2235  1.1889
 4406TIP3   OH234708   0.319   3.106  12.271  0.5294 -0.0592 -0.4774
 4406TIP3    H134709   0.264   3.064  12.204 -1.3317  1.1139  0.2376
 4406TIP3    H234710   0.262   3.112  12.347  1.7811  0.9387  0.4082
 4407TIP3   OH234711   1.999   4.605  13.832 -0.1750  0.1710 -0.2050
 4407TIP3    H134712   1.930   4.540  13.817 -0.0273  0.1094 -0.6496
 4407TIP3    H234713   2.080   4.554  13.834 -0.1407  0.2436  0.3137
 4408TIP3   OH234714   6.439   3.161   1.103  0.1415 -0.4854 -0.0001
 4408TIP3    H134715   6.415   3.228   1.166  0.4792  0.0177 -0.3959
 4408TIP3    H234716   6.375   3.171   1.032  0.2416 -0.5237 -0.0962
 4409TIP3   OH234717   5.816   5.183   2.335  0.1749  0.7109  0.2484
 4409TIP3    H134718   5.900   5.214   2.300 -0.5370  1.3168 -0.9779
 4409TIP3    H234719   5.798   5.103   2.286  1.0040 -0.5920  1.9675
 4410TIP3   OH234720   6.215   2.685  12.102 -0.2451 -0.0984 -0.1124
 4410TIP3    H134721   6.133   2.637  12.094 -0.2804  0.1174 -1.1661
 4410TIP3    H234722   6.196   2.772  12.066  0.7203 -0.3982 -1.4465
 4411TIP3   OH234723   5.824   2.631  15.836  0.5361 -0.3855 -0.7771
 4411TIP3    H134724   5.844   2.724  15.825  2.7776 -0.9640 -2.2158
 4411TIP3    H234725   5.810   2.620  15.930  1.4665  1.1981 -0.4318
 4412TIP3   OH234726   6.430   6.380   2.175 -0.0154  0.3161  0.1855
 4412TIP3    H134727   6.464   6.338   2.253 -0.9253 -0.3165  0.2597
 4412TIP3    H234728   6.361   6.321   2.144  0.0332  0.7730 -0.8425
 4413TIP3   OH234729   1.418   1.561   3.612  0.5989  0.3301 -0.3564
 4413TIP3    H134730   1.379   1.647   3.595 -1.4345 -0.4878 -0.1326
 4413TIP3    H234731   1.382   1.534   3.696  0.1155 -1.3075 -1.0495
 4414TIP3   OH234732   3.907   6.098   2.847  0.3190  0.6146  0.4969
 4414TIP3    H134733   3.960   6.161   2.798  0.2454  1.2747  1.2457
 4414TIP3    H234734   3.954   6.086   2.930 -0.1837  0.4542  0.7676
 4415TIP3   OH234735   5.732   1.132   1.883 -0.0708 -0.7330  0.3129
 4415TIP3    H134736   5.674   1.200   1.850  0.3066 -0.1004  0.9347
 4415TIP3    H234737   5.819   1.172   1.883  0.7292 -2.2141 -2.2874
 4416TIP3   OH234738   6.019   4.367   4.742 -0.0409  0.3227 -0.0284
 4416TIP3    H134739   6.086   4.432   4.766  1.2961 -1.6175  1.9432
 4416TIP3    H234740   6.048   4.332   4.658  2.5401 -1.6266  1.4994
 4417TIP3   OH234741   5.631   4.220  14.988  0.2508  0.5925 -0.1411
 4417TIP3    H134742   5.676   4.288  15.039 -2.2575  2.3398 -0.0787
 4417TIP3    H234743   5.592   4.162  15.054  0.5590  0.3622 -0.1602
 4418TIP3   OH234744   6.291   6.176   4.540 -0.2243 -0.2037 -0.0043
 4418TIP3    H134745   6.295   6.161   4.635  0.6907 -1.8233 -0.2502
 4418TIP3    H234746   6.380   6.202   4.517 -1.0350  2.8018 -0.0974
 4419TIP3   OH234747   6.400   5.330   4.756  0.1693 -1.0655 -0.5211
 4419TIP3    H134748   6.479   5.357   4.802 -0.5397  1.5539 -0.6499
 4419TIP3    H234749   6.418   5.241   4.727  2.4427 -1.1048  0.7816
 4420TIP3   OH234750   6.582   0.209   2.699 -0.2791 -0.0762 -0.1186
 4420TIP3    H134751   6.596   0.298   2.730 -1.3299  0.2146 -0.4379
 4420TIP3    H234752   6.651   0.195   2.635  0.7674 -0.0162  0.9579
 4421TIP3   OH234753   3.390   1.476  14.375  0.4962 -0.2316  0.5359
 4421TIP3    H134754   3.400   1.381  14.376 -1.3669 -0.4735  1.6438
 4421TIP3    H234755   3.306   1.490  14.331  0.6721  0.8934  0.5420
 4422TIP3   OH234756   2.534   0.582   1.339 -0.5032  0.0952  0.0143
 4422TIP3    H134757   2.542   0.626   1.254  0.5453 -0.4114 -0.1649
 4422TIP3    H234758   2.557   0.648   1.404 -2.9956  1.0108  0.0706
 4423TIP3   OH234759   6.798   2.092  12.296  0.3643  0.1089  0.2768
 4423TIP3    H134760   6.828   2.003  12.313 -0.1872  0.3493  2.9164
 4423TIP3    H234761   6.810   2.138  12.379 -2.2458  1.6324 -0.0743
 4424TIP3   OH234762   4.042   4.268   6.655 -0.2681  0.0106  0.6166
 4424TIP3    H134763   4.049   4.173   6.646  0.5265  0.0001  1.1890
 4424TIP3    H234764   3.962   4.291   6.609  0.1188 -0.7965 -0.4972
 4425TIP3   OH234765   1.803   6.578   5.691 -0.2915 -0.0088  0.0723
 4425TIP3    H134766   1.840   6.634   5.760 -0.4221  0.1365  0.0255
 4425TIP3    H234767   1.875   6.566   5.629 -0.4146  0.5321 -0.1787
 4426TIP3   OH234768   5.082   5.164  13.821  0.0135  0.1662 -0.8423
 4426TIP3    H134769   5.051   5.249  13.853 -0.6489  0.4942 -2.2914
 4426TIP3    H234770   5.177   5.171  13.824  0.0129 -0.0660  1.6189
 4427TIP3   OH234771   6.522   3.254   3.164  0.1881 -0.0106 -0.0593
 4427TIP3    H134772   6.522   3.198   3.086  0.2871 -1.9468  1.2585
 4427TIP3    H234773   6.434   3.244   3.200  0.2462  0.6298  0.2771
 4428TIP3   OH234774   4.704   5.950   1.299  0.3729 -0.3105  0.3035
 4428TIP3    H134775   4.731   5.902   1.377 -2.0605  1.9164  2.7205
 4428TIP3    H234776   4.611   5.929   1.290  0.2338  0.7467 -1.0337
 4429TIP3   OH234777   0.122   3.423  15.250 -0.6470 -0.3209 -0.2819
 4429TIP3    H134778   0.048   3.480  15.269 -0.3671 -0.0226 -0.0677
 4429TIP3    H234779   0.181   3.433  15.325  0.1664  0.3771 -0.9878
 4430TIP3   OH234780   4.676   2.860   3.420  0.4585 -0.0272  0.2744
 4430TIP3    H134781   4.658   2.953   3.402  1.9440  0.3449  0.5531
 4430TIP3    H234782   4.623   2.840   3.497 -0.4220  0.3687 -0.2040
 4431TIP3   OH234783   5.836   1.065   4.814 -0.0556  0.2502 -0.5875
 4431TIP3    H134784   5.781   1.011   4.870  1.0646 -0.8018 -0.4633
 4431TIP3    H234785   5.823   1.155   4.846  1.8021 -0.4429  2.5233
 4432TIP3   OH234786   5.850   0.855  11.877  0.5518 -0.3545  0.6885
 4432TIP3    H134787   5.761   0.888  11.891 -0.1119 -1.6307 -0.2602
 4432TIP3    H234788   5.878   0.823  11.962 -0.1645 -0.5607  0.8523
 4433TIP3   OH234789   0.029   2.714   3.895 -0.2409  0.5558  0.2901
 4433TIP3    H134790   0.101   2.686   3.951 -0.4341 -0.6512 -0.0502
 4433TIP3    H234791  -0.048   2.673   3.933 -0.4541  0.1678 -0.5501
 4434TIP3   OH234792   1.478   3.448   2.463  0.0616 -0.2633  0.7853
 4434TIP3    H134793   1.507   3.379   2.522 -0.8201 -0.1780  1.3415
 4434TIP3    H234794   1.412   3.405   2.407 -0.3291  0.0602  0.9876
 4435TIP3   OH234795   2.901   5.369  16.809 -0.1524  0.0488  0.3043
 4435TIP3    H134796   2.901   5.338  16.719 -1.1367  0.4344  0.1568
 4435TIP3    H234797   2.991   5.398  16.825 -0.0739  0.3822 -0.6881
 4436TIP3   OH234798   6.028   5.963   2.871 -0.5310 -0.8096  0.0202
 4436TIP3    H134799   5.942   6.005   2.881 -0.0576  0.4715 -0.9523
 4436TIP3    H234800   6.025   5.888   2.930 -2.6447 -1.3106 -0.6234
 4437TIP3   OH234801   0.503   5.378   3.872  0.0212  0.3113  0.1055
 4437TIP3    H134802   0.459   5.414   3.949  0.8954 -0.2547  0.8902
 4437TIP3    H234803   0.585   5.342   3.906 -0.3157 -1.4186 -0.8371
 4438TIP3   OH234804   1.851   6.162   5.254  0.2470 -0.1815 -0.0566
 4438TIP3    H134805   1.896   6.077   5.262 -1.2567 -0.9462  0.7423
 4438TIP3    H234806   1.816   6.178   5.341 -0.0538  0.9604 -0.3743
 4439TIP3   OH234807   6.802   3.455  16.757  0.4214 -0.0267  0.5426
 4439TIP3    H134808   6.713   3.486  16.740 -0.0526 -1.8252 -0.6987
 4439TIP3    H234809   6.815   3.468  16.850 -1.1203  0.3602  0.7374
 4440TIP3   OH234810   1.485   3.228  14.004 -0.0171  0.3234 -0.3119
 4440TIP3    H134811   1.504   3.316  14.037  0.4049  0.2945 -0.4716
 4440TIP3    H234812   1.427   3.242  13.930 -1.7093  0.3408  0.9662
 4441TIP3   OH234813   5.706   6.548  11.579 -0.3347 -0.1951  0.1966
 4441TIP3    H134814   5.615   6.562  11.608 -0.1918 -0.7882  0.9641
 4441TIP3    H234815   5.757   6.551  11.660  0.0833 -1.8563  0.0181
 4442TIP3   OH234816   4.194   3.452  13.083 -0.3591  0.2291 -0.2063
 4442TIP3    H134817   4.112   3.476  13.040 -0.4638 -0.7451 -0.5908
 4442TIP3    H234818   4.262   3.498  13.033 -0.6811  1.2816  0.3022
 4443TIP3   OH234819   2.486   2.292   0.775  0.0128  0.0661  0.7470
 4443TIP3    H134820   2.476   2.255   0.687  0.4293  0.2137  0.6399
 4443TIP3    H234821   2.423   2.242   0.828 -0.5684  0.2831  0.2806
 4444TIP3   OH234822   1.550   2.512  10.972  0.1720  0.5765 -0.2212
 4444TIP3    H134823   1.627   2.545  11.017 -0.2565 -0.1299  1.0822
 4444TIP3    H234824   1.483   2.504  11.040 -0.6568 -0.0430 -1.0693
 4445TIP3   OH234825   1.778   0.652  15.187 -0.1699 -0.0830  0.2185
 4445TIP3    H134826   1.829   0.702  15.123 -1.3705  2.1541  0.9077
 4445TIP3    H234827   1.689   0.651  15.153 -0.2724 -1.4187  0.4586
 4446TIP3   OH234828   2.379   2.680   3.280  0.2009 -0.2060 -0.7459
 4446TIP3    H134829   2.345   2.738   3.213 -0.9335 -1.5265 -1.3641
 4446TIP3    H234830   2.470   2.666   3.255  0.9775  2.4107  0.2518
 4447TIP3   OH234831   4.379   0.756  16.116 -0.4259 -0.1887  0.5663
 4447TIP3    H134832   4.334   0.792  16.038 -1.6215  0.0964  1.3611
 4447TIP3    H234833   4.471   0.775  16.100 -0.6041 -0.3771 -0.9124
 4448TIP3   OH234834   4.311   0.336  13.245 -0.0265  0.5981 -0.3626
 4448TIP3    H134835   4.301   0.242  13.262  2.0615  0.4574  0.3992
 4448TIP3    H234836   4.365   0.367  13.317  2.5192  1.6044 -2.5401
 4449TIP3   OH234837   4.658   2.071   4.933 -0.4226  0.1533  0.1170
 4449TIP3    H134838   4.632   2.032   5.016 -0.3852 -1.6194 -0.6700
 4449TIP3    H234839   4.614   2.156   4.932  2.2963  1.8413  3.4658
 4450TIP3   OH234840   0.392   3.178   5.904 -0.1154  0.6154 -0.4796
 4450TIP3    H134841   0.423   3.221   5.984 -0.4841 -2.4170  1.4125
 4450TIP3    H234842   0.464   3.120   5.879  0.3631  2.1198 -2.9739
 4451TIP3   OH234843   0.307   6.143   4.821  0.0579 -0.0897 -0.4380
 4451TIP3    H134844   0.271   6.230   4.837  2.9229  1.3065 -1.0216
 4451TIP3    H234845   0.312   6.136   4.726 -1.8445 -1.7097 -0.4731
 4452TIP3   OH234846   0.358   0.239  15.473 -0.0802  0.7454  0.2261
 4452TIP3    H134847   0.434   0.184  15.452 -0.0725  1.5676 -2.2431
 4452TIP3    H234848   0.334   0.213  15.562  1.2270 -1.7043 -0.0324
 4453TIP3   OH234849   2.137   6.558  13.046 -0.0128  0.4212  0.7403
 4453TIP3    H134850   2.150   6.534  13.138  2.4652  1.3141  0.6821
 4453TIP3    H234851   2.126   6.474  13.001  1.3986 -0.1994  1.4949
 4454TIP3   OH234852   3.977   4.565  11.548  0.6095  0.0865 -1.0492
 4454TIP3    H134853   3.979   4.655  11.518  0.9495  0.5361  0.2723
 4454TIP3    H234854   4.004   4.569  11.639  2.4874 -1.5408 -1.4545
 4455TIP3   OH234855   5.613   6.675   3.087 -0.0664  0.0693 -0.2473
 4455TIP3    H134856   5.614   6.758   3.134 -0.4381  0.2299 -0.5222
 4455TIP3    H234857   5.705   6.648   3.085  0.2758  1.2324 -1.4702
 4456TIP3   OH234858   1.294   3.359  14.199  0.3841  0.1902  0.1473
 4456TIP3    H134859   1.297   3.290  14.265 -0.0658  0.8084  0.8384
 4456TIP3    H234860   1.384   3.368  14.169  0.2320 -1.6357 -0.9679
 4457TIP3   OH234861   1.360   4.786  10.120  0.7090 -1.2499 -0.1331
 4457TIP3    H134862   1.342   4.692  10.116 -0.8009 -1.0332  0.7156
 4457TIP3    H234863   1.341   4.810  10.211 -0.4663  0.1343 -0.6983
 4458TIP3   OH234864   2.655   2.689  16.400  0.3114 -0.5194 -0.3052
 4458TIP3    H134865   2.679   2.696  16.493  0.4605  0.6620 -0.4185
 4458TIP3    H234866   2.613   2.773  16.380  0.0195 -0.8809 -1.2352
 4459TIP3   OH234867   3.856   1.875  15.675  0.1836 -0.2531 -0.1743
 4459TIP3    H134868   3.848   1.850  15.583  0.0689  0.2538 -0.3066
 4459TIP3    H234869   3.950   1.873  15.692  0.1701 -0.8707 -0.1494
 4460TIP3   OH234870   5.163   3.619   3.208 -0.1552  0.1023  0.2498
 4460TIP3    H134871   5.253   3.633   3.180 -1.0893  2.0630 -2.0410
 4460TIP3    H234872   5.119   3.702   3.191 -2.3123 -0.6301  1.8108
 4461TIP3   OH234873   6.571   3.203  11.226 -0.1776 -0.2047  0.1050
 4461TIP3    H134874   6.643   3.264  11.211 -1.8794  1.8708 -0.0912
 4461TIP3    H234875   6.494   3.248  11.192 -1.6432 -2.1876  0.6320
 4462TIP3   OH234876   4.157   5.930  16.873 -0.0880 -0.1306  0.1576
 4462TIP3    H134877   4.248   5.958  16.875 -0.0264 -0.3589  1.1088
 4462TIP3    H234878   4.106   6.011  16.879  0.0639 -0.0652  0.5690
 4463TIP3   OH234879   6.245   1.431   5.281  0.1056 -0.3111  0.0613
 4463TIP3    H134880   6.325   1.404   5.326  0.9302  1.6928 -0.1192
 4463TIP3    H234881   6.175   1.410   5.343  0.7200 -2.1062  0.2178
 4464TIP3   OH234882   5.201   1.298  13.258  0.2623 -0.3120 -0.2475
 4464TIP3    H134883   5.271   1.363  13.258 -1.9437  2.1975  0.0769
 4464TIP3    H234884   5.187   1.278  13.165 -0.6386  1.5577 -0.5440
 4465TIP3   OH234885   1.119   2.679   0.049 -0.1585  0.2417  0.4309
 4465TIP3    H134886   1.145   2.595   0.011 -0.7927 -0.1775  0.9120
 4465TIP3    H234887   1.110   2.738  -0.027  2.0621  0.4057  0.2041
 4466TIP3   OH234888   5.353   4.996   0.470  0.9632  0.2152 -0.2636
 4466TIP3    H134889   5.297   5.016   0.395  0.6508 -0.2226 -0.1509
 4466TIP3    H234890   5.426   4.946   0.434  1.1400  0.5461 -0.3686
 4467TIP3   OH234891   2.485   2.360   5.955  0.2749  0.6342 -0.0357
 4467TIP3    H134892   2.528   2.285   5.913 -2.0359 -0.6300 -0.2859
 4467TIP3    H234893   2.512   2.435   5.903  1.3569 -0.2233 -0.7762
 4468TIP3   OH234894   6.400   6.232  12.097 -0.6577  0.0419  0.4089
 4468TIP3    H134895   6.372   6.324  12.100  0.0919  0.2573  1.2917
 4468TIP3    H234896   6.432   6.219  12.007  1.6814  1.4190  0.9602
 4469TIP3   OH234897   3.830   3.450   4.282  0.3695 -0.2469  0.2511
 4469TIP3    H134898   3.851   3.357   4.287 -0.2669 -0.4169 -0.2001
 4469TIP3    H234899   3.754   3.461   4.340 -0.6392 -0.3415 -1.0087
 4470TIP3   OH234900   2.906   2.995   4.440  0.3108 -0.4305  0.5450
 4470TIP3    H134901   2.861   2.988   4.525 -0.5031  0.9953  0.2607
 4470TIP3    H234902   2.996   2.968   4.459 -0.0731 -1.0262  1.6506
 4471TIP3   OH234903   1.687   6.457   0.147  0.2357 -0.1287 -0.3353
 4471TIP3    H134904   1.764   6.508   0.172 -0.6562  1.9354 -1.5094
 4471TIP3    H234905   1.622   6.523   0.123 -1.4109 -1.8385 -0.8126
 4472TIP3   OH234906   2.291   4.273   0.702 -0.1921 -0.1072 -0.9172
 4472TIP3    H134907   2.276   4.201   0.641  0.3615 -0.9251 -0.1072
 4472TIP3    H234908   2.374   4.311   0.674  0.5669 -1.1247 -0.0586
 4473TIP3   OH234909   3.733   0.443   0.109 -0.1918  0.2522  0.0753
 4473TIP3    H134910   3.715   0.491   0.190 -0.3234 -0.6897  0.6208
 4473TIP3    H234911   3.803   0.382   0.133 -0.1418  0.0567 -0.5589
 4474TIP3   OH234912   2.272   2.035   4.520 -0.1369  0.0850  0.0778
 4474TIP3    H134913   2.251   1.960   4.463 -0.9749  1.3855 -1.3951
 4474TIP3    H234914   2.356   2.011   4.559 -0.2208 -1.4913 -0.5940
 4475TIP3   OH234915   2.255   2.037   5.689  0.4175  0.0921  0.4233
 4475TIP3    H134916   2.305   2.017   5.768  0.4427  0.6665  0.5585
 4475TIP3    H234917   2.183   1.975   5.690  1.2897 -0.9471  0.0659
 4476TIP3   OH234918   2.089   4.023   4.929  0.7406 -0.4639  0.3428
 4476TIP3    H134919   2.122   3.937   4.956  0.7596 -0.2392  1.0322
 4476TIP3    H234920   2.163   4.082   4.941  0.4938 -0.2053  0.5974
 4477TIP3   OH234921   4.596   0.866  13.387 -0.0953  0.6597  0.1366
 4477TIP3    H134922   4.571   0.832  13.473  1.2085  1.4595  0.8890
 4477TIP3    H234923   4.652   0.798  13.350 -0.5262  0.3840 -0.0144
 4478TIP3   OH234924   3.732   1.157   1.717 -0.0754  0.0388 -0.0297
 4478TIP3    H134925   3.743   1.252   1.718 -0.7278  0.1189  0.0780
 4478TIP3    H234926   3.760   1.128   1.803  0.0854  0.1364 -0.0490
 4479TIP3   OH234927   3.176   3.006  12.883  0.7351 -0.5278  0.9334
 4479TIP3    H134928   3.222   3.090  12.872  1.6912 -1.0675  0.7088
 4479TIP3    H234929   3.222   2.946  12.825 -2.3286 -0.3580 -2.0395
 4480TIP3   OH234930   3.217   1.490   0.696 -0.2388 -0.1820  0.1064
 4480TIP3    H134931   3.283   1.552   0.728 -2.0726  2.9516 -1.6256
 4480TIP3    H234932   3.152   1.486   0.767 -0.0629 -0.1907  0.2681
 4481TIP3   OH234933   4.487   5.494  10.598  0.1446  1.0627  0.0537
 4481TIP3    H134934   4.452   5.416  10.642  0.9751  1.0405  0.7071
 4481TIP3    H234935   4.427   5.509  10.526  0.1868 -0.4331 -0.3401
 4482TIP3   OH234936   5.830   6.345  14.494  0.1984 -0.3448 -0.0060
 4482TIP3    H134937   5.830   6.330  14.588  2.0046  0.4259  0.1512
 4482TIP3    H234938   5.810   6.438  14.483 -1.4079 -0.7002 -0.5022
 4483TIP3   OH234939   2.903   1.017  11.960 -0.4514  0.7685 -0.3000
 4483TIP3    H134940   2.841   1.072  11.912 -0.7017  0.1119 -0.7505
 4483TIP3    H234941   2.966   0.988  11.894 -0.5741  0.1724 -0.1654
 4484TIP3   OH234942   6.219   3.847   3.239  0.1431 -0.4788  0.4734
 4484TIP3    H134943   6.184   3.763   3.270  1.0247 -0.0604  2.7546
 4484TIP3    H234944   6.141   3.901   3.224 -0.3609 -1.0015  1.1290
 4485TIP3   OH234945   5.938   6.403  15.375 -0.4187  0.3745  0.0640
 4485TIP3    H134946   5.873   6.378  15.309 -1.5628 -0.6433  1.5197
 4485TIP3    H234947   6.011   6.344  15.361  0.4429  1.7945 -1.8552
 4486TIP3   OH234948   2.893   5.898  14.442  0.4510 -0.2454 -0.0738
 4486TIP3    H134949   2.886   5.964  14.511 -0.2272 -1.2789  0.8847
 4486TIP3    H234950   2.967   5.843  14.467  0.0356 -0.7902  0.0024
 4487TIP3   OH234951   0.637   1.593   4.116  0.6070 -0.1997  0.2536
 4487TIP3    H134952   0.576   1.664   4.139 -0.5236 -1.5599  1.6246
 4487TIP3    H234953   0.711   1.604   4.176 -0.6963 -1.5823  2.2353
 4488TIP3   OH234954   5.275   5.756   0.310  0.2577  0.4777 -0.2155
 4488TIP3    H134955   5.195   5.730   0.356 -0.5907  1.0709 -1.3026
 4488TIP3    H234956   5.310   5.828   0.363  0.2665 -0.0090  0.4516
 4489TIP3   OH234957   1.645   0.240  15.235  0.1947  0.5130  0.4940
 4489TIP3    H134958   1.597   0.183  15.174  0.6590 -0.1306  0.7166
 4489TIP3    H234959   1.641   0.193  15.319 -1.2603  1.8346  1.2130
 4490TIP3   OH234960   3.590   6.718  14.665 -0.3328  0.1469 -0.7401
 4490TIP3    H134961   3.533   6.646  14.640  1.1539 -1.5670  0.5242
 4490TIP3    H234962   3.536   6.773  14.721 -1.0025 -1.0066 -0.2211
 4491TIP3   OH234963   5.527   0.921  14.793  0.2198  0.0826 -0.4700
 4491TIP3    H134964   5.516   0.839  14.840 -1.8404 -0.0988 -1.1657
 4491TIP3    H234965   5.554   0.894  14.705  0.3764  0.1980 -0.4564
 4492TIP3   OH234966   4.347   3.737  15.216  0.1982  0.3860 -0.4833
 4492TIP3    H134967   4.324   3.737  15.309 -1.7144  0.9404 -0.8935
 4492TIP3    H234968   4.442   3.734  15.214  0.3283  1.5605  1.5061
 4493TIP3   OH234969   3.219   0.264  13.626  0.1609  0.8422  0.0345
 4493TIP3    H134970   3.153   0.333  13.626  0.6180  1.2904 -0.7463
 4493TIP3    H234971   3.278   0.287  13.554  1.9513  1.2040  1.5413
 4494TIP3   OH234972   1.590   3.652  15.743  0.7365  0.1302  0.2731
 4494TIP3    H134973   1.622   3.629  15.831 -0.7653 -1.0303  0.5511
 4494TIP3    H234974   1.518   3.591  15.727 -1.0307  2.3133 -0.5208
 4495TIP3   OH234975   3.492   3.909   1.293 -0.0331  0.1521  0.7998
 4495TIP3    H134976   3.422   3.892   1.355 -0.4801 -2.0008 -0.1985
 4495TIP3    H234977   3.519   3.823   1.262  0.5745  1.0847 -1.5419
 4496TIP3   OH234978   2.665   4.120  16.339 -0.2443  0.1183  0.9473
 4496TIP3    H134979   2.662   4.202  16.291  1.4210 -0.4313 -0.1838
 4496TIP3    H234980   2.758   4.100  16.346 -0.5968 -1.4119  1.6654
 4497TIP3   OH234981   0.268   2.918   2.483  0.2551 -0.5246 -0.2460
 4497TIP3    H134982   0.272   2.852   2.553 -1.3329  0.1973  0.5768
 4497TIP3    H234983   0.222   2.992   2.523  1.9701  1.1156 -1.1359
 4498TIP3   OH234984   6.575   0.332   4.444  0.5362 -0.7688 -0.5128
 4498TIP3    H134985   6.557   0.402   4.381  1.0432  0.2883  0.4821
 4498TIP3    H234986   6.617   0.376   4.518 -0.0250 -1.9674  0.5704
 4499TIP3   OH234987   3.530   2.767  11.192 -0.3457 -0.0581 -0.3411
 4499TIP3    H134988   3.610   2.745  11.145 -1.5075 -1.8467 -1.5987
 4499TIP3    H234989   3.478   2.687  11.191 -1.6485  0.6786  1.5491
 4500TIP3   OH234990   2.076   3.167  16.248  0.0186 -0.5684 -0.3335
 4500TIP3    H134991   2.048   3.151  16.158  0.7666 -1.5282 -0.4120
 4500TIP3    H234992   2.064   3.261  16.260 -0.4925 -0.4920 -1.2910
 4501TIP3   OH234993   6.533   1.681   2.630 -0.7809  0.3677  0.0893
 4501TIP3    H134994   6.560   1.699   2.541  0.9982 -0.5888  0.3965
 4501TIP3    H234995   6.501   1.590   2.628  0.6051 -0.1602  0.6653
 4502TIP3   OH234996   0.067   5.563  15.926 -0.5340  0.1197  0.6013
 4502TIP3    H134997   0.097   5.478  15.959 -0.5915  0.5229  1.7547
 4502TIP3    H234998   0.053   5.615  16.005 -1.3701  0.9135 -0.0515
 4503TIP3   OH234999   0.949   6.326  16.517 -0.2777  0.0783  0.1300
 4503TIP3    H135000   0.968   6.340  16.610 -1.8690  0.5728  0.4139
 4503TIP3    H235001   1.019   6.267  16.487 -1.8986 -3.5106  2.6520
 4504TIP3   OH235002   4.707   2.958   5.395 -1.2602 -0.1169  0.3113
 4504TIP3    H135003   4.663   2.935   5.477 -0.9986 -0.2776  0.4066
 4504TIP3    H235004   4.797   2.929   5.407 -0.7964  1.3626  0.6100
 4505TIP3   OH235005   5.854   2.766  11.650  0.3029 -0.1278  0.4711
 4505TIP3    H135006   5.943   2.800  11.658  1.4600 -2.4308 -1.4478
 4505TIP3    H235007   5.836   2.724  11.734  0.5692  1.2646  1.2482
 4506TIP3   OH235008   0.454   5.482  14.378 -0.1805  0.9177 -0.0388
 4506TIP3    H135009   0.535   5.431  14.373 -1.7441 -1.5935 -2.1074
 4506TIP3    H235010   0.455   5.537  14.300 -0.4647  0.8619 -0.0830
 4507TIP3   OH235011   4.667   3.394   1.843  0.2623 -0.2177 -0.2250
 4507TIP3    H135012   4.713   3.351   1.914 -0.1978 -2.0213 -0.9750
 4507TIP3    H235013   4.715   3.369   1.764 -0.9288 -0.6925 -0.8346
 4508TIP3   OH235014   0.277   2.975  14.919 -0.8557 -0.1175  0.0555
 4508TIP3    H135015   0.194   3.018  14.938 -0.3450  0.2621  1.5930
 4508TIP3    H235016   0.339   3.012  14.982  1.0704  1.2317 -2.4386
 4509TIP3   OH235017   5.203   4.176  13.024  0.4011 -0.1053 -0.8398
 4509TIP3    H135018   5.135   4.242  13.040  2.7198  2.5452 -1.0668
 4509TIP3    H235019   5.274   4.225  12.982  3.3689 -2.1638  1.3657
 4510TIP3   OH235020   1.102   5.169  10.695  0.3630  0.0931 -0.2688
 4510TIP3    H135021   1.024   5.223  10.684  1.7339  1.9940 -1.3035
 4510TIP3    H235022   1.103   5.113  10.617 -0.9804 -1.3926  0.7293
 4511TIP3   OH235023   6.031   1.240   2.582  0.1998  0.2899 -0.0642
 4511TIP3    H135024   5.961   1.300   2.608 -0.6501 -0.5504 -0.3901
 4511TIP3    H235025   6.042   1.182   2.657  1.3523  1.1208  0.4414
 4512TIP3   OH235026   4.363   5.284   5.406  0.3123 -0.6748  0.1193
 4512TIP3    H135027   4.364   5.374   5.373  0.2656 -1.5363 -2.4531
 4512TIP3    H235028   4.363   5.293   5.501 -0.5017  2.0523 -0.0560
 4513TIP3   OH235029   2.658   2.454  14.569 -0.5211  0.2774 -0.1840
 4513TIP3    H135030   2.615   2.520  14.514 -0.7052  0.7431  0.5020
 4513TIP3    H235031   2.751   2.470  14.559 -0.5712  0.8225  0.1832
 4514TIP3   OH235032   5.870   2.353  15.377  0.0506 -0.4458  0.3244
 4514TIP3    H135033   5.848   2.319  15.290 -0.4129 -1.0167  0.6540
 4514TIP3    H235034   5.790   2.342  15.428 -0.5222  2.2873  0.1433
 4515TIP3   OH235035   0.362   5.007   0.031  0.2070  0.7590 -0.2594
 4515TIP3    H135036   0.408   5.040  -0.047 -1.1729  0.9550 -1.0160
 4515TIP3    H235037   0.273   5.041   0.023 -0.0369  0.5530  1.2832
 4516TIP3   OH235038   4.462   1.756  13.000  0.1114  0.2789  0.5243
 4516TIP3    H135039   4.481   1.784  13.089 -1.3017  0.7942  0.6959
 4516TIP3    H235040   4.538   1.785  12.949  1.1623 -0.4500  1.6058
 4517TIP3   OH235041   5.913   6.370  14.154 -0.0095  0.5263  0.1416
 4517TIP3    H135042   5.852   6.438  14.182 -0.0549 -0.0142  1.4163
 4517TIP3    H235043   5.869   6.288  14.175  0.9134  0.1256  0.5910
 4518TIP3   OH235044   6.407   6.540  12.136  0.2588  0.3187  0.0883
 4518TIP3    H135045   6.474   6.555  12.069  1.6195 -1.5364  0.9687
 4518TIP3    H235046   6.439   6.585  12.213 -0.8421  1.6353 -0.1738
 4519TIP3   OH235047   2.556   0.896   4.416  0.8444  0.0896  0.7060
 4519TIP3    H135048   2.460   0.899   4.416  0.8462  2.8142 -0.0506
 4519TIP3    H235049   2.578   0.827   4.353 -0.6285 -0.0250  0.2799
 4520TIP3   OH235050   4.973   3.975  14.716  0.5499  0.2534  0.7393
 4520TIP3    H135051   5.067   3.981  14.731  0.5319 -0.2922  1.1189
 4520TIP3    H235052   4.947   3.894  14.760 -0.8330  2.5211  4.7275
 4521TIP3   OH235053   4.824   3.729  12.807 -0.1260 -0.0362  0.1615
 4521TIP3    H135054   4.777   3.646  12.803 -1.1874  0.6086 -1.5944
 4521TIP3    H235055   4.880   3.728  12.729 -2.8534  2.3876 -2.0327
 4522TIP3   OH235056   0.928   3.411   1.574 -0.1312 -0.1523  0.1320
 4522TIP3    H135057   0.871   3.434   1.647  0.1434 -0.9843  0.6296
 4522TIP3    H235058   0.890   3.331   1.538  0.3047 -0.3138  0.0176
 4523TIP3   OH235059   5.623   0.701   3.356 -0.3541  0.3468  0.1103
 4523TIP3    H135060   5.540   0.676   3.396  0.4767 -0.0942  1.6570
 4523TIP3    H235061   5.647   0.625   3.302  0.4917 -0.8984  2.0998
 4524TIP3   OH235062   0.800   2.682   4.141 -0.5433 -0.4402  0.2830
 4524TIP3    H135063   0.892   2.660   4.128 -1.2636 -2.0988 -3.2373
 4524TIP3    H235064   0.775   2.634   4.220  1.2073 -1.2972  0.3648
 4525TIP3   OH235065   3.376   4.455  13.188  0.4882 -0.1054  0.0998
 4525TIP3    H135066   3.398   4.374  13.233 -1.1241 -1.2248 -0.9948
 4525TIP3    H235067   3.284   4.471  13.209  0.7086  1.3282  0.1035
 4526TIP3   OH235068   5.091   6.493  15.669  0.3842 -0.2122  0.1300
 4526TIP3    H135069   5.034   6.421  15.641 -0.0548  0.7859 -1.7148
 4526TIP3    H235070   5.170   6.450  15.700 -0.8868 -1.5833  1.6211
 4527TIP3   OH235071   6.839   2.055  11.849  0.2351 -0.3393  0.1105
 4527TIP3    H135072   6.869   1.991  11.914  0.7432  0.2234  0.4345
 4527TIP3    H235073   6.796   2.002  11.782  1.2200 -1.0838  0.0459
 4528TIP3   OH235074   4.387   0.129  11.725  0.4592 -0.2638 -0.1211
 4528TIP3    H135075   4.456   0.074  11.762  0.1121 -1.5985 -1.3556
 4528TIP3    H235076   4.431   0.210  11.700  1.2179 -0.4172  0.6960
 4529TIP3   OH235077   3.316   6.500   0.100  0.2587  0.1356  0.1584
 4529TIP3    H135078   3.329   6.586   0.138  1.1272  0.2909 -0.4778
 4529TIP3    H235079   3.400   6.477   0.062  0.6262 -1.8128  1.9548
 4530TIP3   OH235080   3.669   0.111  13.311 -0.4044  0.4780 -0.1283
 4530TIP3    H135081   3.758   0.142  13.295  0.8873 -2.9233 -0.2975
 4530TIP3    H235082   3.627   0.112  13.224  0.4339 -0.5115 -0.5656
 4531TIP3   OH235083   5.661   5.627   2.767 -0.6243 -0.7594 -0.0511
 4531TIP3    H135084   5.663   5.574   2.846 -1.5634 -1.5049 -0.5099
 4531TIP3    H235085   5.674   5.717   2.798 -0.9700 -1.0399  0.9352
 4532TIP3   OH235086   3.158   2.163  14.894 -0.3504  1.2828 -0.0797
 4532TIP3    H135087   3.138   2.150  14.987 -2.3576  0.2507 -0.5940
 4532TIP3    H235088   3.252   2.145  14.887 -0.5073 -0.4321  1.4692
 4533TIP3   OH235089   3.017   0.045  11.383  0.3490 -0.0788 -0.4062
 4533TIP3    H135090   3.069   0.091  11.317 -0.3734  1.3345 -0.0319
 4533TIP3    H235091   2.929   0.042  11.346 -0.2149  1.3042  0.7118
 4534TIP3   OH235092   1.154   1.869  16.047  0.1981  0.1077  0.5037
 4534TIP3    H135093   1.148   1.956  16.009  1.3288  0.7461  1.7169
 4534TIP3    H235094   1.247   1.854  16.058 -0.0247 -0.8589  1.2176
 4535TIP3   OH235095   0.999   2.142  10.420 -0.2542  0.1532 -0.2605
 4535TIP3    H135096   1.075   2.088  10.400  0.1380  0.8717 -0.7337
 4535TIP3    H235097   0.973   2.180  10.336 -1.9304 -1.0608 -0.3657
 4536TIP3   OH235098   0.021   1.119   3.266  0.1593  0.3749 -0.2555
 4536TIP3    H135099   0.107   1.085   3.291 -1.0712 -2.2215  0.8140
 4536TIP3    H235100  -0.006   1.064   3.193 -1.1070  0.3030  0.2378
 4537TIP3   OH235101   1.822   2.172  15.136  0.5760  0.2499 -0.1952
 4537TIP3    H135102   1.910   2.172  15.099 -0.6220  2.9037 -3.5998
 4537TIP3    H235103   1.808   2.263  15.163 -1.4142  0.1315 -0.6764
 4538TIP3   OH235104   1.661   4.169  16.190 -0.2019 -0.1698 -0.1027
 4538TIP3    H135105   1.606   4.136  16.261  0.0154  1.3139  0.7972
 4538TIP3    H235106   1.740   4.114  16.194 -0.2617 -0.2169  0.7145
 4539TIP3   OH235107   6.514   2.518   5.532  0.1340  0.3269 -0.1039
 4539TIP3    H135108   6.448   2.586   5.546  0.2216  0.4171 -0.1277
 4539TIP3    H235109   6.558   2.544   5.452  0.1200  0.2025 -0.1515
 4540TIP3   OH235110   1.347   1.801   4.409  0.1307 -0.5664  0.1742
 4540TIP3    H135111   1.431   1.761   4.431 -0.7000 -1.5469  1.7622
 4540TIP3    H235112   1.282   1.734   4.431 -1.2987  1.4335  2.5508
 4541TIP3   OH235113   4.216   0.591  14.738 -0.4582 -0.5224 -0.5700
 4541TIP3    H135114   4.174   0.625  14.817  2.2966 -0.1904  0.8466
 4541TIP3    H235115   4.163   0.516  14.713 -3.3857  1.3436 -0.4581
 4542TIP3   OH235116   1.669   1.535  17.052 -0.1196 -0.5809  0.1025
 4542TIP3    H135117   1.599   1.600  17.062 -0.0152 -0.4605  0.0573
 4542TIP3    H235118   1.728   1.551  17.126  0.7631  0.4496 -0.7896
 4543TIP3   OH235119   6.799   0.947  10.437 -0.4003  0.3065  0.4145
 4543TIP3    H135120   6.861   0.889  10.481 -1.1650 -1.5007 -0.7968
 4543TIP3    H235121   6.854   1.015  10.396  0.5872 -0.0964  1.0372
 4544TIP3   OH235122   4.779   2.108  12.756  1.1320  0.3017 -0.5088
 4544TIP3    H135123   4.834   2.054  12.699 -2.2169 -1.1567 -2.6876
 4544TIP3    H235124   4.749   2.179  12.699 -0.3824  0.1789  0.0747
 4545TIP3   OH235125   4.303   1.457   1.900 -0.5599 -0.3871 -0.4845
 4545TIP3    H135126   4.216   1.430   1.930 -0.0947  0.1787  1.4930
 4545TIP3    H235127   4.311   1.548   1.928  1.4112 -1.0050  1.1765
 4546TIP3   OH235128   2.859   0.732   2.101 -0.2794  0.1872 -0.6421
 4546TIP3    H135129   2.851   0.679   2.180  2.0500 -1.1281 -1.2082
 4546TIP3    H235130   2.922   0.801   2.125 -1.6552  1.4828 -0.5763
 4547TIP3   OH235131   2.774   4.999  15.459 -0.1305 -0.5138  0.7929
 4547TIP3    H135132   2.765   4.937  15.387 -2.5196  0.9570 -0.2991
 4547TIP3    H235133   2.853   4.972  15.505  0.6039 -2.4475 -1.4577
 4548TIP3   OH235134   4.673   1.863   3.803 -0.5184  0.4189 -0.7221
 4548TIP3    H135135   4.742   1.929   3.798 -0.7102  0.7916  0.8918
 4548TIP3    H235136   4.699   1.807   3.877 -1.4489 -0.0137 -0.7032
 4549TIP3   OH235137   4.298   5.109  15.581  0.1420  0.4892  0.1984
 4549TIP3    H135138   4.232   5.052  15.541  1.2625  1.5096 -3.6013
 4549TIP3    H235139   4.270   5.197  15.558  1.7210  1.0394  0.2894
 4550TIP3   OH235140   0.904   3.246   2.968  0.7109  0.1340 -0.2668
 4550TIP3    H135141   0.839   3.197   3.019  0.9000 -0.1953 -0.3434
 4550TIP3    H235142   0.854   3.280   2.893 -0.2291  2.8732  1.4407
 4551TIP3   OH235143   1.869   0.762   2.959  0.3783 -0.3681 -0.0397
 4551TIP3    H135144   1.810   0.800   3.024 -0.8607 -2.0864 -0.0797
 4551TIP3    H235145   1.955   0.801   2.978 -0.3894  0.7971  1.2031
 4552TIP3   OH235146   2.242   2.431  13.545 -0.4474  0.1622  0.3404
 4552TIP3    H135147   2.328   2.397  13.572  0.1818  0.7541 -0.8596
 4552TIP3    H235148   2.193   2.353  13.520  0.1719 -0.0741 -0.1578
 4553TIP3   OH235149   1.271   6.231  11.935 -0.3720  0.3301 -0.4410
 4553TIP3    H135150   1.254   6.157  11.993 -0.0860  0.5280 -0.1049
 4553TIP3    H235151   1.195   6.233  11.876  0.1164 -0.8910 -1.1563
 4554TIP3   OH235152   4.178   3.519   0.247 -0.7210 -0.4644  0.6337
 4554TIP3    H135153   4.239   3.492   0.315 -0.1044  0.5683  0.5092
 4554TIP3    H235154   4.094   3.528   0.292 -1.3608 -3.9836  0.4084
 4555TIP3   OH235155   6.021   6.839  13.409  0.6667  0.3704 -0.4139
 4555TIP3    H135156   5.957   6.769  13.420 -0.9269  1.9321  0.8576
 4555TIP3    H235157   6.105   6.794  13.400  0.1370 -1.7266  3.1727
 4556TIP3   OH235158   0.849   4.322  14.447 -0.0421  0.3316 -0.0798
 4556TIP3    H135159   0.912   4.374  14.497  1.3824 -2.2254  0.9525
 4556TIP3    H235160   0.902   4.272  14.385 -1.2268 -0.7167 -0.2874
 4557TIP3   OH235161   2.674   4.805  16.687  0.1352  0.1001 -0.6788
 4557TIP3    H135162   2.614   4.744  16.643 -0.6431 -1.4340  2.2746
 4557TIP3    H235163   2.642   4.892  16.662 -2.2495 -0.6893 -0.6335
 4558TIP3   OH235164   4.473   0.566  13.836 -0.9422 -0.0174 -0.3330
 4558TIP3    H135165   4.448   0.574  13.928 -0.8702  2.0139 -0.4273
 4558TIP3    H235166   4.406   0.511  13.796 -1.0816 -0.7482  0.8932
 4559TIP3   OH235167   4.084   6.594   1.326 -1.0035  0.0551 -0.3706
 4559TIP3    H135168   4.154   6.546   1.371 -1.8682 -1.4629 -0.5813
 4559TIP3    H235169   4.035   6.637   1.397 -1.1463 -0.6613 -0.0256
 4560TIP3   OH235170   2.320   6.331   2.329 -0.1541 -0.0099 -0.8024
 4560TIP3    H135171   2.232   6.294   2.319 -0.8164  1.4152 -0.4811
 4560TIP3    H235172   2.362   6.313   2.245  0.2564 -3.1191 -0.0537
 4561TIP3   OH235173   2.678   6.740   2.636 -0.5492  0.1653 -0.6905
 4561TIP3    H135174   2.614   6.738   2.565 -1.0885 -0.1574 -0.2067
 4561TIP3    H235175   2.652   6.816   2.689  0.5070  1.0677 -1.4204
 4562TIP3   OH235176   5.769   3.750   0.793 -0.4341  0.0983 -0.4909
 4562TIP3    H135177   5.703   3.817   0.774 -1.0807  0.0406  1.2893
 4562TIP3    H235178   5.792   3.766   0.885 -0.7909 -2.2510  0.0701
 4563TIP3   OH235179   0.704   0.666   3.401  0.1351 -0.4300 -0.3870
 4563TIP3    H135180   0.678   0.680   3.493  1.1996 -0.3729 -0.0859
 4563TIP3    H235181   0.789   0.623   3.407  0.6223  0.3745 -1.3623
 4564TIP3   OH235182   5.178   1.562   2.392 -0.1880  0.4212 -0.0175
 4564TIP3    H135183   5.256   1.541   2.341 -0.0796  0.2954  0.1989
 4564TIP3    H235184   5.187   1.512   2.473 -1.0302 -0.4586 -0.4471
 4565TIP3   OH235185   2.182   6.587  14.268  0.1933  0.0940  0.0084
 4565TIP3    H135186   2.114   6.613  14.331 -1.1032 -0.2249 -1.2147
 4565TIP3    H235187   2.256   6.559  14.323 -0.9742 -0.4135  1.3964
 4566TIP3   OH235188   1.454   3.753  15.260 -0.3913  0.2543  0.4799
 4566TIP3    H135189   1.539   3.795  15.276 -0.1942 -0.8508  2.6745
 4566TIP3    H235190   1.390   3.822  15.277 -0.0034  0.8654 -0.3899
 4567TIP3   OH235191   1.024   3.762  12.733 -0.3059 -0.1618 -0.5941
 4567TIP3    H135192   1.010   3.804  12.817  0.8925  0.6978 -0.8079
 4567TIP3    H235193   1.097   3.809  12.693  1.5357 -2.8022 -0.5957
 4568TIP3   OH235194   0.028   1.791  14.580 -0.3113  0.3049  0.6075
 4568TIP3    H135195   0.101   1.807  14.639 -1.4122  2.8690  1.4320
 4568TIP3    H235196   0.032   1.863  14.516 -1.5842  0.0003  0.1458
 4569TIP3   OH235197   0.987   4.386   0.047  0.1232  0.0762 -0.8964
 4569TIP3    H135198   0.949   4.469   0.019 -1.1024 -0.3285 -0.5169
 4569TIP3    H235199   0.940   4.319  -0.003 -2.3180 -0.6857  2.1033
 4570TIP3   OH235200   2.771   6.286   3.047  0.3805  0.2248 -0.7631
 4570TIP3    H135201   2.864   6.280   3.025  0.1814  0.3710 -1.6756
 4570TIP3    H235202   2.726   6.262   2.966 -0.4021 -3.0897  0.5167
 4571TIP3   OH235203   1.130   4.439   1.232  1.0259 -0.0493 -0.1872
 4571TIP3    H135204   1.104   4.459   1.322  2.0832 -0.6954  0.2761
 4571TIP3    H235205   1.127   4.343   1.226 -2.1650  0.0184 -1.8284
 4572TIP3   OH235206   2.152   5.860   1.533  0.2541  0.4251 -0.0746
 4572TIP3    H135207   2.243   5.861   1.563  0.4454  1.6643 -0.6145
 4572TIP3    H235208   2.100   5.869   1.612  0.7175  2.4625  0.0614
 4573TIP3   OH235209   5.584   4.028   2.765  0.2885  0.1863 -0.2836
 4573TIP3    H135210   5.594   4.120   2.740  0.2080  0.2915  0.0630
 4573TIP3    H235211   5.492   4.008   2.747 -0.4668  0.9839  2.2072
 4574TIP3   OH235212   5.898   5.322  14.286  0.2727  0.5915 -0.1408
 4574TIP3    H135213   5.853   5.329  14.370  0.8904 -0.1525  0.2565
 4574TIP3    H235214   5.970   5.385  14.292  0.7204  0.0535  0.1486
 4575TIP3   OH235215   4.198   2.112  13.137 -0.6340 -0.1293 -0.2917
 4575TIP3    H135216   4.285   2.127  13.098 -1.0867  0.0264 -1.2925
 4575TIP3    H235217   4.190   2.180  13.204 -0.2985  0.3767 -0.7538
 4576TIP3   OH235218   6.542   6.810   0.236 -0.5176 -0.2543  0.6221
 4576TIP3    H135219   6.468   6.788   0.293  0.8574 -1.7389  1.9187
 4576TIP3    H235220   6.515   6.779   0.149 -1.8632  0.2999  0.8131
 4577TIP3   OH235221   0.598   3.977   3.581 -0.8210 -0.5905  0.2563
 4577TIP3    H135222   0.604   4.050   3.520  0.7145  0.6475  1.7648
 4577TIP3    H235223   0.679   3.982   3.633 -1.3258 -2.5126  1.3588
 4578TIP3   OH235224   2.090   6.269   3.884 -0.9309 -0.3437  0.0279
 4578TIP3    H135225   2.107   6.242   3.974 -1.5275 -0.7652  0.0216
 4578TIP3    H235226   2.162   6.232   3.833  0.8412  2.0270  0.6642
 4579TIP3   OH235227   4.159   4.328  16.540 -0.9394 -0.2333 -0.0901
 4579TIP3    H135228   4.161   4.268  16.466  1.6540 -0.9848  0.4681
 4579TIP3    H235229   4.071   4.319  16.577 -1.2049 -2.3448 -1.0921
 4580TIP3   OH235230   4.866   5.648   4.428 -0.5545  0.4086 -0.0330
 4580TIP3    H135231   4.953   5.635   4.391 -0.6450  0.5586 -0.2975
 4580TIP3    H235232   4.807   5.640   4.354 -0.6965  1.2655 -0.0187
 4581TIP3   OH235233   3.811   1.070  11.494  0.3178  0.0397  0.1335
 4581TIP3    H135234   3.856   1.084  11.411 -1.4508  1.7363 -0.6357
 4581TIP3    H235235   3.866   1.113  11.559 -0.0108  1.9208 -0.7562
 4582TIP3   OH235236   5.810   3.736   3.115 -0.2686 -0.4202 -0.4643
 4582TIP3    H135237   5.849   3.668   3.169  1.4948  2.0914  1.7458
 4582TIP3    H235238   5.729   3.759   3.159  0.0085  0.0482 -0.1845
 4583TIP3   OH235239   1.103   1.338  13.481 -0.5147 -0.2849 -1.1649
 4583TIP3    H135240   1.067   1.257  13.445 -0.0852 -1.3188  0.5847
 4583TIP3    H235241   1.198   1.329  13.468 -0.4589 -0.1218 -0.8850
 4584TIP3   OH235242   4.607   5.214  15.978 -0.4810 -0.2982 -0.3823
 4584TIP3    H135243   4.605   5.129  16.022 -2.7592 -1.1374 -1.9343
 4584TIP3    H235244   4.519   5.226  15.944 -0.6644  3.3668  0.9243
 4585TIP3   OH235245   1.322   4.850  12.174 -0.3792 -0.0440 -0.2510
 4585TIP3    H135246   1.362   4.772  12.137 -0.6395 -0.8053  1.0138
 4585TIP3    H235247   1.237   4.857  12.130  0.4780  0.7322 -1.8612
 4586TIP3   OH235248   5.532   4.425  13.847 -0.0133  0.7995  0.0531
 4586TIP3    H135249   5.496   4.432  13.759 -0.2819  1.7442  0.2228
 4586TIP3    H235250   5.478   4.359  13.890  1.5295 -1.3713 -1.1396
 4587TIP3   OH235251   5.773   1.778  14.928 -0.3245 -0.7138 -0.0039
 4587TIP3    H135252   5.844   1.831  14.964 -0.7022 -0.2914  0.1384
 4587TIP3    H235253   5.781   1.789  14.833 -0.2503 -0.5998  0.0158
 4588TIP3   OH235254   1.000   4.555  15.069 -0.1321  0.2858 -0.0307
 4588TIP3    H135255   0.937   4.541  15.140  0.2459  0.4956  0.3529
 4588TIP3    H235256   1.078   4.506  15.097 -0.7643 -1.6702 -1.4364
 4589TIP3   OH235257   2.054   0.894  13.602 -1.1175  0.3095  0.3117
 4589TIP3    H135258   2.105   0.895  13.521 -0.3998  1.1854  0.7625
 4589TIP3    H235259   1.977   0.946  13.582 -0.7808  0.8026  0.2901
 4590TIP3   OH235260   0.125   4.157   2.640  0.5956  0.0701  0.1001
 4590TIP3    H135261   0.039   4.123   2.664  2.1463 -2.0261  3.3724
 4590TIP3    H235262   0.146   4.220   2.708  1.6103  0.7067 -0.7694
 4591TIP3   OH235263   6.488   6.020  16.911  0.7752  0.1386 -0.3349
 4591TIP3    H135264   6.554   6.062  16.966 -0.2540  1.4337 -0.0282
 4591TIP3    H235265   6.443   6.092  16.868  0.8111 -0.8120 -2.0382
 4592TIP3   OH235266   5.109   3.361  16.081  0.1807 -0.2117  0.0006
 4592TIP3    H135267   5.184   3.319  16.124  0.0911 -0.7742 -0.3744
 4592TIP3    H235268   5.046   3.374  16.152  1.2344  1.7394  0.6317
 4593TIP3   OH235269   2.474   3.336  10.833  0.4406  0.6901  0.1230
 4593TIP3    H135270   2.559   3.359  10.795  0.2954 -1.8994 -2.0806
 4593TIP3    H235271   2.491   3.255  10.881 -0.5405  0.8648  0.7877
 4594TIP3   OH235272   0.803   4.519  12.420  0.0168  0.4656 -0.2322
 4594TIP3    H135273   0.739   4.497  12.352 -0.4151 -0.3774  0.4372
 4594TIP3    H235274   0.870   4.451  12.413  0.8369  1.3058 -0.8873
 4595TIP3   OH235275   2.439   0.507   4.621  0.2267  0.2583  0.0169
 4595TIP3    H135276   2.378   0.558   4.675 -0.2548  0.1363 -0.4009
 4595TIP3    H235277   2.413   0.527   4.531  0.1254 -0.6116 -0.1546
 4596TIP3   OH235278   2.083   6.296   6.124 -0.8797  0.4274 -0.0073
 4596TIP3    H135279   2.091   6.346   6.206 -2.3348 -1.6702  1.5367
 4596TIP3    H235280   2.149   6.227   6.132 -1.3307 -0.0502 -0.3915
 4597TIP3   OH235281   5.060   0.671   1.366 -0.1479 -0.0541 -0.1118
 4597TIP3    H135282   4.983   0.643   1.317 -0.3673 -0.6280  0.5348
 4597TIP3    H235283   5.117   0.595   1.367  0.4866  0.4004 -0.6736
 4598TIP3   OH235284   6.514   6.297   2.417  0.1940 -0.0447 -0.9782
 4598TIP3    H135285   6.472   6.221   2.459 -0.7479  0.3370 -1.1986
 4598TIP3    H235286   6.516   6.363   2.486 -0.6042  0.3078 -1.2766
 4599TIP3   OH235287   4.432   1.633  14.989 -0.0919  0.6420  0.1051
 4599TIP3    H135288   4.502   1.664  14.931  0.2005  0.0653  0.1444
 4599TIP3    H235289   4.377   1.710  15.003  0.4160  1.0499 -0.1003
 4600TIP3   OH235290   6.660   0.445   2.819 -0.2022 -0.0398 -0.1501
 4600TIP3    H135291   6.746   0.432   2.858  0.0188  3.1432  0.7243
 4600TIP3    H235292   6.675   0.509   2.749 -1.7318 -0.0737 -0.5481
 4601TIP3   OH235293   6.170   3.191  14.156 -0.1421  0.2432  0.2366
 4601TIP3    H135294   6.105   3.202  14.087 -2.5925  0.0574  2.3486
 4601TIP3    H235295   6.174   3.275  14.200  1.1457  0.2650  0.1261
 4602TIP3   OH235296   6.684   6.589  13.189 -0.3612 -0.1300 -0.3511
 4602TIP3    H135297   6.742   6.549  13.253 -0.1642  0.3473 -0.2292
 4602TIP3    H235298   6.596   6.576  13.225 -0.1939  0.9143  0.4568
 4603TIP3   OH235299   0.496   1.328  12.971  0.4052 -0.2216  0.1287
 4603TIP3    H135300   0.571   1.383  12.948  0.4710  0.5680  2.1276
 4603TIP3    H235301   0.443   1.381  13.030 -2.4160 -0.3016 -2.0506
 4604TIP3   OH235302   3.478   0.208   5.610 -0.4330 -0.4797  0.3420
 4604TIP3    H135303   3.440   0.195   5.697 -0.3499 -1.8118  0.1902
 4604TIP3    H235304   3.557   0.260   5.626 -1.2456  0.6248  0.8721
 4605TIP3   OH235305   2.086   2.159   5.040  0.4771  0.2755 -0.0447
 4605TIP3    H135306   2.168   2.141   4.995 -0.6282 -1.0470 -1.6614
 4605TIP3    H235307   2.065   2.250   5.017  0.6199  0.0552 -1.0954
 4606TIP3   OH235308   5.836   0.097  15.676 -0.1173  0.4913 -0.1056
 4606TIP3    H135309   5.932   0.094  15.676 -0.0741  1.3529 -0.7654
 4606TIP3    H235310   5.815   0.184  15.711 -0.7015 -0.0822  1.0573
 4607TIP3   OH235311   6.521   4.418   3.562  0.1587 -0.3566  0.3088
 4607TIP3    H135312   6.559   4.492   3.515  1.3645 -0.4028  1.1668
 4607TIP3    H235313   6.540   4.342   3.506 -0.7276 -0.0894 -0.3760
 4608TIP3   OH235314   6.285   5.561   4.636  0.1177  0.2674  0.5452
 4608TIP3    H135315   6.320   5.481   4.675  2.2563  1.0141  0.2800
 4608TIP3    H235316   6.199   5.571   4.677 -1.0387 -3.0642 -0.7009
 4609TIP3   OH235317   4.981   2.619   5.975 -0.1809 -0.0370 -0.1787
 4609TIP3    H135318   4.911   2.585   6.031  1.3443 -0.1962  1.7252
 4609TIP3    H235319   5.055   2.562   5.992  0.4932  0.2242 -2.0465
 4610TIP3   OH235320   5.553   6.040  10.927  0.1003  1.0092  0.1014
 4610TIP3    H135321   5.523   6.129  10.911  0.1846  0.9884 -0.1620
 4610TIP3    H235322   5.498   5.985  10.871  1.3182  1.0575 -1.1686
 4611TIP3   OH235323   5.941   5.895   0.735 -0.5996 -0.2112  0.1291
 4611TIP3    H135324   5.973   5.827   0.794 -1.6430  0.0903  1.0726
 4611TIP3    H235325   5.990   5.974   0.760 -1.7855  0.1731  1.3554
 4612TIP3   OH235326   1.093   3.201  10.696  0.1787 -0.6367  0.5863
 4612TIP3    H135327   1.121   3.124  10.647 -1.5623 -0.8896 -0.0732
 4612TIP3    H235328   0.997   3.198  10.693  0.0652  0.9274  1.5454
 4613TIP3   OH235329   0.278   5.269   1.581  0.0377  0.0471 -0.2827
 4613TIP3    H135330   0.228   5.342   1.545 -1.0724  0.1070  1.2772
 4613TIP3    H235331   0.352   5.310   1.626 -0.0733  0.1472 -0.1913
 4614TIP3   OH235332   0.286   3.218   6.527 -1.0554  0.0310 -0.3346
 4614TIP3    H135333   0.332   3.134   6.528  0.8570  0.9974  1.6234
 4614TIP3    H235334   0.350   3.281   6.493 -0.9731  1.3328  1.9896
 4615TIP3   OH235335   5.318   1.179   6.176  0.3861 -0.2448 -0.3413
 4615TIP3    H135336   5.229   1.202   6.150 -0.0617 -0.6540  0.7791
 4615TIP3    H235337   5.347   1.253   6.230  0.9783  0.1818 -1.2110
 4616TIP3   OH235338   2.078   1.903  17.059 -0.4166  0.3371  0.4456
 4616TIP3    H135339   2.161   1.947  17.073 -0.8887  0.8513  1.8213
 4616TIP3    H235340   2.091   1.851  16.980  1.1076  0.6211  0.4827
 4617TIP3   OH235341   6.088   4.570   9.162  0.6019 -0.5219  0.1516
 4617TIP3    H135342   6.009   4.580   9.109 -0.4702 -1.2967  1.5516
 4617TIP3    H235343   6.154   4.622   9.116 -0.6237 -0.1112 -1.2189
 4618TIP3   OH235344   4.670   6.803   2.296  0.2837  0.1671 -0.0075
 4618TIP3    H135345   4.632   6.746   2.229 -0.4242  1.1524 -0.4764
 4618TIP3    H235346   4.762   6.811   2.271  0.0068  0.6149 -0.9608
 4619TIP3   OH235347   5.069   3.996   0.818  0.4921  0.2705 -0.4892
 4619TIP3    H135348   5.148   3.955   0.852 -2.2883 -3.4071  2.4254
 4619TIP3    H235349   5.040   3.938   0.747 -1.6631 -1.1054  1.3565
 4620TIP3   OH235350   4.543   2.521  10.889  0.3681  0.4193 -0.7884
 4620TIP3    H135351   4.469   2.547  10.944  0.4406  1.0615 -0.9919
 4620TIP3    H235352   4.517   2.546  10.800 -0.3741 -1.9066 -1.3058
 4621TIP3   OH235353   2.212   0.573  13.680 -0.2384  0.1564 -0.5237
 4621TIP3    H135354   2.133   0.528  13.650 -0.3370 -0.5234  0.6680
 4621TIP3    H235355   2.277   0.558  13.611 -0.9850  0.2600 -1.2599
 4622TIP3   OH235356   4.516   4.867   5.770  0.0942 -0.1440  0.4731
 4622TIP3    H135357   4.565   4.949   5.780 -2.3342  1.3066  1.3760
 4622TIP3    H235358   4.558   4.807   5.832  0.8474  0.9555  1.0769
 4623TIP3   OH235359   0.172   4.852   1.903 -0.7608  0.1450  0.1195
 4623TIP3    H135360   0.192   4.944   1.888 -2.1415  0.5708  0.7529
 4623TIP3    H235361   0.233   4.825   1.972 -0.1247  0.4705 -0.2987
 4624TIP3   OH235362   0.856   3.880   0.042 -0.3721 -0.0836 -0.3216
 4624TIP3    H135363   0.766   3.910   0.053 -0.6557 -1.1110  0.3811
 4624TIP3    H235364   0.860   3.850  -0.049 -1.2107 -1.4151  0.0425
 4625TIP3   OH235365   5.140   6.408  14.050 -0.3946 -0.7293 -0.0099
 4625TIP3    H135366   5.156   6.466  13.975 -1.0487  0.1670  0.5249
 4625TIP3    H235367   5.201   6.439  14.117 -1.5872  0.1738  0.6995
 4626TIP3   OH235368   6.459   1.136  13.764 -0.2338 -0.1859  0.3741
 4626TIP3    H135369   6.516   1.190  13.819 -0.7446 -0.1298  0.8549
 4626TIP3    H235370   6.506   1.053  13.754  1.5408  0.9795 -2.0579
 4627TIP3   OH235371   6.355   1.647  14.968 -0.1289 -0.0370 -0.0976
 4627TIP3    H135372   6.424   1.667  15.030  1.2131 -1.0919 -1.1852
 4627TIP3    H235373   6.368   1.554  14.946 -2.4124 -0.5049  0.2895
 4628TIP3   OH235374   1.409   6.462   3.677 -0.4965  0.2937 -0.3559
 4628TIP3    H135375   1.431   6.481   3.768 -0.3055  1.6739 -0.6742
 4628TIP3    H235376   1.459   6.526   3.626 -1.1546  0.0036 -1.3926
 4629TIP3   OH235377   4.070   2.618   0.640 -0.0426  0.3977 -0.0917
 4629TIP3    H135378   3.989   2.637   0.593 -0.9836 -0.4621  1.0875
 4629TIP3    H235379   4.072   2.682   0.712 -1.5219 -1.6403  1.9242
 4630TIP3   OH235380   1.276   3.814  14.900  0.6215  0.2245 -0.1573
 4630TIP3    H135381   1.366   3.832  14.873  0.6552  1.3614  0.6300
 4630TIP3    H235382   1.254   3.731  14.858  1.4589  0.7589 -1.7496
 4631TIP3   OH235383   5.332   1.938  13.224 -0.2867  0.4698 -0.1491
 4631TIP3    H135384   5.384   2.001  13.273  1.3788 -2.1188  1.6818
 4631TIP3    H235385   5.243   1.949  13.259  0.0364  1.4940  0.4084
 4632TIP3   OH235386   4.133   4.111   3.335 -1.0266 -0.2459  0.1131
 4632TIP3    H135387   4.163   4.020   3.336 -0.3775 -0.1591 -2.8222
 4632TIP3    H235388   4.210   4.162   3.358 -0.4112 -0.3166 -1.6669
 4633TIP3   OH235389   6.164   5.611  13.376  0.7911 -0.4272  0.4317
 4633TIP3    H135390   6.213   5.682  13.417  0.3012 -0.3280  0.8470
 4633TIP3    H235391   6.227   5.570  13.316  2.4619 -2.2973  3.1948
 4634TIP3   OH235392   1.542   3.821   2.656  0.6272  0.4329  0.2208
 4634TIP3    H135393   1.469   3.883   2.660  0.4764  0.1923  2.6130
 4634TIP3    H235394   1.502   3.736   2.675  1.4468  0.2545  1.2320
 4635TIP3   OH235395   5.649   2.024   0.186  0.0233  0.4818  0.3558
 4635TIP3    H135396   5.556   2.040   0.174  0.3655  1.7544 -1.0425
 4635TIP3    H235397   5.691   2.085   0.125  1.7672 -0.0254  0.9921
 4636TIP3   OH235398   0.221   6.729   2.520 -0.0743  0.1143 -0.5055
 4636TIP3    H135399   0.315   6.714   2.513  0.5166  2.1883  1.4147
 4636TIP3    H235400   0.189   6.728   2.430  1.7859 -0.6000 -1.2058
 4637TIP3   OH235401   6.720   3.277  12.969 -0.2575  0.0575  0.2013
 4637TIP3    H135402   6.701   3.336  13.042  0.8964  1.8069 -0.8267
 4637TIP3    H235403   6.791   3.221  13.000 -0.1791  0.3924  0.6263
 4638TIP3   OH235404   1.205   0.850  15.928  0.3981  0.5051  0.2757
 4638TIP3    H135405   1.235   0.842  15.837  0.1435 -1.9033  0.3295
 4638TIP3    H235406   1.110   0.838  15.922  0.2119  1.6482  0.7508
 4639TIP3   OH235407   2.191   4.890   4.604 -1.1456  0.9497  0.3420
 4639TIP3    H135408   2.175   4.825   4.535  1.1229 -0.3789  0.9492
 4639TIP3    H235409   2.165   4.973   4.566 -0.8744  0.1270 -1.7771
 4640TIP3   OH235410   0.322   5.181   1.105 -0.3345 -0.1312 -0.6736
 4640TIP3    H135411   0.377   5.135   1.042  0.4456  0.3956 -0.3833
 4640TIP3    H235412   0.241   5.199   1.057 -0.8179 -2.1348 -0.6762
 4641TIP3   OH235413   2.910   6.289  14.908 -0.3217 -0.3519  0.3700
 4641TIP3    H135414   2.970   6.216  14.925 -1.1812 -0.6852  2.2844
 4641TIP3    H235415   2.830   6.247  14.874  0.5721  0.1235 -2.5996
 4642TIP3   OH235416   6.438   5.019   2.092  0.1601 -0.3498  0.3656
 4642TIP3    H135417   6.489   4.966   2.153  1.8084  0.6130 -0.1071
 4642TIP3    H235418   6.477   5.001   2.007 -0.4388  0.2475 -0.0456
 4643TIP3   OH235419   1.765   2.616  11.089 -0.0976  0.4030 -0.1941
 4643TIP3    H135420   1.837   2.570  11.131 -1.9345 -0.1631  2.5982
 4643TIP3    H235421   1.790   2.708  11.091  0.6002  0.2042  0.6375
 4644TIP3   OH235422   4.274   1.721  16.728  0.9893 -0.1787 -0.1730
 4644TIP3    H135423   4.201   1.765  16.684 -0.3743  1.1378  3.0563
 4644TIP3    H235424   4.352   1.768  16.700  0.1017  1.1637 -0.4765
 4645TIP3   OH235425   6.703   2.788   6.257  0.1011  0.4060  0.4254
 4645TIP3    H135426   6.634   2.764   6.196  0.9803 -1.2584  0.0419
 4645TIP3    H235427   6.747   2.862   6.215 -0.5017  0.5263 -0.0202
 4646TIP3   OH235428   4.458   4.886   1.510 -0.2805 -0.4868 -0.2932
 4646TIP3    H135429   4.364   4.901   1.507 -0.2587 -0.0382  0.6703
 4646TIP3    H235430   4.496   4.974   1.515  0.0990 -0.6983  0.9133
 4647TIP3   OH235431   3.053   3.877   0.153  0.2450  0.6711 -0.3072
 4647TIP3    H135432   3.134   3.927   0.139  0.8724 -0.2638 -0.1677
 4647TIP3    H235433   3.051   3.814   0.081  0.7043 -0.6251  0.7617
 4648TIP3   OH235434   6.777   4.854   4.882 -0.1129  0.1082 -0.2999
 4648TIP3    H135435   6.750   4.850   4.790 -0.7693 -0.1603 -0.1027
 4648TIP3    H235436   6.818   4.940   4.891 -0.0043  0.1189 -0.8534
 4649TIP3   OH235437   0.126   1.149  13.483  0.2358 -0.0975 -0.4753
 4649TIP3    H135438   0.170   1.215  13.537 -0.1096 -0.3194  0.0931
 4649TIP3    H235439   0.082   1.092  13.546 -2.4791  1.2306 -1.0142
 4650TIP3   OH235440   4.046   4.159   4.042 -0.5435 -0.3609 -0.7334
 4650TIP3    H135441   4.086   4.075   4.020  1.5522 -0.0351  1.3045
 4650TIP3    H235442   4.038   4.205   3.959  0.3079 -1.7593 -1.6278
 4651TIP3   OH235443   1.167   4.092  14.845  0.1708  0.4669  1.0153
 4651TIP3    H135444   1.105   4.062  14.778  0.7247  0.1720  0.6268
 4651TIP3    H235445   1.210   4.012  14.875  1.9093  0.8616 -0.2652
 4652TIP3   OH235446   2.795   0.960   4.208  0.1401  0.2533  0.0489
 4652TIP3    H135447   2.777   0.927   4.296 -3.0077 -1.0779 -0.9702
 4652TIP3    H235448   2.831   0.886   4.161 -2.0677 -0.3464 -0.8240
 4653TIP3   OH235449   0.703   4.409  17.092  0.3779 -0.0807  0.1339
 4653TIP3    H135450   0.610   4.434  17.093 -0.1264 -1.8407  0.8807
 4653TIP3    H235451   0.718   4.377  17.003  0.2412  0.1254  0.0359
 4654TIP3   OH235452   6.047   3.526   1.290 -0.4566  0.1723  0.1740
 4654TIP3    H135453   6.109   3.595   1.311  0.8885 -0.5114 -1.2838
 4654TIP3    H235454   6.033   3.480   1.372 -0.7910  1.6840  0.9986
 4655TIP3   OH235455   2.705   6.700  12.625 -0.2888  0.8713  0.1242
 4655TIP3    H135456   2.614   6.689  12.653 -0.7342  2.1522 -0.7351
 4655TIP3    H235457   2.706   6.783  12.578  1.4696  1.2037  0.6704
 4656TIP3   OH235458   5.969   5.647  16.859 -0.3738  0.0522 -0.1708
 4656TIP3    H135459   5.915   5.578  16.821 -2.1768  1.6306 -0.6956
 4656TIP3    H235460   5.939   5.727  16.815  2.3259  1.0670 -0.3279
 4657TIP3   OH235461   5.439   0.448   6.908  0.2150  0.0542  0.6487
 4657TIP3    H135462   5.495   0.524   6.894 -0.8873  0.4226 -2.5475
 4657TIP3    H235463   5.350   0.481   6.898 -0.3603 -1.3720  0.7188
 4658TIP3   OH235464   3.185   3.008  15.264  0.0738 -0.0482 -0.7260
 4658TIP3    H135465   3.102   3.041  15.299 -0.2503  0.1642 -1.6589
 4658TIP3    H235466   3.246   3.082  15.273  0.3731 -0.4278  0.6020
 4659TIP3   OH235467   4.344   6.341   6.193 -0.7092 -0.5249  0.7187
 4659TIP3    H135468   4.286   6.415   6.211  0.8731  1.1093 -0.6756
 4659TIP3    H235469   4.390   6.327   6.276  1.3795  2.2895  0.1465
 4660TIP3   OH235470   1.363   1.331  12.637  0.6665  0.6794  0.2821
 4660TIP3    H135471   1.348   1.395  12.568 -0.4702 -0.0821 -0.2000
 4660TIP3    H235472   1.276   1.308  12.669  0.9598 -1.3608 -0.2382
 4661TIP3   OH235473   1.627   0.632  14.616  0.1192 -0.1303 -0.1789
 4661TIP3    H135474   1.580   0.667  14.540 -0.2182 -0.8667 -0.3130
 4661TIP3    H235475   1.679   0.560  14.582 -0.3612 -0.7397  0.3551
 4662TIP3   OH235476   4.934   4.246   3.922  0.0780  0.0717 -0.0842
 4662TIP3    H135477   4.955   4.319   3.865 -0.8874  0.9189  0.5962
 4662TIP3    H235478   4.853   4.273   3.966 -0.7594 -1.7380 -0.4068
 4663TIP3   OH235479   6.505   6.856   4.112  0.9342 -0.5912 -0.2262
 4663TIP3    H135480   6.546   6.897   4.189  1.3354  1.3466 -1.4084
 4663TIP3    H235481   6.413   6.846   4.137  0.8135  1.0997  0.1150
 4664TIP3   OH235482   2.265   1.856   4.279 -0.0230  0.2895  0.4206
 4664TIP3    H135483   2.358   1.855   4.258 -0.4261 -0.9194 -1.5870
 4664TIP3    H235484   2.221   1.845   4.194 -2.0648  2.5680  1.0414
 4665TIP3   OH235485   2.332   5.180   4.878  0.0269 -0.1893  0.3544
 4665TIP3    H135486   2.305   5.252   4.820 -0.5496  0.4127  1.3311
 4665TIP3    H235487   2.389   5.126   4.824 -0.4915  0.3484 -0.7716
 4666TIP3   OH235488   2.109   0.354  16.493 -0.4733  0.3681 -0.7436
 4666TIP3    H135489   2.065   0.279  16.453  0.5945 -0.5606 -0.2544
 4666TIP3    H235490   2.077   0.430  16.444 -3.6613 -0.0425  0.4625
 4667TIP3   OH235491   0.129   4.291  15.370 -0.2272  0.3735 -0.2449
 4667TIP3    H135492   0.181   4.294  15.290  0.8550 -0.1012  0.4269
 4667TIP3    H235493   0.053   4.237  15.347  0.6070 -0.6581 -0.6538
 4668TIP3   OH235494   1.359   0.899  15.647 -0.1567  0.3066  0.1995
 4668TIP3    H135495   1.374   0.823  15.591  0.0891 -0.1637  0.8838
 4668TIP3    H235496   1.446   0.937  15.660 -0.1713  0.2480  0.4816
 4669TIP3   OH235497   2.871   6.092   1.205  0.5620 -0.0679  0.0590
 4669TIP3    H135498   2.889   6.107   1.298 -0.2290 -0.2200  0.2447
 4669TIP3    H235499   2.776   6.085   1.200  0.6596 -1.0954 -0.6058
 4670TIP3   OH235500   6.599   4.661   4.173  0.7816 -0.3017 -0.1253
 4670TIP3    H135501   6.560   4.732   4.123  1.4857 -0.1874 -0.5276
 4670TIP3    H235502   6.526   4.622   4.221  0.0453 -0.5497 -1.4125
 4671TIP3   OH235503   3.810   6.374  14.068 -0.6620 -0.2645 -0.5950
 4671TIP3    H135504   3.888   6.398  14.019 -1.0358 -0.1143 -1.1195
 4671TIP3    H235505   3.826   6.406  14.157  0.2630 -1.0421 -0.4665
 4672TIP3   OH235506   0.652   6.711  17.034  0.1523  0.2401  0.4676
 4672TIP3    H135507   0.668   6.736  17.125 -2.5790 -0.8296  1.3513
 4672TIP3    H235508   0.690   6.623  17.027  0.3007  0.2911  0.6142
 4673TIP3   OH235509   4.666   0.861  11.226 -0.1364 -0.3685 -0.2088
 4673TIP3    H135510   4.670   0.939  11.281  0.9606 -0.1895 -0.5104
 4673TIP3    H235511   4.636   0.892  11.141  3.8325  0.5113 -1.5076
 4674TIP3   OH235512   2.382   5.903   1.770 -0.2011 -0.0371 -0.0413
 4674TIP3    H135513   2.358   5.874   1.858 -0.1378  0.9801  0.3246
 4674TIP3    H235514   2.446   5.838   1.740 -2.2281 -1.9521 -0.4533
 4675TIP3   OH235515   2.808   3.719   2.548 -0.2829 -0.2265  0.5501
 4675TIP3    H135516   2.801   3.813   2.563  1.2682 -0.0365  0.2367
 4675TIP3    H235517   2.886   3.693   2.597  1.4935 -0.6534 -2.3282
 4676TIP3   OH235518   0.818   2.161  13.644  0.0428 -0.1710 -0.1251
 4676TIP3    H135519   0.877   2.109  13.590  0.7376  0.8917 -0.4215
 4676TIP3    H235520   0.848   2.251  13.632 -1.3056  0.3293  0.1522
 4677TIP3   OH235521   4.620   1.891  12.828  0.3658 -0.0032  0.1388
 4677TIP3    H135522   4.650   1.974  12.792  0.2372  0.0038  0.0475
 4677TIP3    H235523   4.610   1.834  12.752  0.5213 -0.1240  0.2085
 4678TIP3   OH235524   1.283   6.564   4.935 -0.5386  0.1472 -0.1652
 4678TIP3    H135525   1.330   6.591   5.013  0.6920  1.4269 -1.2941
 4678TIP3    H235526   1.202   6.616   4.936 -1.0238 -0.5991  0.7567
 4679TIP3   OH235527   3.232   6.793   0.951  0.0826  0.1570  0.0647
 4679TIP3    H135528   3.318   6.833   0.938  0.0677  0.1450 -0.0790
 4679TIP3    H235529   3.195   6.839   1.025 -0.3721  1.1445 -0.7509
 4680TIP3   OH235530   1.302   1.121  14.853 -0.2331  0.4528  0.0248
 4680TIP3    H135531   1.356   1.145  14.929  0.8877  1.2199 -0.9728
 4680TIP3    H235532   1.226   1.077  14.891 -0.5457  2.2703  1.7281
 4681TIP3   OH235533   3.559   3.330   4.243 -0.2202  0.0993 -0.3265
 4681TIP3    H135534   3.476   3.301   4.280  0.1387 -0.7501 -0.1537
 4681TIP3    H235535   3.593   3.393   4.307 -0.2569 -0.3086  0.0946
 4682TIP3   OH235536   5.823   6.324  12.876 -0.8396 -0.5084 -0.0045
 4682TIP3    H135537   5.816   6.286  12.788  0.6556  0.3408 -0.5468
 4682TIP3    H235538   5.759   6.394  12.877 -0.4739 -0.1507 -0.6522
 4683TIP3   OH235539   4.295   2.434   3.245 -0.5447 -0.0428 -0.2721
 4683TIP3    H135540   4.390   2.447   3.240 -0.4180 -0.7906  0.1267
 4683TIP3    H235541   4.261   2.519   3.272  0.0599  0.0835  0.1145
 4684TIP3   OH235542   3.808   4.535   2.549  0.0345 -0.1024 -0.4818
 4684TIP3    H135543   3.719   4.513   2.574  0.3361 -0.8722 -0.0391
 4684TIP3    H235544   3.860   4.518   2.629  0.7296 -0.6816 -1.0435
 4685TIP3   OH235545   5.984   5.227  12.844 -0.1317  0.2906 -0.5058
 4685TIP3    H135546   5.948   5.203  12.929  0.4007 -1.3844 -0.6941
 4685TIP3    H235547   5.908   5.232  12.786 -0.3197 -0.9682 -0.4161
 4686TIP3   OH235548   1.409   0.288  12.734 -0.1689  0.2398  0.6976
 4686TIP3    H135549   1.366   0.208  12.764  0.8773 -0.7629 -0.3481
 4686TIP3    H235550   1.447   0.264  12.650  1.3352  1.4319  0.9889
 4687TIP3   OH235551   6.329   5.535  14.058  0.5796 -0.1070 -0.1492
 4687TIP3    H135552   6.305   5.628  14.057 -3.3102 -0.9235 -2.5283
 4687TIP3    H235553   6.314   5.506  13.968  2.0954 -3.0069  0.4385
 4688TIP3   OH235554   3.999   6.025  15.260  0.0735  0.1538 -0.0606
 4688TIP3    H135555   3.957   5.999  15.342  0.7231  1.5454  0.7713
 4688TIP3    H235556   4.017   6.119  15.272 -0.1378  0.4656 -1.9508
 4689TIP3   OH235557   0.954   1.984   5.718 -0.1458  0.0658 -0.0529
 4689TIP3    H135558   0.995   2.025   5.642 -0.4093  0.3840 -0.0279
 4689TIP3    H235559   1.027   1.971   5.780  0.1863 -0.8210 -0.6147
 4690TIP3   OH235560   2.656   3.496   2.924  0.1059 -0.0232  0.2524
 4690TIP3    H135561   2.571   3.500   2.881 -0.1718 -2.0773  0.5125
 4690TIP3    H235562   2.656   3.569   2.986 -2.1736 -0.9604  1.4648
 4691TIP3   OH235563   4.356   6.433  10.520 -0.5067  0.2841 -0.3214
 4691TIP3    H135564   4.362   6.346  10.558  0.7259  1.1222  1.5743
 4691TIP3    H235565   4.407   6.428  10.439 -1.0412 -0.9088 -0.6005
 4692TIP3   OH235566   4.743   4.560   0.312  0.3313  0.0028  0.0255
 4692TIP3    H135567   4.817   4.542   0.254 -0.0103 -2.0222  0.1480
 4692TIP3    H235568   4.769   4.520   0.395 -0.9731 -0.9333  0.0042
 4693TIP3   OH235569   1.003   2.051  11.121 -0.4067 -0.0152 -0.4587
 4693TIP3    H135570   0.944   2.060  11.047  0.7732  0.2511 -1.3848
 4693TIP3    H235571   1.071   2.116  11.107  0.2321 -0.4499  0.4817
 4694TIP3   OH235572   5.679   3.626   2.481 -0.5542 -0.4728  0.4204
 4694TIP3    H135573   5.773   3.642   2.478 -0.7087  0.2881 -1.0448
 4694TIP3    H235574   5.649   3.670   2.560  0.4641 -1.7059  1.5512
 4695TIP3   OH235575   2.311   3.586   3.040 -0.3094 -0.5238 -0.2603
 4695TIP3    H135576   2.303   3.492   3.056  3.7746 -1.1280 -0.7951
 4695TIP3    H235577   2.324   3.624   3.127 -1.8584 -0.3664 -0.0552
 4696TIP3   OH235578   3.508   1.198   2.763  0.9320 -0.2949 -0.2569
 4696TIP3    H135579   3.503   1.104   2.750 -0.4375 -0.0065 -2.2946
 4696TIP3    H235580   3.475   1.236   2.681  1.0162  1.9492  0.6578
 4697TIP3   OH235581   1.579   5.469   5.014 -0.7464  0.3693  0.1123
 4697TIP3    H135582   1.546   5.519   5.089 -3.4251 -1.5942  0.3913
 4697TIP3    H235583   1.630   5.399   5.053 -1.9722 -0.5335  0.1616
 4698TIP3   OH235584   1.337   4.975   0.123 -0.1451  0.5758 -0.7643
 4698TIP3    H135585   1.421   4.944   0.157 -0.1886  2.9229  1.8602
 4698TIP3    H235586   1.276   4.965   0.197 -2.0091 -0.2471 -2.3229
 4699TIP3   OH235587   1.582   4.699   0.784  0.0520  0.5807  0.0062
 4699TIP3    H135588   1.610   4.701   0.693 -0.4972 -0.1863 -0.1876
 4699TIP3    H235589   1.503   4.754   0.786 -1.1370 -1.0333 -0.4255
 4700TIP3   OH235590   2.655   2.592   0.205  0.3207  0.1638 -0.2322
 4700TIP3    H135591   2.700   2.507   0.212 -1.5579 -0.7550  1.8171
 4700TIP3    H235592   2.690   2.644   0.277  0.8092  0.8651 -0.9482
 4701TIP3   OH235593   0.046   2.681  13.462  0.8980 -0.1055 -0.7321
 4701TIP3    H135594  -0.021   2.732  13.506  0.7494 -0.4958 -0.5080
 4701TIP3    H235595   0.001   2.604  13.428  1.0974 -0.0320 -1.1754
 4702TIP3   OH235596   4.140   0.577  13.240 -0.3212 -0.3969  0.0455
 4702TIP3    H135597   4.204   0.542  13.178  0.3645  1.2154 -0.2083
 4702TIP3    H235598   4.189   0.642  13.291 -1.0083 -1.2926  1.9334
 4703TIP3   OH235599   2.518   4.758   3.823  0.2275  0.2077  0.8103
 4703TIP3    H135600   2.545   4.842   3.862  0.5482  0.2538  0.4902
 4703TIP3    H235601   2.422   4.762   3.824  0.2241  1.2182 -0.5372
 4704TIP3   OH235602   4.379   1.647   4.867 -0.5804 -0.0066  0.3709
 4704TIP3    H135603   4.335   1.618   4.947  1.8835  0.4918  2.0494
 4704TIP3    H235604   4.381   1.570   4.811 -1.7238 -0.5758  1.0676
 4705TIP3   OH235605   0.566   3.292  16.613  0.0792 -0.6095  0.2372
 4705TIP3    H135606   0.627   3.305  16.686 -1.1601  1.5243  0.9658
 4705TIP3    H235607   0.548   3.198  16.613 -0.3228 -0.5993  3.0587
 4706TIP3   OH235608   0.900   5.462  12.638 -0.4106  0.4705  0.0235
 4706TIP3    H135609   0.973   5.523  12.645 -0.6519  0.7621  0.0096
 4706TIP3    H235610   0.822   5.514  12.659 -0.4918 -0.1430  1.3784
 4707TIP3   OH235611   3.403   3.792  13.155 -0.1752 -0.3990 -0.5788
 4707TIP3    H135612   3.460   3.716  13.152 -0.5368 -0.7832  1.2582
 4707TIP3    H235613   3.334   3.774  13.091 -0.4058 -1.7724  0.0226
 4708TIP3   OH235614   5.559   3.301   0.694 -0.1163 -0.3463 -0.0167
 4708TIP3    H135615   5.590   3.239   0.759 -0.1653  1.0345  1.3972
 4708TIP3    H235616   5.486   3.257   0.650 -0.7591 -0.9356  1.5954
 4709TIP3   OH235617   5.457   0.563   5.102  0.4116  0.3649 -0.2357
 4709TIP3    H135618   5.510   0.637   5.132 -2.5561  1.5751  2.5365
 4709TIP3    H235619   5.433   0.585   5.012  1.6472  1.4986 -0.3102
 4710TIP3   OH235620   5.324   0.433  13.434  0.0339  0.6066 -0.2202
 4710TIP3    H135621   5.388   0.496  13.401  0.0792  0.5830 -0.1780
 4710TIP3    H235622   5.242   0.456  13.390  0.2391  0.1617 -0.8435
 4711TIP3   OH235623   3.666   4.611  14.376 -0.3028 -0.2340  0.0393
 4711TIP3    H135624   3.736   4.561  14.418  0.9588 -0.3167 -1.9987
 4711TIP3    H235625   3.586   4.565  14.400  0.8047 -3.8898 -2.2842
 4712TIP3   OH235626   5.546   2.146   1.982  0.0942 -0.2317  0.1017
 4712TIP3    H135627   5.512   2.059   1.960 -0.3297  0.1702 -0.8871
 4712TIP3    H235628   5.559   2.143   2.076 -3.0377 -0.2970  0.6357
 4713TIP3   OH235629   4.746   1.647  15.484 -0.2202  0.3861 -0.0192
 4713TIP3    H135630   4.768   1.566  15.530 -0.3073 -0.2741 -1.1094
 4713TIP3    H235631   4.651   1.652  15.489 -0.2263  0.3393 -0.0946
 4714TIP3   OH235632   0.179   2.032  15.467  0.5484  0.2657  0.1504
 4714TIP3    H135633   0.226   2.103  15.423  0.0487 -0.0235 -0.8674
 4714TIP3    H235634   0.242   1.998  15.531  0.6488  1.9077  0.9792
 4715TIP3   OH235635   0.761   2.533  17.066 -0.0402 -0.0109  0.6200
 4715TIP3    H135636   0.838   2.510  17.119 -0.9613 -0.3448  1.8485
 4715TIP3    H235637   0.702   2.459  17.077 -0.2215 -0.1260 -0.9803
 4716TIP3   OH235638   5.178   4.891   5.229  0.3062 -0.4355 -0.2048
 4716TIP3    H135639   5.156   4.816   5.174  1.0828 -0.1393 -0.9337
 4716TIP3    H235640   5.273   4.895   5.229  0.2812  1.0676 -0.9218
 4717TIP3   OH235641   6.143   2.940  10.582  0.0371 -0.5224  0.4001
 4717TIP3    H135642   6.237   2.955  10.595  0.0317  0.1680 -0.3181
 4717TIP3    H235643   6.105   3.027  10.574 -0.5113 -0.8160 -0.3554
 4718TIP3   OH235644   1.369   3.234  11.292 -0.1603 -0.0066 -0.8027
 4718TIP3    H135645   1.359   3.141  11.273  0.3383 -0.2170 -0.0788
 4718TIP3    H235646   1.448   3.260  11.244 -1.0045  0.3649 -2.0529
 4719TIP3   OH235647   1.086   2.966  14.279 -0.0524 -0.3565 -0.1761
 4719TIP3    H135648   1.118   2.913  14.352  1.7544  2.5638  1.3451
 4719TIP3    H235649   1.064   3.050  14.319 -2.0096  0.3739 -2.5686
 4720TIP3   OH235650   1.079   6.597   0.762  0.7656 -0.1995  0.2877
 4720TIP3    H135651   1.132   6.540   0.706  1.2097  1.1273 -0.7106
 4720TIP3    H235652   1.143   6.656   0.803  0.1728  0.9420 -0.3603
 4721TIP3   OH235653   2.951   0.691  15.022 -0.2244 -0.2781  0.3258
 4721TIP3    H135654   2.871   0.743  15.022 -0.4326 -0.5260 -1.2402
 4721TIP3    H235655   2.926   0.609  14.979  0.5837 -0.8451  0.9079
 4722TIP3   OH235656   5.460   4.708  15.829 -0.0375 -0.5256  0.7354
 4722TIP3    H135657   5.473   4.786  15.882  3.6730 -1.3807  1.3796
 4722TIP3    H235658   5.476   4.635  15.889  1.4390 -1.5824 -0.8434
 4723TIP3   OH235659   5.605   1.472   4.173  0.1740  0.2258  0.5815
 4723TIP3    H135660   5.686   1.434   4.136  1.2615  2.0958  0.8962
 4723TIP3    H235661   5.559   1.397   4.211  2.0254 -0.8359  0.8826
 4724TIP3   OH235662   2.288   3.854  14.473 -0.3859  0.1523 -1.0757
 4724TIP3    H135663   2.307   3.825  14.383 -0.0485  0.1736 -1.0117
 4724TIP3    H235664   2.252   3.942  14.462 -3.2127 -0.9444 -1.4305
 4725TIP3   OH235665   2.355   0.782  12.130 -0.0840 -0.6591 -0.0151
 4725TIP3    H135666   2.320   0.851  12.187 -0.0313 -2.2806  2.1199
 4725TIP3    H235667   2.449   0.798  12.129 -0.3556  1.6320 -2.9191
 4726TIP3   OH235668   5.238   0.734  15.872 -0.2973  0.3860  0.1066
 4726TIP3    H135669   5.199   0.672  15.810 -0.4768 -0.0042  0.6097
 4726TIP3    H235670   5.264   0.681  15.947 -0.5906  0.9370  0.6079
 4727TIP3   OH235671   4.548   5.440   2.145 -0.0458 -0.3102  0.3418
 4727TIP3    H135672   4.503   5.400   2.219 -0.6490  0.0179  0.1631
 4727TIP3    H235673   4.550   5.534   2.166 -1.0644 -0.0859 -0.4790
 4728TIP3   OH235674   0.309   6.515  16.572 -0.1266  0.0128  0.5382
 4728TIP3    H135675   0.239   6.454  16.548 -2.6872  2.6695  0.6607
 4728TIP3    H235676   0.304   6.522  16.667  0.5541 -0.0097  0.5797
 4729TIP3   OH235677   3.397   6.269   0.979 -0.0232  0.8119 -0.7941
 4729TIP3    H135678   3.484   6.268   1.021 -0.0667  1.9371 -0.6439
 4729TIP3    H235679   3.406   6.212   0.903  0.3308 -0.5252  0.2145
 4730TIP3   OH235680   1.180   4.421  11.062 -0.2141 -0.4828 -0.4710
 4730TIP3    H135681   1.250   4.369  11.021  0.6219  1.0091 -1.0312
 4730TIP3    H235682   1.176   4.501  11.009  0.1980  1.0913  1.7402
 4731TIP3   OH235683   3.130   2.861   0.462  0.4248  0.3140  0.6388
 4731TIP3    H135684   3.051   2.912   0.445 -0.7462 -1.1081  1.6599
 4731TIP3    H235685   3.188   2.882   0.388 -2.0869 -0.9644 -1.8723
 4732TIP3   OH235686   5.735   6.741   4.172  0.0799 -0.4833  0.5544
 4732TIP3    H135687   5.732   6.673   4.239  0.6322  0.7476  1.8675
 4732TIP3    H235688   5.820   6.784   4.185  0.7538 -0.9730 -1.7282
 4733TIP3   OH235689   0.036   5.628  12.492  0.2808 -0.3044  0.5825
 4733TIP3    H135690  -0.048   5.666  12.466  0.9959  1.2456  0.4083
 4733TIP3    H235691   0.034   5.538  12.459 -0.9454 -0.0051 -0.2009
 4734TIP3   OH235692   1.802   3.802   5.250  0.1287  0.7512 -0.1616
 4734TIP3    H135693   1.850   3.725   5.281  1.3540  1.3704 -0.4254
 4734TIP3    H235694   1.837   3.874   5.303  0.1867  1.3679 -1.0165
 4735TIP3   OH235695   3.374   5.793  11.570 -0.5046  0.8193 -0.6004
 4735TIP3    H135696   3.446   5.794  11.508  0.3346  0.0886  0.3357
 4735TIP3    H235697   3.393   5.720  11.629 -1.4865  1.2369  0.2786
 4736TIP3   OH235698   0.898   1.972  12.004  0.5808 -0.2436  0.2939
 4736TIP3    H135699   0.992   1.976  11.984  0.5386 -1.6437 -0.2808
 4736TIP3    H235700   0.892   1.913  12.079  0.2310  0.6004  0.9464
 4737TIP3   OH235701   5.094   0.818   0.212 -0.2161 -0.0111  0.5428
 4737TIP3    H135702   5.173   0.843   0.260  0.3582 -1.4146  0.3676
 4737TIP3    H235703   5.101   0.862   0.127  1.6068 -1.9989 -0.4120
 4738TIP3   OH235704   6.426   3.914  13.612 -0.0527  0.1036 -0.3009
 4738TIP3    H135705   6.494   3.864  13.657  0.6795 -0.0385 -1.5056
 4738TIP3    H235706   6.379   3.849  13.560 -1.0834  0.2160  0.4542
 4739TIP3   OH235707   0.062   3.003   1.020 -0.0683  0.1158  0.1651
 4739TIP3    H135708   0.000   2.931   1.006 -0.4786  0.4414  0.2896
 4739TIP3    H235709   0.088   3.030   0.932  1.1680 -1.0999  0.1289
 4740TIP3   OH235710   6.238   1.331   2.395 -0.0814 -0.1122  0.6366
 4740TIP3    H135711   6.190   1.359   2.317  0.9277 -2.2383 -0.8553
 4740TIP3    H235712   6.170   1.311   2.459 -0.9703  1.0522  0.0905
 4741TIP3   OH235713   3.381   1.401   3.553 -0.1629 -0.0568  0.3659
 4741TIP3    H135714   3.429   1.322   3.527 -2.1714 -1.5023  0.7723
 4741TIP3    H235715   3.363   1.446   3.470  1.6312  0.4148  0.1892
 4742TIP3   OH235716   0.007   4.555  15.822 -0.1692  0.0389 -0.4785
 4742TIP3    H135717   0.024   4.487  15.886  2.1696  0.9893  0.0326
 4742TIP3    H235718   0.054   4.526  15.743  0.9568  1.0658 -0.2141
 4743TIP3   OH235719   2.216   3.922  12.355  0.9668  0.4756 -0.2121
 4743TIP3    H135720   2.245   3.926  12.446 -0.0303  0.6239  0.1132
 4743TIP3    H235721   2.157   3.997  12.345 -1.5679 -1.3637 -0.0033
 4744TIP3   OH235722   3.001   4.048   6.539 -0.3169 -0.2798 -0.0874
 4744TIP3    H135723   3.046   4.131   6.557 -0.7729 -0.1441  0.4374
 4744TIP3    H235724   3.032   4.024   6.451 -2.4744  2.0396 -1.6353
 4745TIP3   OH235725   4.271   0.072   5.805  0.6098 -0.0852  0.0586
 4745TIP3    H135726   4.261   0.113   5.891  0.8153  0.5572 -0.2157
 4745TIP3    H235727   4.193   0.018   5.795 -0.1989  1.0637 -0.0037
 4746TIP3   OH235728   3.476   2.071  16.764  0.5303  0.3378 -0.9134
 4746TIP3    H135729   3.505   2.050  16.853 -2.4046  2.8040  0.8269
 4746TIP3    H235730   3.384   2.095  16.774  0.4264  2.0058 -4.4328
 4747TIP3   OH235731   5.350   2.585  15.207 -0.2154 -0.3109 -0.0136
 4747TIP3    H135732   5.430   2.581  15.259 -0.3849  2.5001  0.6565
 4747TIP3    H235733   5.363   2.662  15.151 -2.2221 -0.0992 -0.2413
 4748TIP3   OH235734   5.206   0.763   4.018  0.0902 -0.4344 -0.0894
 4748TIP3    H135735   5.111   0.758   4.009  0.1853 -0.5249 -1.1309
 4748TIP3    H235736   5.229   0.686   4.070 -0.3076 -1.0025 -0.7342
 4749TIP3   OH235737   0.941   1.368   0.804  0.1480 -0.0071  0.3948
 4749TIP3    H135738   0.888   1.429   0.753  0.1703  2.0865  2.7338
 4749TIP3    H235739   1.030   1.379   0.770 -0.2873 -1.0183 -1.2046
 4750TIP3   OH235740   5.237   5.985   3.606 -0.0911  0.3410  0.0419
 4750TIP3    H135741   5.245   6.070   3.650 -1.6609  1.2355 -1.2805
 4750TIP3    H235742   5.227   6.007   3.514  1.6337 -1.4177 -0.6165
 4751TIP3   OH235743   3.428   4.845  16.722  0.3167  0.2296 -0.7875
 4751TIP3    H135744   3.461   4.779  16.660  1.6625  1.5297 -1.5490
 4751TIP3    H235745   3.419   4.798  16.804  2.9016 -0.5915 -0.8603
 4752TIP3   OH235746   0.681   3.406   2.040  0.0405  0.3321 -0.4542
 4752TIP3    H135747   0.642   3.338   2.094 -0.0068  0.2567 -0.5823
 4752TIP3    H235748   0.657   3.488   2.084  0.3198  0.2556 -0.1596
 4753TIP3   OH235749   6.770   4.724   5.138  0.1368 -0.0968 -0.2479
 4753TIP3    H135750   6.866   4.723   5.144  0.0962  0.3524  0.6224
 4753TIP3    H235751   6.751   4.775   5.059  0.5844  2.7522  1.3691
 4754TIP3   OH235752   2.140   0.887   5.581  0.4740 -0.5574  0.0419
 4754TIP3    H135753   2.103   0.937   5.508  1.4207  1.0457  0.5856
 4754TIP3    H235754   2.168   0.955   5.643  1.3634 -1.8183  1.0525
 4755TIP3   OH235755   1.891   6.667  13.015 -0.1718 -0.1750 -0.3704
 4755TIP3    H135756   1.980   6.631  13.018  0.1498  0.6555  1.0822
 4755TIP3    H235757   1.869   6.684  13.107 -2.9188 -2.9362 -0.3495
 4756TIP3   OH235758   1.297   6.262  15.930  0.3509 -0.1033  0.4785
 4756TIP3    H135759   1.317   6.261  15.836  1.1661  0.9371  0.6193
 4756TIP3    H235760   1.222   6.203  15.939 -0.2275  0.3646 -0.9385
 4757TIP3   OH235761   2.208   4.320   3.700  0.3562 -0.5931  0.5789
 4757TIP3    H135762   2.193   4.409   3.668  0.3055 -1.1074 -0.9155
 4757TIP3    H235763   2.295   4.323   3.739  0.0529  0.2785  1.2100
 4758TIP3   OH235764   4.252   0.117  10.873  0.1550 -0.1368  0.3184
 4758TIP3    H135765   4.241   0.212  10.873  0.3630 -0.1096 -0.2386
 4758TIP3    H235766   4.336   0.102  10.829  1.0888 -0.4806  2.1440
 4759TIP3   OH235767   3.886   3.066   5.155 -0.3073 -0.0161  0.0875
 4759TIP3    H135768   3.909   3.145   5.204 -0.6223  0.3634 -0.3701
 4759TIP3    H235769   3.793   3.053   5.173  0.0044 -0.9960  1.1511
 4760TIP3   OH235770   5.218   4.228   2.421 -0.5389  0.7291  0.3621
 4760TIP3    H135771   5.148   4.164   2.408  0.9776 -0.6584 -1.6516
 4760TIP3    H235772   5.179   4.312   2.397 -1.1934 -0.2033 -2.2000
 4761TIP3   OH235773   2.135   0.814   2.469 -0.8062 -0.5463  0.1733
 4761TIP3    H135774   2.164   0.878   2.533  0.7429 -0.1190 -0.8765
 4761TIP3    H235775   2.184   0.734   2.492  3.1579  0.6910 -2.7610
 4762TIP3   OH235776   0.950   1.898   1.892  0.3951  0.5166  0.4430
 4762TIP3    H135777   0.879   1.875   1.952  0.3361 -0.9771 -0.1632
 4762TIP3    H235778   0.997   1.968   1.937 -1.6483  1.8102  0.7029
 4763TIP3   OH235779   2.240   2.085  14.422 -0.2513 -0.0030 -0.3202
 4763TIP3    H135780   2.305   2.129  14.366 -1.3151  1.1642 -0.6811
 4763TIP3    H235781   2.259   1.992  14.412  1.6432  0.3102 -0.0672
 4764TIP3   OH235782   0.962   3.771   5.718 -0.1002 -0.3529 -0.0969
 4764TIP3    H135783   0.926   3.773   5.629  1.3619 -1.5420 -0.7600
 4764TIP3    H235784   1.047   3.813   5.710 -0.5773  0.9205  1.0983
 4765TIP3   OH235785   3.714   3.745   2.690 -0.2761 -0.3473 -0.1464
 4765TIP3    H135786   3.754   3.658   2.700  0.2839 -0.1985 -1.0355
 4765TIP3    H235787   3.743   3.793   2.768 -0.7736 -1.0156  0.4669
 4766TIP3   OH235788   4.134   0.564   1.454  0.5260  0.2704  0.1429
 4766TIP3    H135789   4.065   0.594   1.513 -0.1453 -0.7715 -0.0766
 4766TIP3    H235790   4.094   0.566   1.367  0.4490 -1.1991  0.1226
 4767TIP3   OH235791   1.457   4.406  12.249  0.5106  0.3456 -0.3778
 4767TIP3    H135792   1.396   4.333  12.262 -1.7953  2.2697  0.6067
 4767TIP3    H235793   1.544   4.366  12.254 -0.6224 -2.3813 -0.4941
 4768TIP3   OH235794   6.661   0.537  14.845  0.5588 -0.2801 -0.6448
 4768TIP3    H135795   6.693   0.494  14.924 -0.7724  0.8447  0.5842
 4768TIP3    H235796   6.665   0.470  14.777  0.4743 -1.6991  0.6914
 4769TIP3   OH235797   3.128   3.538   2.338  0.6220 -0.0070 -0.5601
 4769TIP3    H135798   3.104   3.622   2.299 -0.3168 -0.1857 -0.3900
 4769TIP3    H235799   3.084   3.537   2.423  1.3879 -0.2790 -0.1595
 4770TIP3   OH235800   1.591   2.526  14.976 -0.4902 -0.7079  0.5250
 4770TIP3    H135801   1.510   2.576  14.981 -0.1549 -0.1278  0.3091
 4770TIP3    H235802   1.660   2.593  14.970 -0.1239 -1.1781 -1.1904
 4771TIP3   OH235803   0.502   1.747  14.098 -0.0780 -0.6231  1.2256
 4771TIP3    H135804   0.464   1.664  14.068 -0.2705  0.7132 -2.7122
 4771TIP3    H235805   0.596   1.737  14.083 -0.1413 -0.0293  0.3940
 4772TIP3   OH235806   2.511   2.917   2.536  0.0204  0.2315  0.1698
 4772TIP3    H135807   2.526   3.009   2.557  0.5417 -0.1195  1.4748
 4772TIP3    H235808   2.453   2.886   2.606 -1.4711 -0.0529 -1.1590
 4773TIP3   OH235809   6.598   4.330  10.531 -0.1339 -0.4646 -0.0401
 4773TIP3    H135810   6.567   4.267  10.596  1.4561 -0.6698  0.5676
 4773TIP3    H235811   6.624   4.276  10.456  2.0275 -0.6922  0.7961
 4774TIP3   OH235812   5.077   0.841   3.169  0.6809 -0.8373  0.7361
 4774TIP3    H135813   5.016   0.913   3.157  2.3916  0.5914  0.0684
 4774TIP3    H235814   5.058   0.781   3.097  1.5888  0.7970 -0.9676
 4775TIP3   OH235815   2.195   1.828  16.714 -0.0487 -0.2125 -0.0886
 4775TIP3    H135816   2.185   1.923  16.724  0.8648 -0.1398  0.2585
 4775TIP3    H235817   2.119   1.801  16.663  0.4045  0.9260 -1.4286
 4776TIP3   OH235818   0.508   6.297  12.983 -0.3119 -0.3101  0.5409
 4776TIP3    H135819   0.555   6.376  12.955  0.6404 -1.1359 -0.2675
 4776TIP3    H235820   0.423   6.305  12.941 -0.0224  0.0172 -0.0063
 4777TIP3   OH235821   1.772   0.298  14.628 -0.4640 -0.0867 -0.3835
 4777TIP3    H135822   1.724   0.218  14.649  0.2961 -0.5198 -0.2508
 4777TIP3    H235823   1.749   0.359  14.698 -0.3767 -0.4800 -0.0065
 4778TIP3   OH235824   2.867   3.330  15.867 -0.4020 -0.3545  0.5981
 4778TIP3    H135825   2.851   3.424  15.870 -0.8717 -0.2412 -2.4047
 4778TIP3    H235826   2.962   3.322  15.859 -0.5122  0.1119 -2.0998
 4779TIP3   OH235827   6.394   1.892  10.909 -0.2546  0.0972  0.1945
 4779TIP3    H135828   6.480   1.932  10.894  0.1293 -0.8701 -0.2602
 4779TIP3    H235829   6.412   1.798  10.918 -1.2330 -0.0863  0.3638
 4780TIP3   OH235830   3.030   2.561   2.893 -0.5333 -0.7781  0.0196
 4780TIP3    H135831   2.974   2.484   2.890  1.0982 -2.0149 -0.8528
 4780TIP3    H235832   3.037   2.590   2.802 -0.3500 -0.1942  0.2089
 4781TIP3   OH235833   3.737   6.546  15.078  0.0005  0.7956  0.0911
 4781TIP3    H135834   3.713   6.638  15.079 -0.3648  0.8429 -3.1679
 4781TIP3    H235835   3.653   6.499  15.081 -0.0021  0.6890 -1.1786
 4782TIP3   OH235836   0.141   0.220   0.800 -0.0401 -0.5039 -0.0453
 4782TIP3    H135837   0.132   0.183   0.888  1.6363  0.0625  0.3996
 4782TIP3    H235838   0.135   0.145   0.741 -1.6971 -0.8291  0.4883
 4783TIP3   OH235839   3.251   1.706  13.321 -0.0630  0.1522 -0.6981
 4783TIP3    H135840   3.156   1.712  13.324 -0.0934 -0.5064 -0.2227
 4783TIP3    H235841   3.270   1.612  13.320  0.6065  0.2617  0.3867
 4784TIP3   OH235842   1.535   0.787  15.458 -0.3131  0.0984 -0.0587
 4784TIP3    H135843   1.476   0.717  15.431  1.2227 -0.9563 -0.8083
 4784TIP3    H235844   1.609   0.742  15.500  0.6781  1.2590 -0.4974
 4785TIP3   OH235845   6.165   3.892  16.559 -0.0495 -0.1317 -0.6278
 4785TIP3    H135846   6.180   3.902  16.653  0.0077 -0.5367 -0.5920
 4785TIP3    H235847   6.232   3.829  16.531  0.0808  0.1584 -0.9808
 4786TIP3   OH235848   0.192   1.692  12.257 -0.3095  0.0219  0.0004
 4786TIP3    H135849   0.208   1.609  12.302 -0.3149  0.6858  1.2728
 4786TIP3    H235850   0.229   1.679  12.170 -1.1084 -1.6243 -0.1459
 4787TIP3   OH235851   4.567   2.787  16.962 -0.1671 -0.1977 -0.1771
 4787TIP3    H135852   4.558   2.807  17.055 -1.3927  2.3031 -0.7402
 4787TIP3    H235853   4.605   2.699  16.960  1.0958  0.1588  2.6752
 4788TIP3   OH235854   0.628   4.145  15.766  0.5384  0.0788  0.1031
 4788TIP3    H135855   0.696   4.099  15.717  1.3467  0.3240  0.9678
 4788TIP3    H235856   0.603   4.218  15.709  1.2427  0.1800 -0.0814
 4789TIP3   OH235857   3.687   5.927  13.690  0.0892  0.3888 -0.4336
 4789TIP3    H135858   3.660   5.926  13.598 -0.4974  0.5453 -0.2660
 4789TIP3    H235859   3.605   5.932  13.739  0.3324 -0.8469  0.1358
 4790TIP3   OH235860   2.904   6.342  12.066 -0.2307 -0.7513  0.1017
 4790TIP3    H135861   2.842   6.379  12.129  1.1772 -0.2556  1.2441
 4790TIP3    H235862   2.872   6.252  12.052  0.8643 -1.8621  3.6466
 4791TIP3   OH235863   3.782   1.614   1.393  0.0946 -0.0367 -0.2484
 4791TIP3    H135864   3.808   1.542   1.337  0.4175  0.1179 -0.2989
 4791TIP3    H235865   3.861   1.668   1.402  0.0457 -0.0594  0.3512
 4792TIP3   OH235866   0.825   3.021  16.820  0.3248 -0.1777  0.1965
 4792TIP3    H135867   0.910   3.030  16.778  0.1686  2.4357  0.2474
 4792TIP3    H235868   0.840   3.051  16.910 -0.3480 -1.1116  0.6285
 4793TIP3   OH235869   6.043   6.615   4.520  0.0039  0.6963 -0.2646
 4793TIP3    H135870   6.033   6.589   4.429 -1.8734  0.1368  0.0488
 4793TIP3    H235871   6.102   6.550   4.558 -0.7515 -0.2409 -0.6516
 4794TIP3   OH235872   6.531   4.951  16.546  0.0257 -0.3332  0.1627
 4794TIP3    H135873   6.592   4.949  16.471 -0.9694  0.6280 -0.7118
 4794TIP3    H235874   6.474   4.875  16.533 -1.1777  0.7234 -0.9954
 4795TIP3   OH235875   5.533   5.591   3.195  0.4295  0.3315 -0.0724
 4795TIP3    H135876   5.602   5.563   3.135  0.8963 -1.1099  1.0652
 4795TIP3    H235877   5.573   5.584   3.282 -0.7822  0.6139  0.5291
 4796TIP3   OH235878   1.173   5.830  14.489 -0.4052  0.0947  0.1860
 4796TIP3    H135879   1.232   5.894  14.529 -0.0978 -0.4970  0.6780
 4796TIP3    H235880   1.192   5.836  14.395 -0.5716  0.9144  0.1914
 4797TIP3   OH235881   0.815   4.864   0.500 -0.1609 -0.0222 -0.3498
 4797TIP3    H135882   0.753   4.866   0.574  0.2070  0.2110 -0.0469
 4797TIP3    H235883   0.761   4.837   0.425 -0.0175 -3.1262  0.5205
 4798TIP3   OH235884   2.861   1.195   3.941 -0.2265 -0.1952 -0.1274
 4798TIP3    H135885   2.830   1.126   3.883 -0.0288 -0.0319 -0.4282
 4798TIP3    H235886   2.920   1.247   3.887 -1.4219  1.0219 -0.3081
 4799TIP3   OH235887   3.140   3.953   5.251 -0.2356  0.3157 -0.1751
 4799TIP3    H135888   3.166   4.040   5.282  0.5751 -0.4764  1.5316
 4799TIP3    H235889   3.220   3.916   5.213  0.1716 -0.6233  1.4761
 4800TIP3   OH235890   5.346   6.549  12.260  0.4256  0.6593  0.3284
 4800TIP3    H135891   5.439   6.532  12.273  0.9847  1.7819 -1.7849
 4800TIP3    H235892   5.331   6.533  12.167 -0.9197  2.8380  0.0940
 4801TIP3   OH235893   4.743   0.293  16.974  0.0951  0.7571  0.0130
 4801TIP3    H135894   4.767   0.224  16.912  2.5326  1.6563 -0.1730
 4801TIP3    H235895   4.752   0.251  17.060 -0.7741  0.2146 -0.1499
 4802TIP3   OH235896   0.196   1.388   1.335  0.3909 -0.5120  0.1775
 4802TIP3    H135897   0.200   1.313   1.394  1.4033 -1.0327 -0.5361
 4802TIP3    H235898   0.103   1.394   1.311 -0.0807 -0.1524  1.9623
 4803TIP3   OH235899   4.190   5.326  16.410 -0.1759  0.1225  0.3347
 4803TIP3    H135900   4.207   5.385  16.484  1.2987 -0.1766  0.2732
 4803TIP3    H235901   4.199   5.238  16.448  4.6422 -0.1808 -0.8078
 4804TIP3   OH235902   1.607   2.447  11.393 -0.2861 -0.1283 -1.1106
 4804TIP3    H135903   1.580   2.414  11.307 -1.4577 -1.0606 -0.4321
 4804TIP3    H235904   1.566   2.386  11.455 -1.4517  1.8643  0.1811
 4805TIP3   OH235905   5.003   2.562   3.195 -0.1720 -0.5687  0.8682
 4805TIP3    H135906   4.931   2.549   3.134  0.4989  1.7303 -0.5621
 4805TIP3    H235907   5.082   2.541   3.145  0.3046 -0.1098  1.4018
 4806TIP3   OH235908   0.547   1.457   0.419  0.1809 -0.2355  0.0302
 4806TIP3    H135909   0.485   1.521   0.454  1.9613  0.8382  1.3591
 4806TIP3    H235910   0.513   1.437   0.331 -3.2750 -1.4118  1.4541
 4807TIP3   OH235911   6.217   0.406  11.895 -0.2326 -0.0107  0.3532
 4807TIP3    H135912   6.306   0.442  11.894  0.1439 -0.8914  0.7470
 4807TIP3    H235913   6.191   0.402  11.803 -0.0545  0.7136  0.2719
 4808TIP3   OH235914   3.984   2.637   4.118 -0.1693  0.4307  0.5066
 4808TIP3    H135915   4.003   2.544   4.123  0.3276  0.4986 -0.1202
 4808TIP3    H235916   3.920   2.652   4.188 -2.7421 -0.9920 -1.3772
 4809TIP3   OH235917   4.764   0.726   6.068  0.4289 -1.1143 -0.1008
 4809TIP3    H135918   4.685   0.673   6.053 -0.1452 -0.0571 -0.9169
 4809TIP3    H235919   4.832   0.661   6.090 -0.6724 -2.0265  0.7133
 4810TIP3   OH235920   5.298   0.228   0.306  0.6491 -0.2139  0.2105
 4810TIP3    H135921   5.238   0.159   0.334 -1.5848  1.2943 -0.5076
 4810TIP3    H235922   5.297   0.291   0.378 -1.2678  1.3336 -1.0390
 4811TIP3   OH235923   1.142   1.254   4.368 -0.5277 -0.3305 -0.1671
 4811TIP3    H135924   1.168   1.178   4.316 -0.8531  0.1133 -1.0077
 4811TIP3    H235925   1.073   1.296   4.316 -0.5454  0.3801  0.4131
 4812TIP3   OH235926   3.311   5.266   6.620 -0.4440  0.0212 -0.5299
 4812TIP3    H135927   3.260   5.341   6.653  0.1660 -0.3386  1.3215
 4812TIP3    H235928   3.284   5.193   6.676 -0.1261 -0.8773 -1.5289
 4813TIP3   OH235929   0.728   1.326  16.959 -0.1786  0.0820  0.3712
 4813TIP3    H135930   0.671   1.392  16.999  0.5167 -0.1620  1.8297
 4813TIP3    H235931   0.755   1.270  17.032 -0.2109 -1.4369 -0.7160
 4814TIP3   OH235932   1.656   4.478   4.468 -0.1432 -0.4472 -0.1734
 4814TIP3    H135933   1.721   4.410   4.451 -0.5263 -1.2203  1.2535
 4814TIP3    H235934   1.619   4.455   4.553 -0.0319  1.7686  0.5357
 4815TIP3   OH235935   0.971   4.726  15.865  1.0018  0.3959  0.2555
 4815TIP3    H135936   0.911   4.795  15.894 -1.2994 -1.5750  0.4563
 4815TIP3    H235937   0.997   4.681  15.945  1.2462  0.0223 -0.0312
 4816TIP3   OH235938   3.490   2.197  12.023 -0.3293 -0.4445  0.0338
 4816TIP3    H135939   3.488   2.233  12.112 -0.1035 -2.3803  0.8814
 4816TIP3    H235940   3.570   2.232  11.984 -1.7106  2.5168 -0.4102
 4817TIP3   OH235941   0.619   2.480  14.926 -0.0244 -0.0412 -0.6265
 4817TIP3    H135942   0.713   2.474  14.905 -0.1574 -1.2654 -0.9631
 4817TIP3    H235943   0.589   2.389  14.924 -0.7280  0.0469  1.8154
 4818TIP3   OH235944   4.280   1.147   2.011 -0.4957 -0.3069 -0.6515
 4818TIP3    H135945   4.271   1.054   1.989 -4.2590  0.0985 -1.7037
 4818TIP3    H235946   4.269   1.192   1.927  2.0542  1.1725 -0.2870
 4819TIP3   OH235947   3.375   5.633  13.938 -0.8499  0.7956 -0.3704
 4819TIP3    H135948   3.390   5.548  13.897 -1.6991 -0.2773  1.4062
 4819TIP3    H235949   3.459   5.679  13.929 -0.1337 -0.5248 -0.7226
 4820TIP3   OH235950   4.366   1.470   1.297  0.6824 -0.7994  0.3344
 4820TIP3    H135951   4.461   1.462   1.296  0.9526  0.9407 -3.0978
 4820TIP3    H235952   4.347   1.537   1.231 -2.9525 -1.1601  0.8049
 4821TIP3   OH235953   1.699   2.024   0.865 -0.0329 -0.5686  0.0582
 4821TIP3    H135954   1.618   2.025   0.814 -0.4829 -1.4861  0.7401
 4821TIP3    H235955   1.716   2.117   0.883 -1.5989 -0.4084  0.9175
 4822TIP3   OH235956   5.188   3.213  17.113 -0.1367 -0.1786 -0.9480
 4822TIP3    H135957   5.197   3.152  17.187 -0.0016 -0.2722 -1.0397
 4822TIP3    H235958   5.094   3.225  17.103 -0.1736 -0.5518 -1.0739
 4823TIP3   OH235959   5.530   0.253  14.097 -0.4571  0.4196  0.0921
 4823TIP3    H135960   5.527   0.228  14.005 -0.8634 -0.9825  0.4586
 4823TIP3    H235961   5.453   0.212  14.135  0.7187 -0.6309  1.4353
 4824TIP3   OH235962   0.966   4.987   4.337 -0.5945 -0.1680  0.3254
 4824TIP3    H135963   1.036   5.042   4.302 -1.3065  0.1029 -0.7349
 4824TIP3    H235964   1.008   4.934   4.404  0.4003  0.7144  0.4281
 4825TIP3   OH235965   5.298   0.129  16.033  0.1398  0.3380  0.5711
 4825TIP3    H135966   5.211   0.150  16.069 -0.6254 -2.8628  0.9048
 4825TIP3    H235967   5.335   0.066  16.095  1.9031  0.1859 -0.5676
 4826TIP3   OH235968   2.972   1.769   4.708 -0.1016  0.3605  0.2269
 4826TIP3    H135969   2.981   1.721   4.790  0.7785  0.2741  0.0876
 4826TIP3    H235970   2.955   1.860   4.736 -1.9125 -0.0139  0.4863
 4827TIP3   OH235971   2.576   4.609  14.531  0.0973 -0.0878  0.1294
 4827TIP3    H135972   2.481   4.618  14.522  0.3085  0.6710 -1.8017
 4827TIP3    H235973   2.609   4.699  14.527  0.9532 -0.4024 -0.0847
 4828TIP3   OH235974   1.940   4.190  13.970 -0.2098  0.1421  0.7490
 4828TIP3    H135975   2.025   4.173  14.011  0.8450 -0.1913 -1.4198
 4828TIP3    H235976   1.893   4.107  13.979  0.4062 -0.2550  0.4458
 4829TIP3   OH235977   0.006   0.365  14.295  0.1550  0.6463 -0.0978
 4829TIP3    H135978  -0.009   0.291  14.353 -0.5136  0.6866 -0.2115
 4829TIP3    H235979   0.066   0.332  14.228 -0.3271  0.1304 -0.2847
 4830TIP3   OH235980   4.420   5.012  16.157 -0.8076  0.2693  0.5696
 4830TIP3    H135981   4.337   4.975  16.187 -0.2186 -0.7722  0.9553
 4830TIP3    H235982   4.464   4.939  16.114 -0.4241  1.0192 -0.3407
 4831TIP3   OH235983   2.501   3.681   2.589 -0.3092  0.4497 -0.1097
 4831TIP3    H135984   2.593   3.678   2.564 -0.4080  0.9642 -0.5503
 4831TIP3    H235985   2.467   3.594   2.567  0.2052  0.0573  0.6090
 4832TIP3   OH235986   4.511   2.104   3.789 -0.0258 -0.0425  0.2246
 4832TIP3    H135987   4.526   2.042   3.860 -0.4219 -0.3097  0.0773
 4832TIP3    H235988   4.421   2.135   3.803 -0.8963 -1.6768 -1.3574
 4833TIP3   OH235989   4.117   6.409   3.032  0.3813  0.0142  0.4964
 4833TIP3    H135990   4.029   6.379   3.011 -0.7197  2.3589  1.5090
 4833TIP3    H235991   4.134   6.374   3.120 -0.4867  1.4212  1.2486
 4834TIP3   OH235992   5.870   4.622   4.610 -0.0494  0.0898  0.3468
 4834TIP3    H135993   5.883   4.572   4.529 -1.5524 -1.5185  1.0419
 4834TIP3    H235994   5.776   4.639   4.613 -0.1829 -0.7259  2.1937
 4835TIP3   OH235995   5.487   1.703  15.771  0.2558 -0.0672  0.5695
 4835TIP3    H135996   5.406   1.652  15.769  1.0233 -1.2974 -0.0222
 4835TIP3    H235997   5.516   1.699  15.862 -1.1121  1.7063  1.1681
 4836TIP3   OH235998   6.584   3.540  16.288  0.3181 -0.2946  0.1647
 4836TIP3    H135999   6.648   3.602  16.324  0.1115 -1.0269  1.8770
 4836TIP3    H236000   6.590   3.463  16.346 -2.1236 -0.3695  0.3924
 4837TIP3   OH236001   1.203   1.975   4.923  0.1773  0.0795 -0.5379
 4837TIP3    H136002   1.239   1.906   4.979 -1.1998  0.2424  0.6163
 4837TIP3    H236003   1.205   1.938   4.835  0.1951 -1.1182 -0.0545
 4838TIP3   OH236004   5.015   0.465   4.003 -0.4400 -0.6082  0.1986
 4838TIP3    H136005   5.093   0.409   3.995  0.5348  0.6165  0.8133
 4838TIP3    H236006   5.018   0.495   4.094 -0.8378  0.5846 -0.1743
 4839TIP3   OH236007   3.109   0.037  10.878 -0.5028 -0.5106 -0.8032
 4839TIP3    H136008   3.082   0.038  10.786  0.7713 -2.6714 -1.2694
 4839TIP3    H236009   3.029   0.018  10.927 -0.9404 -0.7635 -1.6054
 4840TIP3   OH236010   5.885   3.440  14.153 -0.1674  0.4619  0.7175
 4840TIP3    H136011   5.944   3.500  14.109  0.5392 -1.0824 -0.5387
 4840TIP3    H236012   5.876   3.476  14.241  1.3599  1.6240  0.4418
 4841TIP3   OH236013   4.501   5.520   6.165  0.3178  0.0126 -0.1033
 4841TIP3    H136014   4.497   5.600   6.113  0.3533 -0.1947 -0.4265
 4841TIP3    H236015   4.506   5.551   6.256 -0.9834  0.3568 -0.1386
 4842TIP3   OH236016   0.665   2.095  16.799  0.2312  0.1255  0.6947
 4842TIP3    H136017   0.721   2.023  16.770 -2.1979 -1.0817 -1.5083
 4842TIP3    H236018   0.635   2.136  16.717 -3.7081 -0.7413  1.4699
 4843TIP3   OH236019   4.613   6.659  13.145  0.3799 -0.2887  0.3178
 4843TIP3    H136020   4.617   6.653  13.050 -3.2505  2.4188 -0.2288
 4843TIP3    H236021   4.566   6.579  13.172 -0.5191 -0.0515 -0.4784
 4844TIP3   OH236022   2.673   6.573   0.921  0.4588 -0.1676  0.3558
 4844TIP3    H136023   2.641   6.524   0.845 -0.7933  0.2783  0.5710
 4844TIP3    H236024   2.617   6.651   0.925  0.2623 -0.3492  1.9301
 4845TIP3   OH236025   3.729   2.580   5.680 -0.3084  0.1421 -0.7038
 4845TIP3    H136026   3.696   2.526   5.752 -0.6747  1.2721  0.0253
 4845TIP3    H236027   3.806   2.623   5.716 -1.4763  2.0649 -0.3126
 4846TIP3   OH236028   4.484   6.279  11.565 -0.4317 -0.0353 -0.2762
 4846TIP3    H136029   4.394   6.313  11.568 -0.1537  0.7691 -0.7946
 4846TIP3    H236030   4.506   6.264  11.657 -1.0572 -0.1381 -0.1348
 4847TIP3   OH236031   6.527   4.569   3.292  0.0717  0.3400 -0.3590
 4847TIP3    H136032   6.541   4.664   3.291 -0.6609  0.4529 -0.3569
 4847TIP3    H236033   6.542   4.542   3.202 -0.3236  0.5561 -0.4952
 4848TIP3   OH236034   6.344   6.770   5.403 -0.2934 -0.4672  0.8442
 4848TIP3    H136035   6.314   6.714   5.475 -3.2576 -0.7213 -0.4492
 4848TIP3    H236036   6.272   6.830   5.387  0.7372  0.3412 -1.1587
 4849TIP3   OH236037   4.485   3.820  11.177 -0.2148 -0.7644  0.0258
 4849TIP3    H136038   4.545   3.746  11.171  0.3716 -0.2730 -0.3733
 4849TIP3    H236039   4.541   3.894  11.204 -0.9603 -0.6646  1.3401
 4850TIP3   OH236040   0.512   4.335  15.569 -0.0916  0.1708  0.3501
 4850TIP3    H136041   0.544   4.412  15.522 -0.6021  0.4573  0.4701
 4850TIP3    H236042   0.502   4.268  15.501 -1.1240  0.6740 -0.0175
 4851TIP3   OH236043   4.312   5.457  14.378 -0.9527  0.2930 -0.7821
 4851TIP3    H136044   4.356   5.390  14.325 -0.5835  0.4540 -0.6859
 4851TIP3    H236045   4.381   5.491  14.435 -0.9501  1.2762 -1.3440
 4852TIP3   OH236046   6.525   1.006   2.504 -0.6379 -0.1187  0.1534
 4852TIP3    H136047   6.528   0.949   2.428 -3.1116  1.5129 -1.3070
 4852TIP3    H236048   6.575   1.084   2.478  0.5442 -0.4975  1.1630
 4853TIP3   OH236049   3.037   0.509   0.161  0.0464  0.7137 -0.1070
 4853TIP3    H136050   3.072   0.425   0.191 -0.3317  0.6704  0.2173
 4853TIP3    H236051   2.953   0.518   0.206 -1.1182  0.1108 -2.0243
 4854TIP3   OH236052   5.510   0.682  15.471  0.0938 -0.1881  0.8744
 4854TIP3    H136053   5.422   0.710  15.448 -1.0887 -3.1210  1.2916
 4854TIP3    H236054   5.554   0.669  15.387  0.2124  1.4014  0.6680
 4855TIP3   OH236055   0.771   3.491  12.438 -0.0532  0.3026 -0.4233
 4855TIP3    H136056   0.741   3.475  12.348  0.3588  0.5237 -0.5976
 4855TIP3    H236057   0.866   3.479  12.435 -0.1863 -1.3241  0.3223
 4856TIP3   OH236058   3.447   5.054  12.807  0.4762  0.2722 -0.2456
 4856TIP3    H136059   3.541   5.065  12.822  0.1140  0.8859  2.0067
 4856TIP3    H236060   3.424   5.122  12.745  1.3937  0.5865 -0.2541
 4857TIP3   OH236061   4.927   2.770  14.783 -0.4383 -0.0688  0.4147
 4857TIP3    H136062   4.966   2.685  14.807  1.5749  0.2060 -1.5261
 4857TIP3    H236063   4.956   2.830  14.852  1.1933 -0.2507 -0.0704
 4858TIP3   OH236064   4.229   1.537   4.493 -0.1199  0.4448 -0.0256
 4858TIP3    H136065   4.171   1.587   4.550  0.7048  1.5746 -0.1293
 4858TIP3    H236066   4.248   1.597   4.420 -1.3689 -1.0536 -1.6561
 4859TIP3   OH236067   2.566   0.706   4.190 -0.1043 -0.3006  0.0060
 4859TIP3    H136068   2.524   0.732   4.108  0.7576 -2.4034 -1.1724
 4859TIP3    H236069   2.502   0.649   4.232  0.8200 -2.1947 -1.0217
 4860TIP3   OH236070   6.167   5.048   0.708 -0.2593  0.7235  0.4978
 4860TIP3    H136071   6.253   5.090   0.712 -0.0958  0.6149 -1.1476
 4860TIP3    H236072   6.119   5.099   0.643 -0.5241 -0.7709 -0.5236
 4861TIP3   OH236073   4.623   6.513  11.371  0.1038 -0.5325  0.5013
 4861TIP3    H136074   4.665   6.583  11.321  0.0207 -1.0988 -0.3797
 4861TIP3    H236075   4.693   6.477  11.426 -0.2809  1.5074  2.4557
 4862TIP3   OH236076   3.064   2.076  12.531 -0.0436 -0.2855 -0.3804
 4862TIP3    H136077   3.090   2.081  12.623 -0.5448  0.8347 -0.2881
 4862TIP3    H236078   3.146   2.085  12.482 -0.0245  1.4417 -0.0661
 4863TIP3   OH236079   2.343   2.627   5.074  0.2510 -0.4961  0.4909
 4863TIP3    H136080   2.427   2.664   5.101  0.2906  0.0534 -0.3465
 4863TIP3    H236081   2.332   2.549   5.129  0.2997  0.5849  2.1331
 4864TIP3   OH236082   4.752   4.519   1.597 -0.1937  0.5386  0.1533
 4864TIP3    H136083   4.730   4.601   1.553  1.4127  0.8725 -0.0721
 4864TIP3    H236084   4.842   4.530   1.626  0.4430 -1.5354 -0.8118
 4865TIP3   OH236085   3.015   5.218   3.844 -0.3293  0.1315  0.2959
 4865TIP3    H136086   3.076   5.263   3.785  0.9000 -1.2178  0.4763
 4865TIP3    H236087   2.961   5.165   3.785  0.6500 -0.9257  0.3061
 4866TIP3   OH236088   3.792   2.845   3.253  0.4211  0.1846 -0.5086
 4866TIP3    H136089   3.767   2.858   3.344 -0.4283 -0.9527 -0.5497
 4866TIP3    H236090   3.887   2.840   3.255  0.4802  1.2738  0.1459
 4867TIP3   OH236091   3.375   1.517  12.741 -0.4469  0.6642  0.1048
 4867TIP3    H136092   3.429   1.439  12.759 -0.8660  0.9482  3.2805
 4867TIP3    H236093   3.408   1.551  12.658  1.7644 -1.2268  0.1007
 4868TIP3   OH236094   1.155   1.044   4.608  0.0233  0.6455 -0.5661
 4868TIP3    H136095   1.234   1.089   4.638  0.4116  1.5381 -2.6975
 4868TIP3    H236096   1.149   1.067   4.515 -2.2908 -0.0918 -0.6559
 4869TIP3   OH236097   0.202   3.274   1.793  0.6689  0.2161 -0.6554
 4869TIP3    H136098   0.222   3.220   1.716  0.2938  1.5159 -1.7143
 4869TIP3    H236099   0.194   3.212   1.865  2.3437 -0.9339 -1.3945
 4870TIP3   OH236100   2.966   3.838   1.624 -0.1110 -0.1124  0.0566
 4870TIP3    H136101   2.894   3.804   1.570  2.6006 -1.9666 -2.7003
 4870TIP3    H236102   2.955   3.933   1.621 -1.5242 -0.2671 -1.7204
 4871TIP3   OH236103   1.087   2.166   2.030  0.9267  0.3458  0.3065
 4871TIP3    H136104   1.036   2.167   2.111 -0.7343 -0.9536 -0.6566
 4871TIP3    H236105   1.066   2.249   1.988  0.2884  0.2123  0.3473
 4872TIP3   OH236106   4.762   6.087   6.062  0.1929  0.6907 -0.1023
 4872TIP3    H136107   4.755   6.065   6.155  1.6176 -0.1731 -0.1818
 4872TIP3    H236108   4.686   6.045   6.022 -0.9553  1.8514  0.7812
 4873TIP3   OH236109   2.745   3.032  11.480  0.2994  0.2854  0.5742
 4873TIP3    H136110   2.741   3.061  11.389 -0.2802  1.2809  0.9026
 4873TIP3    H236111   2.764   2.938  11.474 -0.1356  0.2510 -0.5843
 4874TIP3   OH236112   5.301   1.301   2.838 -0.0659  0.0852 -0.0290
 4874TIP3    H136113   5.290   1.280   2.931  1.7450  0.9863  0.4424
 4874TIP3    H236114   5.346   1.386   2.838  0.6149 -0.2337 -1.7130
 4875TIP3   OH236115   4.661   3.817   3.266 -0.3815 -0.4026  0.0765
 4875TIP3    H136116   4.697   3.845   3.182  0.3437  1.5932  0.9906
 4875TIP3    H236117   4.737   3.811   3.324 -1.0155 -0.4454  0.9263
 4876TIP3   OH236118   1.636   1.571  12.797 -0.3445 -0.1608 -0.0904
 4876TIP3    H136119   1.604   1.605  12.714 -0.4127  1.4882  0.5779
 4876TIP3    H236120   1.561   1.575  12.856 -0.2458 -1.1330  0.1344
 4877TIP3   OH236121   4.054   3.386  11.215 -0.0006  0.2379 -0.5213
 4877TIP3    H136122   4.014   3.394  11.128  1.3649  0.0440 -1.1942
 4877TIP3    H236123   4.075   3.293  11.223  1.0363  0.4569 -0.5391
 4878TIP3   OH236124   0.814   1.013   4.090  0.2652  0.0201 -0.5319
 4878TIP3    H136125   0.820   0.918   4.103 -2.4658 -0.2503 -0.8307
 4878TIP3    H236126   0.770   1.023   4.006  0.3679  1.5802 -0.4192
 4879TIP3   OH236127   3.173   6.647   3.537 -0.1288 -0.1312 -0.4258
 4879TIP3    H136128   3.156   6.688   3.623  1.2542  0.7851 -0.5538
 4879TIP3    H236129   3.254   6.598   3.550 -0.6657 -1.1387 -0.8524
 4880TIP3   OH236130   0.594   3.188  11.297  0.0099 -0.2786  0.4185
 4880TIP3    H136131   0.684   3.210  11.272 -0.6269  0.5515 -1.2966
 4880TIP3    H236132   0.573   3.111  11.243 -1.5191  1.7593 -2.1228
 4881TIP3   OH236133   4.967   3.874  15.181  0.4055  0.2253 -0.0612
 4881TIP3    H136134   4.985   3.847  15.091 -0.5166 -0.2699 -0.1126
 4881TIP3    H236135   5.049   3.858  15.228  1.3274  1.7345 -1.0677
 4882TIP3   OH236136   2.808   6.470   3.779 -0.4535 -0.1776 -0.3059
 4882TIP3    H136137   2.872   6.400   3.763 -0.6189 -0.3643 -0.1694
 4882TIP3    H236138   2.757   6.474   3.699  1.0868  1.4488 -1.2667
 4883TIP3   OH236139   0.178   0.503   3.796  0.0678  0.4365 -0.2687
 4883TIP3    H136140   0.189   0.431   3.858  1.7126  0.8484 -0.0461
 4883TIP3    H236141   0.205   0.581   3.845  1.8282  0.7176 -1.5876
 4884TIP3   OH236142   3.141   2.322   5.436 -0.4674  0.0300  0.5246
 4884TIP3    H136143   3.227   2.337   5.474 -0.5806 -0.4211  0.9617
 4884TIP3    H236144   3.120   2.404   5.391 -0.2238  0.4840  1.2268
 4885TIP3   OH236145   0.016   4.379   1.397 -0.1327 -0.5762 -0.5940
 4885TIP3    H136146   0.034   4.451   1.336 -0.4117 -0.4040 -0.4745
 4885TIP3    H236147   0.097   4.329   1.398 -0.3041 -0.8990 -1.5361
 4886TIP3   OH236148   5.293   0.953   0.791  0.3808 -0.0957  0.2503
 4886TIP3    H136149   5.338   0.871   0.771  1.5354  0.2121  1.4690
 4886TIP3    H236150   5.355   1.022   0.766 -0.4009  0.4028 -0.3494
 4887TIP3   OH236151   3.616   5.926  15.451  0.1963  0.4230  0.2619
 4887TIP3    H136152   3.524   5.927  15.422  0.0684  1.6697  0.6615
 4887TIP3    H236153   3.665   5.964  15.378  0.4354 -0.4088 -0.0245
 4888TIP3   OH236154   5.437   6.453   1.687  0.1639  0.2027 -0.0551
 4888TIP3    H136155   5.417   6.481   1.598  1.8591  0.4112 -0.3963
 4888TIP3    H236156   5.366   6.490   1.740  0.9025  3.0514 -0.8582
 4889TIP3   OH236157   5.094   2.855   3.598  0.8387  0.1320 -0.0391
 4889TIP3    H136158   5.116   2.864   3.505  0.1774  0.2822 -0.1868
 4889TIP3    H236159   5.031   2.925   3.615  0.3675 -0.3739  0.3305
 4890TIP3   OH236160   1.010   3.584  12.481 -0.0223 -0.4794  0.2997
 4890TIP3    H136161   1.029   3.630  12.563  2.0658  1.8074 -1.3463
 4890TIP3    H236162   1.090   3.537  12.460 -0.6693 -1.3581 -0.2706
 4891TIP3   OH236163   1.806   1.606   0.167 -0.0990  0.2139  0.0019
 4891TIP3    H136164   1.882   1.632   0.114  0.2647 -1.1219 -0.1685
 4891TIP3    H236165   1.806   1.511   0.163 -1.1199  0.1586  0.9631
 4892TIP3   OH236166   6.684   0.789   3.628 -0.5253  0.2548  0.0251
 4892TIP3    H136167   6.638   0.864   3.590 -0.2799 -0.3560 -1.5725
 4892TIP3    H236168   6.755   0.771   3.566 -0.0096 -0.7082  0.8730
 4893TIP3   OH236169   2.493   5.312   3.309  0.5286 -0.3167 -0.0077
 4893TIP3    H136170   2.471   5.311   3.402  0.9056 -1.7621  0.0980
 4893TIP3    H236171   2.586   5.287   3.306  0.0929 -2.0400 -0.8193
 4894TIP3   OH236172   2.506   1.744  14.020  0.1104  0.1628 -0.7675
 4894TIP3    H136173   2.507   1.824  13.967 -1.8885 -0.2213 -1.4583
 4894TIP3    H236174   2.505   1.673  13.956 -2.2441 -0.3174 -0.2938
 4895TIP3   OH236175   1.442   0.926  12.286  0.3997  0.2607  0.6347
 4895TIP3    H136176   1.464   0.851  12.341 -0.6748  0.4503  1.3509
 4895TIP3    H236177   1.348   0.917  12.269  0.4393  0.9601 -0.0039
 4896TIP3   OH236178   2.143   3.714   4.672  0.3470  0.5168 -0.0481
 4896TIP3    H136179   2.088   3.692   4.597  1.7993 -1.1609 -0.6858
 4896TIP3    H236180   2.118   3.650   4.739  3.3138 -2.2341 -1.2912
 4897TIP3   OH236181   5.737   2.155   5.879  0.3386 -0.7883  0.1135
 4897TIP3    H136182   5.694   2.069   5.886  0.2321 -0.6831  0.8317
 4897TIP3    H236183   5.685   2.212   5.935 -0.3918  0.0899 -1.4120
 4898TIP3   OH236184   3.969   1.453  13.113  0.2531  0.0797 -0.0482
 4898TIP3    H136185   3.906   1.400  13.161 -0.0887  1.5764  1.2315
 4898TIP3    H236186   4.042   1.394  13.094 -0.9873 -1.3642 -0.5030
 4899TIP3   OH236187   4.815   3.184   5.136  0.3543 -0.4710 -0.4576
 4899TIP3    H136188   4.756   3.124   5.182 -0.9075 -0.0343 -1.4259
 4899TIP3    H236189   4.787   3.180   5.045  1.4138  0.2537 -0.8386
 4900TIP3   OH236190   5.117   4.132  12.741  0.0831  0.4309  0.3938
 4900TIP3    H136191   5.167   4.171  12.812 -1.4250  2.6191  0.3407
 4900TIP3    H236192   5.026   4.148  12.764 -0.4574  1.3084 -2.0370
 4901TIP3   OH236193   0.181   1.274   2.238  0.2300 -0.6923 -0.1667
 4901TIP3    H136194   0.122   1.241   2.307  0.6970  1.7947  1.5769
 4901TIP3    H236195   0.240   1.201   2.220 -0.8268 -1.9097  1.0010
 4902TIP3   OH236196   5.800   5.252   5.412  0.0888  0.0309 -0.1666
 4902TIP3    H136197   5.850   5.322   5.453 -0.6874  0.4790  0.0454
 4902TIP3    H236198   5.731   5.297   5.363  0.5220 -0.5274 -1.3243
 4903TIP3   OH236199   4.082   5.824   5.256  0.2750 -0.6593 -0.1576
 4903TIP3    H136200   4.146   5.783   5.198 -0.8176 -1.2865 -0.9605
 4903TIP3    H236201   4.005   5.768   5.250  0.1711 -0.8484  2.0622
 4904TIP3   OH236202   5.174   5.223   3.020  0.4741 -0.2725 -0.0497
 4904TIP3    H136203   5.221   5.185   3.094  0.0916 -0.6045  0.0219
 4904TIP3    H236204   5.116   5.289   3.059  0.2915 -0.4294 -0.0547
 4905TIP3   OH236205   5.181   0.209   4.384  0.9213  0.4332 -0.0279
 4905TIP3    H136206   5.245   0.218   4.455  1.8594  2.8088 -1.0818
 4905TIP3    H236207   5.096   0.225   4.426  1.3667  0.8300  0.7348
 4906TIP3   OH236208   6.616   5.321   1.366 -0.2371  0.4447  0.4106
 4906TIP3    H136209   6.536   5.287   1.406  0.0026  1.5408  1.9463
 4906TIP3    H236210   6.661   5.244   1.333 -1.9191 -0.1934 -0.5162
 4907TIP3   OH236211   1.183   5.037  15.050  0.1842 -0.6769  0.0389
 4907TIP3    H136212   1.205   5.130  15.061 -0.0663 -0.5630 -0.4039
 4907TIP3    H236213   1.248   5.005  14.987 -1.3053 -0.1695 -1.8342
 4908TIP3   OH236214   1.646   3.273  11.140  0.0340  0.2411  0.2725
 4908TIP3    H136215   1.672   3.184  11.165  0.8480  0.6008  0.7459
 4908TIP3    H236216   1.623   3.266  11.048  1.9495 -0.0967 -0.2342
 4909TIP3   OH236217   4.405   4.557   6.806  0.2838 -0.1006 -0.7872
 4909TIP3    H136218   4.397   4.469   6.845  0.9805  0.6914  1.2575
 4909TIP3    H236219   4.461   4.605   6.866 -0.2050  1.8175 -1.7919
 4910TIP3   OH236220   6.151   4.509   0.928 -0.3654 -0.0553  0.5863
 4910TIP3    H136221   6.088   4.487   0.996 -0.2985  1.4712  1.1777
 4910TIP3    H236222   6.237   4.495   0.970 -0.2722 -1.6405 -0.0550
 4911TIP3   OH236223   3.629   5.815  11.976 -0.3403 -0.6916  0.3165
 4911TIP3    H136224   3.690   5.749  12.009  0.6689 -1.0113 -2.0310
 4911TIP3    H236225   3.545   5.770  11.972  0.6585 -2.5840 -2.9724
 4912TIP3   OH236226   0.779   6.426  11.840  0.3023 -0.0926  0.2593
 4912TIP3    H136227   0.740   6.409  11.926 -0.7812  2.8454  0.4734
 4912TIP3    H236228   0.837   6.501  11.854 -0.1072  0.6367 -1.5964
 4913TIP3   OH236229   5.833   5.223  12.602  0.1927  0.0655 -0.0095
 4913TIP3    H136230   5.764   5.190  12.544 -0.5968 -0.8386  1.3972
 4913TIP3    H236231   5.892   5.269  12.543 -0.9257 -0.2340 -1.4486
 4914TIP3   OH236232   4.016   4.532  10.595 -0.0533 -1.2058 -0.3884
 4914TIP3    H136233   4.052   4.450  10.563 -0.2601 -0.9694 -1.2776
 4914TIP3    H236234   3.925   4.512  10.616 -0.5159 -0.9222 -1.9370
 4915TIP3   OH236235   3.276   0.764  16.122  0.1490 -0.3308 -0.1895
 4915TIP3    H136236   3.184   0.756  16.098 -0.1926  0.0541  0.9552
 4915TIP3    H236237   3.306   0.842  16.076  0.4635 -1.5371 -2.1668
 4916TIP3   OH236238   3.825   4.944  14.524 -0.0925 -0.2100 -0.5631
 4916TIP3    H136239   3.761   4.980  14.463  1.6880  1.0910 -1.7613
 4916TIP3    H236240   3.909   4.954  14.480  1.0030 -1.6084  1.0579
 4917TIP3   OH236241   0.524   2.472  15.722 -0.5262 -0.1725  0.3888
 4917TIP3    H136242   0.547   2.384  15.693  2.3163  0.2146  1.2510
 4917TIP3    H236243   0.436   2.462  15.760 -0.4988 -2.4838 -0.0114
 4918TIP3   OH236244   5.453   2.810   5.722  0.4435  0.2212  0.3971
 4918TIP3    H136245   5.476   2.827   5.813  0.3553 -0.2764  0.5143
 4918TIP3    H236246   5.377   2.752   5.726 -0.5641  1.4552  0.0127
 4919TIP3   OH236247   1.452   1.027  13.631  0.4191 -0.1301  0.3596
 4919TIP3    H136248   1.470   0.946  13.679  0.9368 -0.0902  0.2387
 4919TIP3    H236249   1.405   0.998  13.553 -0.1667 -0.2245  0.7435
 4920TIP3   OH236250   6.731   0.017   2.341  0.0209 -0.4512  0.1799
 4920TIP3    H136251   6.635   0.012   2.344  0.0023  0.1902  0.8772
 4920TIP3    H236252   6.760  -0.074   2.346 -0.5655 -0.7513 -1.1866
 4921TIP3   OH236253   6.502   2.312   2.823 -0.5617 -0.3146 -0.7037
 4921TIP3    H136254   6.510   2.264   2.905  2.1422  1.9815  0.5233
 4921TIP3    H236255   6.436   2.379   2.841  0.7629  0.8407  0.0227
 4922TIP3   OH236256   0.611   1.771   1.421  0.0909  0.3798  0.1724
 4922TIP3    H136257   0.604   1.729   1.335 -0.2071  0.7854 -0.0006
 4922TIP3    H236258   0.696   1.816   1.418  0.2263  0.1303  0.2097
 4923TIP3   OH236259   3.235   0.027  15.995 -0.6534  0.5040  0.2153
 4923TIP3    H136260   3.323   0.063  15.981  0.1445 -0.4262  2.3916
 4923TIP3    H236261   3.196   0.084  16.061 -0.5635 -0.7534  1.3807
 4924TIP3   OH236262   0.181   4.381   0.012 -0.0257 -0.1109  0.4613
 4924TIP3    H136263   0.148   4.293   0.029  1.8194 -1.0625 -0.4895
 4924TIP3    H236264   0.201   4.381  -0.082  1.6484  0.6971  0.7803
 4925TIP3   OH236265   1.774   6.534   3.131  0.4144  0.1035  0.4839
 4925TIP3    H136266   1.791   6.452   3.084 -0.1979  0.8417 -1.1046
 4925TIP3    H236267   1.860   6.573   3.144  0.4876  1.8790 -3.8716
 4926TIP3   OH236268   3.157   5.384   3.690 -0.3250 -0.0291  0.3088
 4926TIP3    H136269   3.129   5.459   3.639  0.4874  0.1274  0.0743
 4926TIP3    H236270   3.229   5.417   3.745  1.1777 -0.9856 -0.9901
 4927TIP3   OH236271   5.530   1.446   0.547  0.5063 -0.0263 -0.6608
 4927TIP3    H136272   5.506   1.359   0.515  1.0074 -0.0368 -1.0336
 4927TIP3    H236273   5.475   1.460   0.624  0.8087 -0.9088 -0.2671
 4928TIP3   OH236274   1.649   2.534   4.473  0.1393 -0.3620 -0.3268
 4928TIP3    H136275   1.607   2.615   4.444 -2.0485 -2.0279 -2.0894
 4928TIP3    H236276   1.712   2.514   4.404  0.3294 -0.4204 -0.1365
 4929TIP3   OH236277   5.004   6.128   6.969  0.6028  0.5411  0.0889
 4929TIP3    H136278   4.940   6.162   6.907  0.0544  0.1102  0.4101
 4929TIP3    H236279   5.079   6.187   6.962 -0.1368  1.5173  0.2978
 4930TIP3   OH236280   1.713   5.578  12.702  0.3167 -0.0461  0.1385
 4930TIP3    H136281   1.686   5.506  12.646 -2.2071 -0.2799  1.5148
 4930TIP3    H236282   1.799   5.552  12.735 -0.0249 -1.8538 -0.3197
 4931TIP3   OH236283   1.092   2.469   6.182 -0.3746  0.1602  0.1447
 4931TIP3    H136284   1.054   2.389   6.147 -0.9612 -0.3595  1.8485
 4931TIP3    H236285   1.122   2.517   6.105 -1.9985 -0.6861 -1.0924
 4932TIP3   OH236286   3.552   5.793   4.525  0.0119 -0.0676  0.2585
 4932TIP3    H136287   3.588   5.705   4.521 -2.7149 -1.2494 -0.9450
 4932TIP3    H236288   3.534   5.808   4.618  3.5291  0.6717  0.9416
 4933TIP3   OH236289   5.260   1.543   3.682 -0.3008 -0.0491  0.1615
 4933TIP3    H136290   5.300   1.597   3.750  3.0457  1.0694 -2.4331
 4933TIP3    H236291   5.204   1.603   3.633  1.0578  0.4322 -0.8783
 4934TIP3   OH236292   3.293   4.003   2.218 -0.2009  0.0985 -0.4075
 4934TIP3    H136293   3.362   4.026   2.280 -0.2759 -1.3625  0.2663
 4934TIP3    H236294   3.231   4.075   2.223 -0.0110  0.2016  0.9496
 4935TIP3   OH236295   4.797   6.708  15.100  0.3239  0.3287  0.8383
 4935TIP3    H136296   4.856   6.646  15.056 -1.9474 -1.0298 -0.4504
 4935TIP3    H236297   4.749   6.749  15.028 -2.2628 -0.6591  1.9133
 4936TIP3   OH236298   0.971   1.363  13.230  0.4898 -0.1712  0.4194
 4936TIP3    H136299   1.038   1.427  13.254  1.9112 -1.1901 -0.6565
 4936TIP3    H236300   0.912   1.411  13.172  1.0253  0.3948  0.3332
 4937TIP3   OH236301   3.742   4.319  13.842 -0.0267  0.1694  0.5213
 4937TIP3    H136302   3.758   4.231  13.875  1.4293  0.1373 -0.1694
 4937TIP3    H236303   3.816   4.336  13.782 -2.8807 -0.1824 -3.4947
 4938TIP3   OH236304   0.455   3.544   3.290  0.2811 -0.1681  0.1422
 4938TIP3    H136305   0.392   3.473   3.294  0.0390 -0.0589 -1.3145
 4938TIP3    H236306   0.402   3.623   3.281  0.5962  0.0030 -0.2660
 4939TIP3   OH236307   2.900   4.613   3.640  0.1319 -0.4355 -0.0356
 4939TIP3    H136308   2.961   4.541   3.657  0.2983 -0.1068  0.7705
 4939TIP3    H236309   2.860   4.632   3.724  1.0542  1.2933  0.0649
 4940TIP3   OH236310   4.475   3.000  14.297 -0.2058  0.2526  0.5514
 4940TIP3    H136311   4.403   3.061  14.316 -0.8914 -0.2767 -0.3143
 4940TIP3    H236312   4.435   2.931  14.245  0.5480 -0.9907  1.5672
 4941TIP3   OH236313   0.181   5.630  11.662 -0.2503 -0.2248  0.1552
 4941TIP3    H136314   0.171   5.723  11.640 -0.3315  0.3172  2.2276
 4941TIP3    H236315   0.231   5.593  11.589  2.7450  2.1983  0.7431
 4942TIP3   OH236316   3.903   0.640  14.095 -0.0483 -0.2054 -0.0571
 4942TIP3    H136317   3.854   0.714  14.060 -0.7942 -1.2904 -1.4096
 4942TIP3    H236318   3.970   0.623  14.029 -1.1479 -1.9609 -0.7765
 4943TIP3   OH236319   4.206   3.743   0.560  0.1569  0.2739 -0.4308
 4943TIP3    H136320   4.186   3.822   0.610  1.7416 -0.2708  1.1703
 4943TIP3    H236321   4.257   3.774   0.485  0.0688  0.8590 -0.2489
 4944TIP3   OH236322   0.581   0.037  15.231  0.4653 -0.1663 -0.2109
 4944TIP3    H136323   0.626   0.046  15.315  1.3217  0.1444 -0.6801
 4944TIP3    H236324   0.643   0.073  15.167 -0.4724  0.3002 -0.8871
 4945TIP3   OH236325   3.926   2.561   4.394 -0.3987 -0.6797  0.3302
 4945TIP3    H136326   3.931   2.469   4.370  1.6048 -1.1384  2.1238
 4945TIP3    H236327   3.940   2.561   4.489 -2.2355  1.3680  0.6954
 4946TIP3   OH236328   4.935   3.113  11.656  0.0232 -0.7021 -0.2245
 4946TIP3    H136329   4.899   3.111  11.568  2.1728 -0.3372 -1.1940
 4946TIP3    H236330   5.001   3.043  11.656  0.7090 -0.0789  0.7779
 4947TIP3   OH236331   2.941   3.302  11.271  0.0468 -0.1809  0.0426
 4947TIP3    H136332   2.941   3.374  11.333  1.2134  0.1972 -0.3649
 4947TIP3    H236333   3.003   3.329  11.203 -0.2092 -1.1590 -0.6025
 4948TIP3   OH236334   2.466   4.802  14.806  0.0510  0.1275  0.0713
 4948TIP3    H136335   2.516   4.866  14.755  2.3266 -1.7593 -0.2850
 4948TIP3    H236336   2.479   4.720  14.759 -2.6815 -0.6769  0.5585
 4949TIP3   OH236337   6.570   0.548   4.253  0.0730 -0.9316 -0.0107
 4949TIP3    H136338   6.646   0.602   4.276 -0.5531  0.4384 -0.9960
 4949TIP3    H236339   6.498   0.611   4.243 -1.1449 -2.1756  0.6592
 4950TIP3   OH236340   2.996   2.341  16.789 -0.6147 -0.5325  1.0081
 4950TIP3    H136341   3.064   2.290  16.834 -1.0849 -0.4662  1.8181
 4950TIP3    H236342   2.987   2.298  16.704  0.8854 -0.1486  0.6181
 4951TIP3   OH236343   3.217   3.416  15.190 -0.1479  0.2043 -0.3692
 4951TIP3    H136344   3.264   3.344  15.233  2.2782  2.0993  0.4151
 4951TIP3    H236345   3.224   3.396  15.097  1.5993 -0.0021 -0.2343
 4952TIP3   OH236346   6.068   4.520  13.060  0.3482 -0.8726  0.5605
 4952TIP3    H136347   6.008   4.455  13.098  1.0639 -1.1607  1.2456
 4952TIP3    H236348   6.122   4.470  12.999  1.3182 -1.0768  1.5522
 4953TIP3   OH236349   0.521   5.396   2.247 -0.0684 -0.1188  0.6877
 4953TIP3    H136350   0.535   5.303   2.263 -1.7272 -0.4848  0.2953
 4953TIP3    H236351   0.579   5.441   2.308  0.0735 -1.4171  1.5464
 4954TIP3   OH236352   1.746   0.649   2.362 -0.0716 -0.3842  0.4867
 4954TIP3    H136353   1.742   0.555   2.374  0.7198 -0.5354 -0.3042
 4954TIP3    H236354   1.671   0.683   2.410 -1.1325 -1.5289 -0.3001
 4955TIP3   OH236355   3.433   2.794  12.403 -0.8299  0.1238  0.1114
 4955TIP3    H136356   3.394   2.881  12.395 -1.7883 -0.4974 -3.4811
 4955TIP3    H236357   3.367   2.734  12.368  1.5501 -1.4777 -1.9747
 4956TIP3   OH236358   1.599   3.450  10.188 -0.4288 -0.2485 -0.1275
 4956TIP3    H136359   1.504   3.447  10.204 -0.6812  0.4133 -1.4134
 4956TIP3    H236360   1.615   3.378  10.127 -0.1146 -0.3085  0.0269
 4957TIP3   OH236361   4.304   3.522   1.511  0.1905 -0.0196  0.4714
 4957TIP3    H136362   4.260   3.452   1.560  1.0930  0.0702  1.4429
 4957TIP3    H236363   4.253   3.601   1.530 -1.1086 -0.4652 -1.0023
 4958TIP3   OH236364   5.378   0.628   3.479  0.9116  0.3157 -0.1222
 4958TIP3    H136365   5.356   0.580   3.559 -0.2369 -0.7375 -1.0198
 4958TIP3    H236366   5.311   0.601   3.416  2.8802 -0.3971 -2.0286
 4959TIP3   OH236367   5.726   2.800  12.133 -0.1939  0.1322  0.2900
 4959TIP3    H136368   5.694   2.735  12.197  0.4286 -0.4298  0.0333
 4959TIP3    H236369   5.755   2.748  12.058  0.2258  0.7166  0.0436
 4960TIP3   OH236370   5.011   6.059  16.803  0.1619  0.5474  0.0962
 4960TIP3    H136371   5.001   6.126  16.871 -1.7896  0.8979 -0.4817
 4960TIP3    H236372   4.957   6.090  16.731  0.7843 -0.7115 -0.9388
 4961TIP3   OH236373   6.298   3.094   4.615 -0.4846 -0.0313  0.1663
 4961TIP3    H136374   6.229   3.040   4.575 -0.0149  0.2107 -0.9989
 4961TIP3    H236375   6.358   3.031   4.654 -0.5665 -0.3098 -0.1480
 4962TIP3   OH236376   1.092   6.152   0.340 -0.0371  0.1963 -0.9231
 4962TIP3    H136377   1.118   6.062   0.357  0.9022  0.1866 -2.1881
 4962TIP3    H236378   1.011   6.164   0.389  0.5605 -0.8788  0.4033
 4963TIP3   OH236379   4.347   5.235  15.881 -0.8333  0.4712 -0.8676
 4963TIP3    H136380   4.267   5.184  15.868 -1.6490  2.1049 -2.6828
 4963TIP3    H236381   4.318   5.312  15.930  0.0680  0.0330  0.3857
 4964TIP3   OH236382   6.270   1.762   2.659 -0.5418  0.6228  0.2044
 4964TIP3    H136383   6.251   1.676   2.695 -1.4128  0.1480 -1.3479
 4964TIP3    H236384   6.365   1.762   2.648 -0.7664 -1.3991 -2.7182
 4965TIP3   OH236385   6.717   5.919   5.320 -0.0175 -0.0071 -0.9606
 4965TIP3    H136386   6.689   5.937   5.231 -0.8213 -0.8958 -0.9023
 4965TIP3    H236387   6.789   5.856   5.311  0.2637  0.3096 -0.9887
 4966TIP3   OH236388   5.213   6.676   2.654 -0.6446  0.6847  0.9929
 4966TIP3    H136389   5.166   6.599   2.623  0.6223 -0.1241  0.9967
 4966TIP3    H236390   5.266   6.704   2.579 -1.6265  2.0182  0.7536
 4967TIP3   OH236391   0.292   2.710  15.721  0.2579  0.1429 -0.2999
 4967TIP3    H136392   0.370   2.690  15.774 -0.1342 -0.1996  0.1572
 4967TIP3    H236393   0.261   2.794  15.756  1.0329  0.8317 -1.2082
 4968TIP3   OH236394   0.841   3.930   5.917  0.1969  0.3038 -0.3261
 4968TIP3    H136395   0.856   3.864   5.849  1.5675 -0.1349  0.3523
 4968TIP3    H236396   0.753   3.963   5.900 -0.1242 -0.9711 -1.3111
 4969TIP3   OH236397   1.626   0.194   0.771 -0.4209  0.2620 -0.1358
 4969TIP3    H136398   1.630   0.184   0.866 -2.9930  0.1170  0.0293
 4969TIP3    H236399   1.606   0.286   0.758  0.3772  0.3793 -0.5805
 4970TIP3   OH236400   1.203   1.635  15.525  0.4455 -0.0388  0.3842
 4970TIP3    H136401   1.217   1.553  15.574  2.1388 -0.6408 -1.0025
 4970TIP3    H236402   1.150   1.609  15.450  1.0657  0.1115 -0.1101
 4971TIP3   OH236403   2.295   4.419  13.373  0.1779  0.5408  0.0295
 4971TIP3    H136404   2.287   4.324  13.385  0.1865  0.7443  2.1173
 4971TIP3    H236405   2.389   4.434  13.367  0.1660  0.3963 -0.5317
 4972TIP3   OH236406   3.859   2.892  15.536 -0.2965 -0.2159 -0.2932
 4972TIP3    H136407   3.775   2.889  15.490  0.0767  0.4331 -1.0394
 4972TIP3    H236408   3.835   2.896  15.628 -1.0634 -1.3940 -0.4097
 4973TIP3   OH236409   3.128   4.288   4.867 -0.2092  0.2967  0.1554
 4973TIP3    H136410   3.179   4.292   4.786  1.5987  0.3391  1.2369
 4973TIP3    H236411   3.050   4.239   4.844  0.4469 -0.0101 -1.5334
 4974TIP3   OH236412   2.144   6.204  11.174 -0.4507 -0.3029 -0.5854
 4974TIP3    H136413   2.192   6.285  11.191 -1.1768 -0.2884  1.7505
 4974TIP3    H236414   2.149   6.193  11.079  1.8722  1.0688 -0.7003
 4975TIP3   OH236415   3.188   0.502   0.506  0.5551  0.6279  0.5653
 4975TIP3    H136416   3.102   0.494   0.548  0.0375  0.3023 -0.5328
 4975TIP3    H236417   3.198   0.422   0.455  1.4894  0.6897  0.6366
 4976TIP3   OH236418   4.792   0.815  13.811 -0.1505  0.3695  0.0382
 4976TIP3    H136419   4.742   0.830  13.891 -0.5276  0.7207 -0.2644
 4976TIP3    H236420   4.814   0.902  13.779  1.1549  0.2244  0.4740
 4977TIP3   OH236421   2.752   3.617   6.499  0.7607 -0.2862 -0.2016
 4977TIP3    H136422   2.676   3.560   6.487  1.2399 -0.4331 -3.0895
 4977TIP3    H236423   2.725   3.677   6.569 -2.0354 -0.3108 -1.1187
 4978TIP3   OH236424   1.047   2.497   0.895  0.4596 -0.6534  0.0362
 4978TIP3    H136425   1.067   2.415   0.850 -1.3305 -0.8495 -0.4870
 4978TIP3    H236426   1.017   2.470   0.982 -0.9500 -0.6579 -0.4218
 4979TIP3   OH236427   6.801   4.076   4.389  0.3158 -0.4102 -0.2228
 4979TIP3    H136428   6.888   4.110   4.411  0.0935 -0.4532  0.7218
 4979TIP3    H236429   6.803   3.985   4.417 -0.0708 -0.3856 -0.1102
 4980TIP3   OH236430   5.228   2.429  10.701  0.4700  0.3961  0.4505
 4980TIP3    H136431   5.177   2.477  10.766 -0.7428 -0.9388  0.5494
 4980TIP3    H236432   5.319   2.452  10.720  0.0711  0.8681  1.9341
 4981TIP3   OH236433   2.539   0.110   2.691  0.1631  1.0194  0.1340
 4981TIP3    H136434   2.543   0.182   2.754 -0.2598  0.3555  0.9400
 4981TIP3    H236435   2.445   0.096   2.676  0.1772 -0.2957  1.1044
 4982TIP3   OH236436   4.094   2.924   5.026  0.3528 -0.2046 -0.3136
 4982TIP3    H136437   4.088   2.834   5.058  1.2404  0.1280  0.8919
 4982TIP3    H236438   4.019   2.969   5.065 -0.4068 -0.5366 -1.3690
 4983TIP3   OH236439   2.393   6.678   4.097  0.3370  0.0016 -0.6136
 4983TIP3    H136440   2.302   6.700   4.117  0.2228 -1.0664  0.0885
 4983TIP3    H236441   2.397   6.583   4.103  1.3426 -0.0223 -1.3578
 4984TIP3   OH236442   5.337   5.235   6.306 -0.1346  0.1277  0.9742
 4984TIP3    H136443   5.351   5.238   6.401 -3.2424  0.3193  1.5065
 4984TIP3    H236444   5.336   5.327   6.279 -3.1760  0.3586  1.5272
 4985TIP3   OH236445   1.415   1.550  12.078  0.7273  0.2368  0.4666
 4985TIP3    H136446   1.495   1.498  12.077  0.2597 -0.5138  0.8884
 4985TIP3    H236447   1.380   1.538  12.167 -1.0234 -1.3228 -0.3401
 4986TIP3   OH236448   3.077   0.726   3.435  0.4570 -0.1967 -1.1641
 4986TIP3    H136449   3.007   0.768   3.385 -2.1240 -0.9739  1.5482
 4986TIP3    H236450   3.051   0.634   3.441  0.4274 -0.0816  1.7842
 4987TIP3   OH236451   2.357   3.096  14.883  0.7307 -0.6002 -0.5078
 4987TIP3    H136452   2.436   3.045  14.901  2.2151  2.1345  1.6295
 4987TIP3    H236453   2.380   3.149  14.806  1.4286  0.8217  0.6192
 4988TIP3   OH236454   4.502   1.596   2.635 -0.1734  0.1822 -0.4567
 4988TIP3    H136455   4.589   1.598   2.674 -0.0371 -2.7472 -0.3988
 4988TIP3    H236456   4.482   1.688   2.617  0.7480  1.5650  4.1804
 4989TIP3   OH236457   1.557   4.292  14.987 -0.1387 -0.8377  0.0233
 4989TIP3    H136458   1.581   4.347  15.061 -1.6110  1.7454 -1.2649
 4989TIP3    H236459   1.585   4.204  15.012  1.0359  0.2156  2.8301
 4990TIP3   OH236460   6.492   4.481  15.331  0.5437  0.2414 -0.2280
 4990TIP3    H136461   6.577   4.516  15.356  1.5037 -1.3013 -1.1296
 4990TIP3    H236462   6.512   4.410  15.269 -1.3830 -0.2870 -0.3362
 4991TIP3   OH236463   1.802   5.757   1.113  0.5171  0.0395 -0.2162
 4991TIP3    H136464   1.880   5.714   1.146  0.4761  0.9191  1.0913
 4991TIP3    H236465   1.730   5.698   1.134  0.8310 -0.9512 -1.7594
 4992TIP3   OH236466   0.611   3.189  17.030  0.4949  0.4691 -0.3073
 4992TIP3    H136467   0.559   3.129  16.976 -0.0312 -0.0952  0.7880
 4992TIP3    H236468   0.656   3.245  16.967 -2.1060  1.5617 -1.3294
 4993TIP3   OH236469   6.079   5.695   0.890 -0.0595 -0.4671  0.3536
 4993TIP3    H136470   6.128   5.634   0.834 -0.7462 -0.2748 -0.4845
 4993TIP3    H236471   6.122   5.690   0.975  0.0023 -2.0063  0.2561
 4994TIP3   OH236472   1.166   4.163  13.878  0.3026 -0.0754 -0.2952
 4994TIP3    H136473   1.118   4.086  13.907 -3.2972  1.9550 -0.2160
 4994TIP3    H236474   1.207   4.196  13.958  0.7265 -1.1376 -0.0579
 4995TIP3   OH236475   3.564   6.668   3.266 -0.0675 -0.5650  0.0315
 4995TIP3    H136476   3.623   6.666   3.191 -0.7274 -1.5052 -0.4929
 4995TIP3    H236477   3.544   6.761   3.279 -0.7732 -0.4449 -1.6447
 4996TIP3   OH236478   3.889   0.919  14.079  0.7408 -0.6479  0.7299
 4996TIP3    H136479   3.887   0.891  14.170  0.2210  1.4208  1.4124
 4996TIP3    H236480   3.879   1.015  14.083  2.5847 -0.2905 -1.3986
 4997TIP3   OH236481   0.074   0.900  12.456  0.8057  0.7128  0.1847
 4997TIP3    H136482   0.146   0.948  12.497  0.6253  1.9709 -0.8913
 4997TIP3    H236483   0.097   0.896  12.363 -0.2993  0.7558 -0.1036
 4998TIP3   OH236484   2.659   2.979   0.330  0.2043 -0.3748 -1.0211
 4998TIP3    H136485   2.664   2.889   0.362  0.0544 -0.2851 -0.7473
 4998TIP3    H236486   2.597   3.022   0.389 -0.0784 -0.2130 -1.4309
 4999TIP3   OH236487   5.241   5.310  15.683 -0.2991  0.1526 -0.1161
 4999TIP3    H136488   5.165   5.276  15.636 -0.4253  0.8934 -0.4631
 4999TIP3    H236489   5.285   5.368  15.620  0.1012  0.3620  0.3452
 5000TIP3   OH236490   5.230   0.502  12.866 -0.6642  0.2215  0.7160
 5000TIP3    H136491   5.300   0.484  12.803 -2.4616 -0.6981 -1.1154
 5000TIP3    H236492   5.273   0.554  12.934  1.4151  1.1855 -1.1819
 5001TIP3   OH236493   6.559   3.933   1.891  0.0250 -0.7802 -0.2599
 5001TIP3    H136494   6.654   3.944   1.885  0.3219 -2.2947  0.9658
 5001TIP3    H236495   6.537   3.957   1.981 -0.8691  0.1638 -0.7124
 5002TIP3   OH236496   4.559   3.630   3.058  0.7120 -0.0201 -0.0887
 5002TIP3    H136497   4.610   3.606   2.981  0.0134 -0.4806 -0.4177
 5002TIP3    H236498   4.618   3.614   3.132  1.5000  0.7298 -0.5376
 5003TIP3   OH236499   2.951   3.076   2.490  0.1586 -0.2462  1.1285
 5003TIP3    H136500   2.931   2.988   2.520  0.8728 -0.1619  1.8583
 5003TIP3    H236501   3.045   3.076   2.474 -0.1409 -0.2298 -0.9678
 5004TIP3   OH236502   5.877   1.671   5.419 -0.3236  0.2579  0.1365
 5004TIP3    H136503   5.858   1.755   5.459 -2.5158 -0.1923  0.1823
 5004TIP3    H236504   5.941   1.630   5.477  2.0294  2.4601 -0.7332
 5005TIP3   OH236505   4.213   3.039  16.653  0.1465  0.0766 -0.2760
 5005TIP3    H136506   4.281   3.018  16.717 -1.7134  0.3511  1.9082
 5005TIP3    H236507   4.134   2.997  16.687 -1.0267  0.6197 -2.1886
 5006TIP3   OH236508   5.248   6.228   3.738  0.3785  0.4143 -0.2986
 5006TIP3    H136509   5.210   6.225   3.826 -0.7640 -0.1422 -0.7979
 5006TIP3    H236510   5.314   6.297   3.743  2.5293 -1.5879  1.8630
 5007TIP3   OH236511   4.912   3.893   1.742 -0.0609  0.3010 -0.3712
 5007TIP3    H136512   4.877   3.983   1.746 -0.5027  0.1097  0.3522
 5007TIP3    H236513   4.926   3.877   1.649 -1.6347  0.5036 -0.6757
 5008TIP3   OH236514   6.786   5.867   2.409 -0.0009 -0.0929  0.2299
 5008TIP3    H136515   6.857   5.914   2.451 -0.6277  0.1751  0.9965
 5008TIP3    H236516   6.779   5.906   2.322 -0.3623  1.0790  0.7738
 5009TIP3   OH236517   1.085   4.782   5.395  0.0824  0.3493  0.0943
 5009TIP3    H136518   1.060   4.827   5.476  0.9523  1.1329 -0.0599
 5009TIP3    H236519   1.009   4.726   5.375 -0.3800  0.5655  1.1320
 5010TIP3   OH236520   6.228   0.964   5.535  0.5312  0.1871  0.4325
 5010TIP3    H136521   6.272   0.891   5.579  1.6505  0.6901  0.1907
 5010TIP3    H236522   6.286   1.039   5.548  0.2867  0.6360 -0.8280
 5011TIP3   OH236523   0.222   6.205   2.216 -0.0293  0.0487 -0.1525
 5011TIP3    H136524   0.168   6.132   2.185  1.0835 -0.3348 -1.2671
 5011TIP3    H236525   0.292   6.163   2.267 -0.6623  0.5312  1.1828
 5012TIP3   OH236526   0.523   6.770   1.994 -0.0252 -0.8734  0.2120
 5012TIP3    H136527   0.597   6.819   1.958 -0.5625  0.2087  0.5216
 5012TIP3    H236528   0.519   6.690   1.942  1.9182 -1.3972  0.7660
 5013TIP3   OH236529   1.699   6.395   1.934  0.5105  0.2889 -0.4846
 5013TIP3    H136530   1.722   6.304   1.950 -2.4394 -0.5538 -0.5204
 5013TIP3    H236531   1.772   6.445   1.971  3.0901 -2.0382 -2.0343
 5014TIP3   OH236532   6.597   0.258  12.915 -0.2596 -0.7990 -0.2348
 5014TIP3    H136533   6.658   0.184  12.907  0.1707 -0.5499  0.6033
 5014TIP3    H236534   6.647   0.333  12.885  0.6724 -0.2064  2.4797
 5015TIP3   OH236535   6.812   5.796  13.595 -0.1340  0.0060  0.7161
 5015TIP3    H136536   6.827   5.718  13.542  2.9454  0.4256  0.7837
 5015TIP3    H236537   6.780   5.861  13.533  1.5454 -0.0730 -0.2958
 5016TIP3   OH236538   2.232   2.178   0.906  0.1178 -0.0019  0.5997
 5016TIP3    H136539   2.172   2.153   0.976 -1.4061  0.8941 -0.3195
 5016TIP3    H236540   2.177   2.228   0.845  1.3042 -1.0228 -1.3937
 5017TIP3   OH236541   6.139   2.200   3.557 -0.4513 -0.0075  0.2897
 5017TIP3    H136542   6.231   2.221   3.543 -0.6358 -0.0042 -1.0155
 5017TIP3    H236543   6.138   2.153   3.641  0.3633  2.4032  1.7771
 5018TIP3   OH236544   3.484   2.325  12.764  0.2949  0.4858  0.0704
 5018TIP3    H136545   3.457   2.239  12.734  1.8414 -0.6447  1.6801
 5018TIP3    H236546   3.578   2.317  12.780  0.3646  2.2684  0.8621
 5019TIP3   OH236547   5.541   5.368   4.452 -0.1923 -0.1404 -0.3544
 5019TIP3    H136548   5.458   5.370   4.499  0.0303  1.0250  0.0241
 5019TIP3    H236549   5.607   5.356   4.521  0.0462  0.2894 -0.5082
 5020TIP3   OH236550   6.300   5.810   1.051 -0.3364 -0.4024 -0.3460
 5020TIP3    H136551   6.321   5.789   0.960 -1.2722  1.0592 -0.9263
 5020TIP3    H236552   6.364   5.761   1.102  0.4948 -0.8901 -1.8070
 5021TIP3   OH236553   0.729   3.442   1.780 -0.0909 -0.0144 -0.3773
 5021TIP3    H136554   0.705   3.428   1.872 -0.5029 -1.6974 -0.7073
 5021TIP3    H236555   0.655   3.489   1.742 -0.1763  0.1635  0.0067
 5022TIP3   OH236556   1.451   0.371   2.322 -0.5828 -0.0868 -0.2402
 5022TIP3    H136557   1.478   0.294   2.372 -0.8751 -0.9646 -1.3995
 5022TIP3    H236558   1.359   0.383   2.343 -0.8359 -0.7568 -0.9305
 5023TIP3   OH236559   3.632   1.899  13.268 -1.0063  0.3600  0.3652
 5023TIP3    H136560   3.698   1.891  13.337  0.1919 -2.1434 -0.9517
 5023TIP3    H236561   3.635   1.992  13.243 -0.1840  0.9387  2.3764
 5024TIP3   OH236562   3.930   3.931   6.112  0.1038 -0.2307 -0.0318
 5024TIP3    H136563   3.973   3.968   6.035 -1.2393 -0.2359 -0.8201
 5024TIP3    H236564   3.902   4.007   6.163  2.2145 -0.2173  1.2177
 5025TIP3   OH236565   2.950   0.085  14.854  0.0593  0.1142  0.1732
 5025TIP3    H136566   2.968  -0.003  14.820 -0.2265  0.3367 -0.5693
 5025TIP3    H236567   2.881   0.119  14.798  0.3908  0.9381  0.2553
 5026TIP3   OH236568   2.246   6.646   0.530  0.2881 -0.7005  0.7013
 5026TIP3    H136569   2.338   6.651   0.502 -0.1182  0.7099 -0.5536
 5026TIP3    H236570   2.245   6.690   0.615  0.5288  0.8775 -0.0743
 5027TIP3   OH236571   2.916   5.350  10.972  0.0189  0.5899 -0.4929
 5027TIP3    H136572   2.894   5.408  11.045 -0.1267  0.4734 -0.4438
 5027TIP3    H236573   2.992   5.391  10.930  0.5137  0.3120  0.1226
 5028TIP3   OH236574   5.677   1.252   0.157 -0.8173 -0.1240 -0.0986
 5028TIP3    H136575   5.581   1.246   0.153 -0.9331 -0.0992  1.7127
 5028TIP3    H236576   5.694   1.321   0.221  0.4332  0.2642 -0.8173
 5029TIP3   OH236577   2.710   0.093   1.683 -0.5706  0.0328  0.5491
 5029TIP3    H136578   2.766   0.054   1.751 -0.3126 -1.4213 -0.4547
 5029TIP3    H236579   2.664   0.018   1.645 -1.0512  0.8800 -0.5638
 5030TIP3   OH236580   4.824   1.329  11.134  0.6100 -0.3897 -0.0493
 5030TIP3    H136581   4.745   1.373  11.166  0.3004 -1.0238  0.0909
 5030TIP3    H236582   4.791   1.263  11.073  0.9752 -1.0601  0.4625
 5031TIP3   OH236583   1.749   6.001  11.755 -0.2790 -0.1521  0.0670
 5031TIP3    H136584   1.739   5.988  11.849 -0.9374 -0.4582 -0.0424
 5031TIP3    H236585   1.760   6.095  11.745 -2.7551  0.2053  0.2426
 5032TIP3   OH236586   6.334   1.012   1.841  0.1956  0.5412  0.1451
 5032TIP3    H136587   6.258   1.007   1.899  1.2177 -0.7401  1.4393
 5032TIP3    H236588   6.319   0.943   1.776  0.3607  0.0892  0.5741
 5033TIP3   OH236589   0.377   0.051  14.126 -0.2294  0.3700  0.3824
 5033TIP3    H136590   0.406   0.081  14.212 -1.8577  2.5137  0.2794
 5033TIP3    H236591   0.281   0.056  14.131 -0.3793 -0.3450 -1.2767
 5034TIP3   OH236592   2.649   2.026  14.425 -0.3031 -0.1521  0.0804
 5034TIP3    H136593   2.718   1.987  14.479 -1.2458 -0.4755  1.0811
 5034TIP3    H236594   2.570   1.980  14.450 -1.3741  1.9866  0.9284
 5035TIP3   OH236595   4.067   2.370  13.844 -0.0032  0.5942  0.2405
 5035TIP3    H136596   3.976   2.394  13.861 -0.6644 -0.8148 -1.0741
 5035TIP3    H236597   4.061   2.294  13.786  2.0167  0.1904  0.5022
 5036TIP3   OH236598   3.699   2.526   1.176 -0.5316  0.3370  0.6298
 5036TIP3    H136599   3.774   2.585   1.169  0.6310 -1.1742 -0.4085
 5036TIP3    H236600   3.707   2.487   1.263 -0.5979  0.7583  0.8305
 5037TIP3   OH236601   6.309   2.107  16.927  0.3548 -0.3341  0.1131
 5037TIP3    H136602   6.315   2.037  16.992  0.1652 -0.0984  0.3840
 5037TIP3    H236603   6.301   2.061  16.843  0.7618 -0.6365  0.2369
 5038TIP3   OH236604   4.578   4.103  12.965  0.5509  0.2091  0.2734
 5038TIP3    H136605   4.617   4.021  12.995 -0.3758 -0.4236 -0.2145
 5038TIP3    H236606   4.569   4.155  13.045  0.9240 -0.2573  0.6263
 5039TIP3   OH236607   4.809   1.979  11.504  0.1365 -0.1153  0.2377
 5039TIP3    H136608   4.815   2.041  11.432 -2.3025  0.0937  0.1251
 5039TIP3    H236609   4.846   1.898  11.470  2.9891  1.0800  0.2514
 5040TIP3   OH236610   3.839   1.057   2.662  0.1694 -0.1117 -0.6779
 5040TIP3    H136611   3.863   1.054   2.570  1.1144  0.1220 -0.4525
 5040TIP3    H236612   3.865   1.144   2.691 -1.1605  0.2263 -0.4537
 5041TIP3   OH236613   1.831   4.868   4.092  0.2090 -0.3178 -1.0239
 5041TIP3    H136614   1.761   4.901   4.148  1.2381  0.0459  0.0892
 5041TIP3    H236615   1.873   4.799   4.144  0.8137 -0.3854 -1.5846
 5042TIP3   OH236616   2.368   4.439   1.411  0.2213 -0.0365 -0.5235
 5042TIP3    H136617   2.352   4.459   1.503  2.6268  2.0264 -0.4356
 5042TIP3    H236618   2.319   4.505   1.363 -1.4060 -1.3926 -0.7955
 5043TIP3   OH236619   5.154   6.114   3.371 -0.5039 -0.4062 -0.0014
 5043TIP3    H136620   5.109   6.197   3.391 -1.9964 -1.2949  0.5368
 5043TIP3    H236621   5.138   6.099   3.278 -0.1864 -0.0646 -0.1109
 5044TIP3   OH236622   3.801   4.343   6.576 -0.0073 -0.0026 -0.8063
 5044TIP3    H136623   3.789   4.282   6.503  1.4657 -1.0353 -0.2330
 5044TIP3    H236624   3.741   4.312   6.644  0.4875 -0.6181 -0.6426
 5045TIP3   OH236625   6.327   1.452   3.532 -0.3754 -0.5273  0.2213
 5045TIP3    H136626   6.324   1.399   3.452  0.5884 -0.9068  0.4164
 5045TIP3    H236627   6.414   1.492   3.531 -1.1088  1.1388  0.0439
 5046TIP3   OH236628   3.298   3.339  14.171  0.4855 -0.0037  0.0053
 5046TIP3    H136629   3.335   3.423  14.148  0.5434 -0.2719 -0.9266
 5046TIP3    H236630   3.353   3.275  14.125  0.2909 -0.5276  0.4950
 5047TIP3   OH236631   0.275   6.671   4.982  0.4795 -0.3204  0.1576
 5047TIP3    H136632   0.318   6.746   4.941 -0.5212 -0.4415 -1.1767
 5047TIP3    H236633   0.307   6.672   5.072 -0.6402  2.6028  0.6163
 5048TIP3   OH236634   3.270   0.666  14.089 -0.0708 -0.1359  0.5543
 5048TIP3    H136635   3.364   0.659  14.103 -0.0687 -0.4528  0.3922
 5048TIP3    H236636   3.251   0.601  14.022 -0.9177 -2.4865  2.8839
 5049TIP3   OH236637   1.242   1.417  14.091  0.1701  0.4313  0.1857
 5049TIP3    H136638   1.331   1.412  14.056  0.5885  1.0714  1.1114
 5049TIP3    H236639   1.199   1.484  14.038  0.3760  0.4335  0.0213
 5050TIP3   OH236640   6.510   5.012   0.589 -0.0796  0.4595  0.4828
 5050TIP3    H136641   6.453   5.087   0.604 -0.7381  0.0542  0.0593
 5050TIP3    H236642   6.501   4.958   0.667 -1.7145 -0.5051 -0.3143
 5051TIP3   OH236643   5.201   6.001   1.844 -0.3066 -0.1377  0.4758
 5051TIP3    H136644   5.132   6.062   1.870 -1.3179 -1.5127  1.2190
 5051TIP3    H236645   5.274   6.056   1.818 -1.1008  1.3653  1.2847
 5052TIP3   OH236646   0.738   3.186   6.003 -0.5162  0.0002  0.0872
 5052TIP3    H136647   0.724   3.103   6.049  0.7113 -1.4947 -2.0259
 5052TIP3    H236648   0.828   3.210   6.024 -0.5293  0.2243 -0.1097
 5053TIP3   OH236649   6.687   4.664   6.474  0.5358  0.3168  0.3281
 5053TIP3    H136650   6.765   4.651   6.528  0.1822  0.2006  0.8055
 5053TIP3    H236651   6.664   4.576   6.444 -0.5563  0.0826  1.7716
 5054TIP3   OH236652   6.770   3.773   2.154  0.2865 -0.1155 -0.3285
 5054TIP3    H136653   6.832   3.726   2.099 -0.1334  1.6424 -2.4328
 5054TIP3    H236654   6.684   3.750   2.119  0.0561  4.8309 -4.1410
 5055TIP3   OH236655   5.982   2.332  13.262  0.0528 -0.4167 -0.3001
 5055TIP3    H136656   6.002   2.378  13.343  0.5009 -0.4237 -0.4056
 5055TIP3    H236657   6.062   2.339  13.209 -0.6567  0.7056 -1.2670
 5056TIP3   OH236658   6.721   5.226   2.163  0.0312  0.3117 -0.2615
 5056TIP3    H136659   6.703   5.132   2.152 -0.0122  0.3868 -0.8628
 5056TIP3    H236660   6.640   5.262   2.199  0.0675  0.1049  0.0239
 5057TIP3   OH236661   5.144   3.760   4.613  0.2343 -0.0415  0.0461
 5057TIP3    H136662   5.138   3.851   4.642  0.2883  0.4239 -1.3458
 5057TIP3    H236663   5.146   3.765   4.518  0.2651 -1.5069 -0.0529
 5058TIP3   OH236664   2.783   3.877   1.427 -0.3004 -0.4359 -0.0824
 5058TIP3    H136665   2.765   3.848   1.337 -0.2749 -1.0707  0.1120
 5058TIP3    H236666   2.808   3.969   1.418 -1.8180 -0.0464 -0.5614
 5059TIP3   OH236667   1.256   3.290   1.913 -0.0290 -0.1905 -0.6946
 5059TIP3    H136668   1.340   3.254   1.882  1.1502  3.1519 -1.7963
 5059TIP3    H236669   1.280   3.345   1.987 -1.3798  0.2415 -0.5672
 5060TIP3   OH236670   0.101   3.063  14.677  0.1681 -0.4361 -0.1026
 5060TIP3    H136671   0.044   3.087  14.750 -0.8382 -1.9397 -0.3614
 5060TIP3    H236672   0.110   2.968  14.684  1.3402 -0.4140 -1.0314
 5061TIP3   OH236673   2.812   5.386   1.147 -0.2585  0.1616 -0.2388
 5061TIP3    H136674   2.849   5.463   1.190 -1.1446  1.2640 -1.3826
 5061TIP3    H236675   2.752   5.349   1.212  0.7003 -0.0019  0.5799
 5062TIP3   OH236676   4.157   4.609   5.048 -0.1094 -0.1226 -0.8904
 5062TIP3    H136677   4.074   4.658   5.049 -0.0071  0.0940  1.0798
 5062TIP3    H236678   4.208   4.648   5.119  1.0311 -1.3581 -1.0036
 5063TIP3   OH236679   5.212   6.645   3.226 -0.1259 -0.0110  0.0658
 5063TIP3    H136680   5.121   6.618   3.213  0.0200 -1.1725  1.1920
 5063TIP3    H236681   5.206   6.734   3.260 -1.1414 -1.2719  3.7039
 5064TIP3   OH236682   4.305   0.808   2.521 -0.5747  0.0074 -0.2182
 5064TIP3    H136683   4.325   0.900   2.503 -0.2973 -0.3972 -2.2319
 5064TIP3    H236684   4.217   0.795   2.485  0.1098 -0.9164 -1.6670
 5065TIP3   OH236685   5.551   1.428  14.235 -0.7552  0.0394  0.1432
 5065TIP3    H136686   5.618   1.437  14.303  1.6360  1.7147 -2.2218
 5065TIP3    H236687   5.543   1.333  14.222 -0.8600 -0.2919  2.3001
 5066TIP3   OH236688   1.022   2.595   3.204  0.1302 -0.2064 -0.2300
 5066TIP3    H136689   1.089   2.536   3.238  2.6443  2.8626  0.7067
 5066TIP3    H236690   1.070   2.650   3.141 -2.9263 -1.4988 -4.0782
 5067TIP3   OH236691   3.741   3.459  11.873  0.5534 -0.3614 -0.1215
 5067TIP3    H136692   3.813   3.396  11.882 -0.5698 -1.5180  1.3604
 5067TIP3    H236693   3.664   3.405  11.852  0.2760  0.9713 -3.0855
 5068TIP3   OH236694   1.534   5.515   3.654  0.6790 -0.5482  0.6158
 5068TIP3    H136695   1.581   5.438   3.687  1.7827 -0.0805  0.2018
 5068TIP3    H236696   1.603   5.579   3.636 -0.2743  0.7782  1.5521
 5069TIP3   OH236697   3.256   6.673  16.987 -0.3468  0.1023 -0.9650
 5069TIP3    H136698   3.225   6.666  16.897 -0.4271  0.3859 -0.9617
 5069TIP3    H236699   3.230   6.591  17.029  1.7285 -1.0511 -1.8165
 5070TIP3   OH236700   2.311   2.986   5.678  0.0690  0.1183 -1.2467
 5070TIP3    H136701   2.336   3.040   5.753 -2.4894  0.3776 -0.4760
 5070TIP3    H236702   2.308   2.897   5.712 -2.1913  0.3557 -0.6008
 5071TIP3   OH236703   0.555   5.819   3.972  0.6352  0.3496 -0.3200
 5071TIP3    H136704   0.479   5.835   4.028  0.8774  1.5118 -0.2968
 5071TIP3    H236705   0.549   5.727   3.949 -0.8006  0.4323 -0.3442
 5072TIP3   OH236706   0.647   2.196  12.892 -0.9357  0.2123 -0.2954
 5072TIP3    H136707   0.702   2.247  12.952  0.8123 -0.3209 -1.3692
 5072TIP3    H236708   0.650   2.107  12.927  0.0281 -0.0844 -1.1112
 5073TIP3   OH236709   5.057   2.566  13.865  1.0239 -0.3113  0.0290
 5073TIP3    H136710   4.980   2.516  13.837  1.0943  0.1268 -1.0067
 5073TIP3    H236711   5.034   2.599  13.952  1.3815 -2.9645  1.2330
 5074TIP3   OH236712   0.165   4.668   3.035 -0.4243 -0.1747  0.5144
 5074TIP3    H136713   0.199   4.739   3.089 -0.4894 -0.6166  1.1328
 5074TIP3    H236714   0.163   4.592   3.092 -1.0437 -0.5086  0.0617
 5075TIP3   OH236715   1.490   1.474   3.349  0.0271 -0.0379 -0.2330
 5075TIP3    H136716   1.494   1.488   3.444  1.3468 -0.0594 -0.2625
 5075TIP3    H236717   1.475   1.561   3.312 -0.5459 -0.0377 -0.0045
 5076TIP3   OH236718   3.249   1.332  14.144 -0.0989 -0.1476  0.2612
 5076TIP3    H136719   3.195   1.311  14.220 -3.3653  1.4361 -1.3841
 5076TIP3    H236720   3.210   1.282  14.072  1.3208  0.2661 -0.8541
 5077TIP3   OH236721   4.834   4.909   0.540 -0.1293 -0.0864 -0.8296
 5077TIP3    H136722   4.815   4.948   0.625 -0.7336 -1.0953 -0.4750
 5077TIP3    H236723   4.863   4.982   0.485 -1.0633  0.8080 -0.1606
 5078TIP3   OH236724   2.188   1.051   5.145 -0.1185  0.1775 -0.4352
 5078TIP3    H136725   2.214   1.043   5.054  0.8042 -1.2434 -0.0776
 5078TIP3    H236726   2.267   1.027   5.195 -0.9491 -0.2578  0.7187
 5079TIP3   OH236727   4.724   3.505   0.507  0.1578  0.4628 -0.3515
 5079TIP3    H136728   4.807   3.532   0.467  0.0446  0.7457 -0.3973
 5079TIP3    H236729   4.744   3.422   0.551  1.0899  1.6974  1.7018
 5080TIP3   OH236730   2.978   1.213   0.088 -0.2726 -0.4704  0.3920
 5080TIP3    H136731   3.005   1.132   0.132 -1.3787 -1.1246 -0.0945
 5080TIP3    H236732   3.052   1.237   0.033  0.1306 -1.0700  0.6706
 5081TIP3   OH236733   3.749   4.891   0.312  0.7152 -0.0367 -0.1701
 5081TIP3    H136734   3.679   4.876   0.376  1.8574 -1.7215  0.7339
 5081TIP3    H236735   3.703   4.898   0.228 -0.6443  0.3069  0.5742
 5082TIP3   OH236736   4.164   2.929  17.006 -0.5464  0.2499  0.7238
 5082TIP3    H136737   4.123   3.015  17.019 -0.3914  0.7680 -1.7044
 5082TIP3    H236738   4.092   2.870  16.985 -0.4198  0.4166 -0.2420
 5083TIP3   OH236739   3.650   4.003  11.696 -0.2347  0.4319  0.7298
 5083TIP3    H136740   3.587   3.932  11.684 -0.6648  0.8501  0.4647
 5083TIP3    H236741   3.736   3.961  11.693 -0.4882 -0.0701  0.5556
 5084TIP3   OH236742   6.705   2.478   2.511 -0.2636  0.0936  0.1553
 5084TIP3    H136743   6.719   2.384   2.514 -1.8386 -0.1848 -0.4294
 5084TIP3    H236744   6.644   2.496   2.582 -2.1722  0.2188 -1.4345
 5085TIP3   OH236745   4.112   4.202  16.118 -0.5340  0.6923 -0.3512
 5085TIP3    H136746   4.163   4.223  16.041 -1.8469  0.5845 -1.2877
 5085TIP3    H236747   4.081   4.287  16.151  1.2619  0.8901  1.0071
 5086TIP3   OH236748   0.265   2.922   1.194  0.1802  0.7011 -0.0803
 5086TIP3    H136749   0.308   2.937   1.110  2.0168 -0.4951  0.5669
 5086TIP3    H236750   0.182   2.880   1.172  0.9606 -0.2964 -1.3024
 5087TIP3   OH236751   5.318   3.986  15.043  0.2662  0.2541  0.1349
 5087TIP3    H136752   5.342   3.900  15.076  0.0829  0.6746  1.4257
 5087TIP3    H236753   5.324   4.044  15.119 -0.5173  1.2099 -0.4948
 5088TIP3   OH236754   4.893   4.871  11.357 -0.5644 -0.4350 -0.1360
 5088TIP3    H136755   4.829   4.911  11.299  0.3014 -0.1539 -0.9229
 5088TIP3    H236756   4.963   4.840  11.299  0.1362 -0.4985  0.7093
 5089TIP3   OH236757   4.255   0.446  15.468 -0.3155 -0.1125  0.4706
 5089TIP3    H136758   4.255   0.533  15.430 -0.2954 -0.9690 -1.6123
 5089TIP3    H236759   4.336   0.442  15.519  0.4812  0.5604 -0.7039
 5090TIP3   OH236760   5.618   4.558  11.864  0.0425 -0.3693 -0.5300
 5090TIP3    H136761   5.522   4.561  11.859  0.0396  3.1138 -0.4073
 5090TIP3    H236762   5.643   4.494  11.797 -2.3411 -1.2964 -0.6243
 5091TIP3   OH236763   0.696   4.686  13.256  0.0238  0.5264  0.2105
 5091TIP3    H136764   0.687   4.708  13.349  0.1643 -0.9667  0.5998
 5091TIP3    H236765   0.748   4.605  13.256  0.0335  0.5248 -1.1695
 5092TIP3   OH236766   1.007   0.269  13.436 -0.0471  0.5763 -0.2899
 5092TIP3    H136767   1.061   0.271  13.515  1.9738 -0.2873 -1.5568
 5092TIP3    H236768   1.065   0.233  13.369 -1.1794  2.7097 -2.5523
 5093TIP3   OH236769   6.303   4.505   1.592  0.1036  0.1231 -0.0049
 5093TIP3    H136770   6.265   4.580   1.546  0.1864 -1.0504 -2.1327
 5093TIP3    H236771   6.287   4.523   1.684 -1.4018  1.9378 -0.5487
 5094TIP3   OH236772   6.813   3.380  13.803 -0.4280  0.3689  0.4844
 5094TIP3    H136773   6.857   3.439  13.864 -0.6463 -0.4103  1.4248
 5094TIP3    H236774   6.847   3.405  13.717  0.1705  1.2440  0.9521
 5095TIP3   OH236775   1.039   6.740  15.910  0.3352  0.2636  0.4259
 5095TIP3    H136776   0.965   6.722  15.969  1.8068  0.5059  2.4562
 5095TIP3    H236777   1.116   6.713  15.960  1.6744  0.5250 -1.4215
 5096TIP3   OH236778   3.849   2.756  11.725 -0.5046  0.1354 -0.1298
 5096TIP3    H136779   3.901   2.792  11.797 -1.4671 -1.1495  1.2615
 5096TIP3    H236780   3.900   2.777  11.646  1.8686 -0.5989  1.1039
 5097TIP3   OH236781   1.178   0.195  14.411  0.5383  0.1308  0.7574
 5097TIP3    H136782   1.109   0.130  14.426  1.1779 -1.0488 -1.1154
 5097TIP3    H236783   1.244   0.175  14.478  0.4911 -0.8207  0.5339
 5098TIP3   OH236784   6.234   3.004  14.574  0.1647  0.9241 -0.0189
 5098TIP3    H136785   6.320   3.037  14.549 -0.1949  1.4034 -0.6435
 5098TIP3    H236786   6.200   2.964  14.494  1.4210 -2.8847  1.1349
 5099TIP3   OH236787   6.759   4.985  12.936  0.1187 -0.1009 -0.9047
 5099TIP3    H136788   6.787   5.005  13.025  1.3064 -1.3476 -0.9666
 5099TIP3    H236789   6.751   4.889  12.934 -1.1937 -0.0134 -1.7832
 5100TIP3   OH236790   4.691   3.241  10.767 -1.2746 -0.0409  0.8602
 5100TIP3    H136791   4.641   3.272  10.692  0.9944 -4.2724 -2.9151
 5100TIP3    H236792   4.758   3.309  10.780 -2.7597  1.6122  0.2981
 5101TIP3   OH236793   1.920   6.670   1.813 -0.4688  0.6906  0.3905
 5101TIP3    H136794   1.831   6.674   1.779 -0.5125  0.1015  0.4155
 5101TIP3    H236795   1.910   6.658   1.907 -0.3961 -0.4499  0.2776
 5102TIP3   OH236796   3.047   3.597   2.666 -0.0304  0.0794  0.0229
 5102TIP3    H136797   3.033   3.648   2.745  1.0195 -2.8263  2.2576
 5102TIP3    H236798   3.127   3.546   2.684  1.1180  0.3462 -3.5283
 5103TIP3   OH236799   4.373   1.224   2.973  0.4855  0.6754 -0.9908
 5103TIP3    H136800   4.296   1.177   3.006  0.9922  2.1839  2.8193
 5103TIP3    H236801   4.337   1.301   2.930 -0.1617  0.2300 -1.2791
 5104TIP3   OH236802   2.714   1.313  12.969 -0.4798 -0.4755 -0.1629
 5104TIP3    H136803   2.686   1.224  12.945  2.5734 -2.7925  3.5915
 5104TIP3    H236804   2.663   1.334  13.047 -0.9763  1.0335 -0.8612
 5105TIP3   OH236805   4.613   3.969   2.244  0.5335  0.1922 -0.2654
 5105TIP3    H136806   4.543   3.957   2.180  0.1960 -0.5729  0.2401
 5105TIP3    H236807   4.669   3.892   2.233  1.2387  0.7377 -0.5828
 5106TIP3   OH236808   2.152   2.612   0.544  0.6002  0.0473 -0.4852
 5106TIP3    H136809   2.190   2.660   0.470  0.7860 -1.4353 -1.4034
 5106TIP3    H236810   2.176   2.663   0.621  0.4357  1.6191 -1.4433
 5107TIP3   OH236811   0.247   0.161  10.696 -0.5551  0.3405  0.1408
 5107TIP3    H136812   0.207   0.090  10.645 -0.8355  0.3406  0.3647
 5107TIP3    H236813   0.207   0.154  10.783  0.6620 -0.3132  0.6852
 5108TIP3   OH236814   4.849   0.347   4.286 -1.0052 -0.3306 -0.4202
 5108TIP3    H136815   4.934   0.390   4.300 -0.3124 -2.5366  4.0462
 5108TIP3    H236816   4.784   0.416   4.304 -0.0447  0.4354  0.2358
 5109TIP3   OH236817   2.275   5.456  16.165 -0.5504  0.2499 -0.2377
 5109TIP3    H136818   2.305   5.473  16.075  0.5177 -0.0553  0.0447
 5109TIP3    H236819   2.319   5.523  16.217 -1.2719  0.5086  0.0476
 5110TIP3   OH236820   3.987   0.685   4.793  0.3425  0.3759 -0.3416
 5110TIP3    H136821   4.026   0.632   4.863  0.7337  0.9561 -0.1106
 5110TIP3    H236822   4.032   0.656   4.714 -1.2659 -1.4871 -0.6651
 5111TIP3   OH236823   4.069   1.192   5.262 -0.1863  0.9125 -0.7079
 5111TIP3    H136824   4.030   1.277   5.278 -0.9544  0.4456 -0.0386
 5111TIP3    H236825   4.001   1.142   5.216 -0.3278  0.1508  0.3006
 5112TIP3   OH236826   3.940   1.624  11.175 -0.1254  0.2022  0.3070
 5112TIP3    H136827   4.008   1.690  11.159  0.6189 -0.6791 -0.2948
 5112TIP3    H236828   3.987   1.551  11.215 -0.9957  0.1536  1.2669
 5113TIP3   OH236829   2.219   1.222   0.305  0.0775 -0.3711  0.4276
 5113TIP3    H136830   2.271   1.299   0.328  0.4869 -0.9719  1.5869
 5113TIP3    H236831   2.268   1.148   0.341 -0.5999 -1.1295 -0.1580
 5114TIP3   OH236832   1.444   4.747  15.236 -0.3951 -0.0517  0.5460
 5114TIP3    H136833   1.414   4.732  15.146  0.3298  2.5545 -0.2479
 5114TIP3    H236834   1.496   4.828  15.230  0.2360 -0.1625  3.2123
 5115TIP3   OH236835   6.433   1.343   0.232  0.2485  0.0595 -0.0113
 5115TIP3    H136836   6.384   1.263   0.216  0.4104  0.1994 -1.3777
 5115TIP3    H236837   6.525   1.316   0.230  0.2807  0.0443  1.0515
 5116TIP3   OH236838   5.668   4.670   0.913  0.1556 -0.3568  0.2449
 5116TIP3    H136839   5.736   4.719   0.867 -0.6253  0.7796  0.2537
 5116TIP3    H236840   5.586   4.714   0.889 -0.8096 -2.6516 -1.0736
 5117TIP3   OH236841   2.610   6.134  13.129 -0.0654  0.2845 -0.3432
 5117TIP3    H136842   2.684   6.097  13.177 -0.0842 -0.1789 -0.6665
 5117TIP3    H236843   2.556   6.059  13.107 -0.7546  0.6434  0.0869
 5118TIP3   OH236844   6.536   6.030  16.535 -0.2897  0.0816  0.5275
 5118TIP3    H136845   6.510   6.029  16.627 -2.0734  2.1657  0.1132
 5118TIP3    H236846   6.631   6.042  16.538  0.0012 -1.9299  2.0534
 5119TIP3   OH236847   1.761   2.988  15.700  0.6368  0.2114 -0.1829
 5119TIP3    H136848   1.824   2.955  15.764  0.7452 -0.9216 -0.8469
 5119TIP3    H236849   1.814   3.041  15.640  0.7504  0.2507 -0.0479
 5120TIP3   OH236850   6.713   4.082  17.021 -0.5748 -0.7375 -0.3892
 5120TIP3    H136851   6.757   4.114  16.942 -2.3620 -2.8939 -2.4042
 5120TIP3    H236852   6.781   4.086  17.088  1.3210  0.3268 -2.2079
 5121TIP3   OH236853   3.130   1.093  16.343 -0.6081 -0.3068 -0.0693
 5121TIP3    H136854   3.122   1.009  16.388  2.6805 -1.3191 -1.0936
 5121TIP3    H236855   3.139   1.069  16.250  0.7246  1.1016 -0.3437
 5122TIP3   OH236856   3.395   3.054   0.508 -0.0930 -0.0013 -0.3917
 5122TIP3    H136857   3.383   3.134   0.458 -0.8184 -1.0552 -1.9919
 5122TIP3    H236858   3.314   3.045   0.559  0.3904  0.7568  0.5307
 5123TIP3   OH236859   3.146   2.487   1.361  0.7001 -0.1440 -0.1793
 5123TIP3    H136860   3.209   2.536   1.307  0.3729 -1.0913 -1.4583
 5123TIP3    H236861   3.115   2.417   1.304 -1.9672  0.6327  0.2141
 5124TIP3   OH236862   3.886   6.759   5.419  0.1252  0.1302 -0.4259
 5124TIP3    H136863   3.838   6.686   5.380  0.8123 -0.5919  0.0599
 5124TIP3    H236864   3.953   6.718   5.473 -0.5606  1.0981  1.2318
 5125TIP3   OH236865   0.185   5.115  13.480 -0.1156 -0.2120  0.4406
 5125TIP3    H136866   0.274   5.146  13.463 -1.0315  1.7701 -1.0971
 5125TIP3    H236867   0.161   5.156  13.563  0.0971 -0.0201  0.4085
 5126TIP3   OH236868   2.382   3.411  14.023 -0.0288 -0.1118 -0.0725
 5126TIP3    H136869   2.335   3.451  13.950  0.2959 -0.8437 -0.6920
 5126TIP3    H236870   2.420   3.485  14.071  1.0699  0.3087 -1.5366
 5127TIP3   OH236871   1.406   2.070   6.027  0.7289 -0.0695  0.0291
 5127TIP3    H136872   1.495   2.052   5.996  1.2109  3.1141 -0.8282
 5127TIP3    H236873   1.411   2.159   6.062 -1.8418 -0.3385  1.2667
 5128TIP3   OH236874   5.770   6.152   5.085  0.3237 -0.0471 -0.4585
 5128TIP3    H136875   5.769   6.247   5.082 -1.1511  0.0411  1.2287
 5128TIP3    H236876   5.684   6.128   5.119 -0.7415 -2.1734 -4.1476
 5129TIP3   OH236877   2.904   3.709   4.689  0.0246 -0.5986  0.0585
 5129TIP3    H136878   2.842   3.780   4.669  0.7862  0.0599 -0.0013
 5129TIP3    H236879   2.954   3.741   4.764  0.7315 -0.8530 -0.3019
 5130TIP3   OH236880   6.650   2.967   3.246  0.4605  0.0633  0.3939
 5130TIP3    H136881   6.664   3.007   3.161 -0.6771 -0.8733 -0.2783
 5130TIP3    H236882   6.723   2.997   3.300  1.4018  0.3903 -1.0114
 5131TIP3   OH236883   2.625   5.097   4.460 -0.0330  0.0009  0.2485
 5131TIP3    H136884   2.599   5.093   4.552 -0.1783  0.8301  0.2554
 5131TIP3    H236885   2.719   5.083   4.460  0.0191  0.3486  0.5626
 5132TIP3   OH236886   6.025   1.852  15.822  0.0097  0.0963  0.0658
 5132TIP3    H136887   6.056   1.764  15.798  1.2658  0.1772  1.2711
 5132TIP3    H236888   6.098   1.890  15.870 -0.9015  1.4413  0.4225
 5133TIP3   OH236889   3.838   0.138  11.075  0.1927 -0.3157  0.5080
 5133TIP3    H136890   3.919   0.190  11.072 -0.9822  1.6200  0.5261
 5133TIP3    H236891   3.796   0.164  11.156 -1.3311  0.1313 -0.3840
 5134TIP3   OH236892   2.320   3.219  13.255 -0.2447  0.1627  0.7373
 5134TIP3    H136893   2.315   3.224  13.160  0.2597  1.2629  0.7530
 5134TIP3    H236894   2.281   3.134  13.277  1.1276 -0.8576 -0.5521
 5135TIP3   OH236895   0.514   1.634   3.217 -0.0501  0.1619 -0.1956
 5135TIP3    H136896   0.524   1.718   3.263  0.8066  0.3930 -0.7747
 5135TIP3    H236897   0.424   1.607   3.236  0.2479  0.2601  1.5840
 5136TIP3   OH236898   1.692   6.205  16.815  0.3228 -0.0892  0.1973
 5136TIP3    H136899   1.638   6.185  16.892 -0.8777  0.2877 -0.5225
 5136TIP3    H236900   1.743   6.281  16.840 -1.0952  0.9122  0.1770
 5137TIP3   OH236901   4.867   5.036   3.135  0.1917  0.4148  0.1425
 5137TIP3    H136902   4.859   5.075   3.222  0.3907  0.1871  0.2610
 5137TIP3    H236903   4.792   5.072   3.086 -1.8044 -1.9156  1.3059
 5138TIP3   OH236904   2.699   4.386   3.861  0.1372 -0.2162 -0.0408
 5138TIP3    H136905   2.747   4.316   3.906  4.4831  0.5315 -2.8323
 5138TIP3    H236906   2.758   4.462   3.867 -2.1735  1.7927 -1.2404
 5139TIP3   OH236907   6.556   2.119  12.798 -0.1936  0.1502  0.4888
 5139TIP3    H136908   6.571   2.106  12.892 -1.5128  0.8774  0.8317
 5139TIP3    H236909   6.620   2.185  12.773 -0.5169  0.7272  1.1338
 5140TIP3   OH236910   4.382   2.867   4.496  0.1632  0.6438  0.2019
 5140TIP3    H136911   4.308   2.819   4.532  0.9903 -0.2946  0.7012
 5140TIP3    H236912   4.399   2.936   4.560 -0.5991  1.2170 -0.1861
 5141TIP3   OH236913   1.432   3.367   5.720 -0.3199  0.1995 -0.2290
 5141TIP3    H136914   1.350   3.381   5.768  1.7375  0.9784  3.4894
 5141TIP3    H236915   1.432   3.436   5.654 -3.2544 -0.7877 -1.4293
 5142TIP3   OH236916   4.735   4.843  12.281  0.3063  0.1437  0.5061
 5142TIP3    H136917   4.827   4.845  12.255  0.2193  1.1942  0.2609
 5142TIP3    H236918   4.719   4.929  12.320 -0.7372  0.1882 -0.0057
 5143TIP3   OH236919   3.644   4.056   5.032  0.2554 -0.1231  0.4371
 5143TIP3    H136920   3.722   4.052   4.977  0.1585 -1.3415  0.3603
 5143TIP3    H236921   3.609   4.144   5.019  0.0224 -0.5021 -1.7597
 5144TIP3   OH236922   3.042   1.298  11.820  0.0590  0.3851 -0.5420
 5144TIP3    H136923   3.136   1.310  11.813 -0.1265  1.8411 -0.8721
 5144TIP3    H236924   3.013   1.277  11.732  0.0354  0.2554 -0.5037
 5145TIP3   OH236925   4.568   6.056  13.610 -0.0088 -0.3636 -0.4497
 5145TIP3    H136926   4.481   6.096  13.623  0.4871  0.6897 -0.2840
 5145TIP3    H236927   4.625   6.130  13.592  0.5444 -1.2008 -2.3035
 5146TIP3   OH236928   4.455   4.079  12.135 -0.2925  0.5202  0.4859
 5146TIP3    H136929   4.407   4.139  12.078 -0.9967  1.0408  1.5827
 5146TIP3    H236930   4.400   4.000  12.138 -0.2893  0.5179  0.4834
 5147TIP3   OH236931   6.029   0.957   3.234 -0.7938  0.0618  0.0857
 5147TIP3    H136932   6.057   0.932   3.146  1.3800  0.4821  0.5788
 5147TIP3    H236933   5.936   0.934   3.238 -0.2829 -2.7688 -1.3354
 5148TIP3   OH236934   2.771   3.644  13.503 -0.9884 -0.1728  0.7818
 5148TIP3    H136935   2.780   3.562  13.551 -2.9850 -1.2667 -0.5496
 5148TIP3    H236936   2.680   3.671  13.517 -1.7743 -0.7014 -2.4282
 5149TIP3   OH236937   2.629   0.437   0.763  0.0617 -0.2827 -0.0543
 5149TIP3    H136938   2.615   0.500   0.835  0.1529 -0.2462 -0.0684
 5149TIP3    H236939   2.697   0.379   0.796 -0.5486 -0.8363  0.2573
 5150TIP3   OH236940   4.709   4.526   0.666  0.1703  0.2270 -0.1692
 5150TIP3    H136941   4.792   4.488   0.636  0.1791  0.7427 -0.8127
 5150TIP3    H236942   4.652   4.450   0.680  1.0048 -0.2004  1.1074
 5151TIP3   OH236943   5.332   2.781   2.340 -0.1097 -0.0195 -0.1171
 5151TIP3    H136944   5.403   2.723   2.368  1.0200  0.9170 -0.9139
 5151TIP3    H236945   5.354   2.804   2.250 -1.2865  0.5227 -0.2854
 5152TIP3   OH236946   5.861   3.408   1.049 -0.0523 -0.0394  0.6162
 5152TIP3    H136947   5.879   3.502   1.057  0.5211 -0.2849  2.7661
 5152TIP3    H236948   5.782   3.403   0.995  0.1717  1.6373  0.0725
 5153TIP3   OH236949   5.782   5.875  12.833 -0.0187  0.0592 -0.0202
 5153TIP3    H136950   5.864   5.882  12.785  0.8038  0.9375  1.4043
 5153TIP3    H236951   5.782   5.953  12.889 -0.9069 -0.8975  1.3630
 5154TIP3   OH236952   1.616   1.083  15.640 -0.0708 -0.8410  0.0348
 5154TIP3    H136953   1.692   1.088  15.583 -0.9036 -2.4470 -1.2739
 5154TIP3    H236954   1.637   1.013  15.702  0.6474  0.6034  1.5109
 5155TIP3   OH236955   6.287   3.121  10.804  0.7889  0.3231 -0.2396
 5155TIP3    H136956   6.282   3.183  10.731  0.0213  0.3774 -0.1450
 5155TIP3    H236957   6.323   3.041  10.766  3.0276  1.1903 -0.1139
 5156TIP3   OH236958   6.412   2.752   2.334 -0.2616  0.2886 -0.0908
 5156TIP3    H136959   6.382   2.767   2.245 -1.0327 -0.5539  0.0112
 5156TIP3    H236960   6.380   2.827   2.384 -0.4707  0.3915 -0.3787
 5157TIP3   OH236961   3.831   4.034  13.925  0.2896  0.2290  0.1175
 5157TIP3    H136962   3.873   4.024  14.010 -0.9052 -1.6901  0.5351
 5157TIP3    H236963   3.847   3.950  13.880  1.7188  1.5215 -1.9670
 5158TIP3   OH236964   1.979   3.503   5.556  0.3122 -0.1809  0.5363
 5158TIP3    H136965   1.894   3.545   5.568  0.2788  0.3427 -1.2195
 5158TIP3    H236966   1.982   3.435   5.624 -1.0608  0.4490  1.2742
 5159TIP3   OH236967   3.830   0.522   3.351 -0.0556 -0.1916  0.3670
 5159TIP3    H136968   3.750   0.545   3.399 -1.3480 -1.3448 -1.1239
 5159TIP3    H236969   3.861   0.442   3.393 -2.0059 -2.0463 -1.4578
 5160TIP3   OH236970   5.786   5.163   2.603 -0.2601  0.3060  0.4587
 5160TIP3    H136971   5.793   5.203   2.516 -0.6689  0.2554  0.3985
 5160TIP3    H236972   5.711   5.103   2.595 -1.1356  1.2665  1.2203
 5161TIP3   OH236973   6.076   2.784  17.013 -0.0661 -0.2904 -0.3333
 5161TIP3    H136974   6.011   2.840  16.972 -1.7704 -0.8104  1.5018
 5161TIP3    H236975   6.033   2.699  17.022  1.4404 -1.1131 -0.4717
 5162TIP3   OH236976   2.005   1.593   3.015  0.3042  0.3266 -0.0281
 5162TIP3    H136977   1.985   1.624   2.926  0.7566  1.0691  0.1237
 5162TIP3    H236978   1.938   1.634   3.070  0.0966 -0.0377 -0.0084
 5163TIP3   OH236979   0.172   1.371   3.677  0.0970 -0.6819 -0.8032
 5163TIP3    H136980   0.122   1.313   3.735 -3.4405  3.3761  0.7485
 5163TIP3    H236981   0.122   1.372   3.595 -0.1972  0.4134 -0.6336
 5164TIP3   OH236982   5.072   1.135  15.753  0.0899  0.5090  0.1160
 5164TIP3    H136983   5.094   1.163  15.664 -0.2520 -2.0269 -0.8581
 5164TIP3    H236984   5.141   1.073  15.775 -0.1923  0.6329  1.3947
 5165TIP3   OH236985   4.855   3.652   0.280 -0.3322 -0.0732  0.2906
 5165TIP3    H136986   4.919   3.687   0.342 -0.8816  1.5643 -0.0350
 5165TIP3    H236987   4.792   3.723   0.267 -0.6228 -0.6227 -1.6042
 5166TIP3   OH236988   3.997   6.392   5.258 -0.2837  0.1009  0.5193
 5166TIP3    H136989   4.065   6.424   5.199 -1.0479 -0.8606 -0.9692
 5166TIP3    H236990   4.040   6.380   5.342  0.7470  1.9381  0.2799
 5167TIP3   OH236991   3.155   1.418   2.997 -0.1864  0.1324  0.2548
 5167TIP3    H136992   3.167   1.486   3.064  1.4084 -0.0586  0.2139
 5167TIP3    H236993   3.229   1.359   3.010 -1.2870 -1.3555 -0.0254
 5168TIP3   OH236994   0.294   2.944  13.032  0.1878 -0.3040 -0.2940
 5168TIP3    H136995   0.235   2.938  13.107 -2.4255 -0.2857 -2.2060
 5168TIP3    H236996   0.350   3.019  13.051  1.2543 -1.6851  2.6172
 5169TIP3   OH236997   0.765   3.979   2.791 -0.5177 -0.2462  0.1206
 5169TIP3    H136998   0.829   3.984   2.720  0.0148 -0.0538  0.6019
 5169TIP3    H236999   0.817   3.995   2.870 -0.7630 -2.0890  0.7149
 5170TIP3   OH237000   3.025   6.805   1.381 -0.0741 -0.4530  0.5814
 5170TIP3    H137001   3.066   6.728   1.341  1.6370 -1.0283  3.2061
 5170TIP3    H237002   2.936   6.778   1.401  0.3440 -1.5768  0.9865
 5171TIP3   OH237003   1.668   3.940  16.458  0.4752 -0.2022  0.1368
 5171TIP3    H137004   1.667   3.971  16.548  1.9955  1.1081 -0.2562
 5171TIP3    H237005   1.583   3.965  16.423  0.3780  0.4867  0.8352
 5172TIP3   OH237006   4.408   0.580   0.619 -0.0592 -0.3752  0.1525
 5172TIP3    H137007   4.490   0.551   0.659  0.7254 -0.5413 -1.5110
 5172TIP3    H237008   4.422   0.673   0.600 -0.4336 -0.2970  0.2416
 5173TIP3   OH237009   1.583   5.885  14.045  0.3676 -0.0774 -0.0377
 5173TIP3    H137010   1.507   5.940  14.023  0.5050  0.8111  1.5480
 5173TIP3    H237011   1.657   5.929  14.005  0.1978 -0.3560 -0.6735
 5174TIP3   OH237012   2.590   4.207   4.733  0.3349 -0.0431 -0.1558
 5174TIP3    H137013   2.658   4.189   4.668  0.5962 -0.7122  0.2897
 5174TIP3    H237014   2.604   4.298   4.757  0.4973  0.0910 -0.7294
 5175TIP3   OH237015   5.104   6.654  15.393 -0.0682  0.4849 -0.6567
 5175TIP3    H137016   5.180   6.668  15.448  0.0587 -0.7916 -0.4657
 5175TIP3    H237017   5.080   6.741  15.361  1.1098  0.9682 -0.2571
 5176TIP3   OH237018   3.203   6.374  16.047  0.0325  0.2034 -0.0619
 5176TIP3    H137019   3.116   6.408  16.067 -0.0728 -0.6706  1.0529
 5176TIP3    H237020   3.233   6.333  16.128 -0.1347 -2.9474 -1.4346
 5177TIP3   OH237021   2.242   6.126  13.201 -0.2464 -0.0641  0.8884
 5177TIP3    H137022   2.281   6.211  13.224  1.3069 -0.3919 -0.3320
 5177TIP3    H237023   2.154   6.147  13.173 -0.7757  0.8159  2.9922
 5178TIP3   OH237024   6.177   2.529  16.758 -0.1784  0.2922 -0.4487
 5178TIP3    H137025   6.270   2.531  16.782 -0.0009 -1.2289 -0.9233
 5178TIP3    H237026   6.168   2.599  16.694  0.3858  1.1958  0.4195
 5179TIP3   OH237027   1.858   2.595  12.019 -0.3788  0.5073  0.5863
 5179TIP3    H137028   1.933   2.655  12.019 -0.2286  0.3273  0.2840
 5179TIP3    H237029   1.849   2.568  12.110  0.9901 -0.7556  0.3857
 5180TIP3   OH237030   3.136   0.417   2.586 -0.0845 -0.0763 -0.4416
 5180TIP3    H137031   3.155   0.326   2.610  1.3755  0.6219  1.2398
 5180TIP3    H237032   3.198   0.437   2.516 -0.6613 -0.4677 -1.0764
 5181TIP3   OH237033   0.405   1.459  13.432  0.4613  0.2061  0.3834
 5181TIP3    H137034   0.442   1.547  13.436 -1.1826  0.9156  1.1279
 5181TIP3    H237035   0.372   1.443  13.521  0.4913 -1.0455  0.1772
 5182TIP3   OH237036   0.244   3.950  13.842  0.0676 -0.4625 -0.6580
 5182TIP3    H137037   0.228   3.881  13.778 -1.8918 -0.0494 -0.6827
 5182TIP3    H237038   0.262   3.904  13.924 -0.4918 -1.0077 -0.8367
 5183TIP3   OH237039   0.536   0.728  14.790 -0.8284  0.3401 -0.0902
 5183TIP3    H137040   0.462   0.703  14.734 -0.4796  2.8929 -1.8451
 5183TIP3    H237041   0.535   0.823  14.791  2.8190  0.5334 -0.7110
 5184TIP3   OH237042   2.390   4.546  11.762  0.1992  0.4011 -0.0525
 5184TIP3    H137043   2.371   4.526  11.854  0.5741 -0.4810 -0.1556
 5184TIP3    H237044   2.481   4.519  11.749  0.8988  2.5632 -0.1365
 5185TIP3   OH237045   6.557   4.251  11.569  0.0321 -0.0770 -0.5498
 5185TIP3    H137046   6.579   4.186  11.501  0.1652  0.2645 -0.8359
 5185TIP3    H237047   6.588   4.334  11.533  0.9413 -0.0145  0.3152
 5186TIP3   OH237048   0.037   1.348  11.333 -0.0308  0.1840 -0.1045
 5186TIP3    H137049   0.037   1.436  11.372  2.4126 -0.1985  0.9759
 5186TIP3    H237050   0.028   1.364  11.239 -4.7891  1.2085  0.2967
 5187TIP3   OH237051   5.894   6.752   3.721  0.0178 -0.5126 -0.1882
 5187TIP3    H137052   5.817   6.696   3.715  0.5720 -1.1428 -3.3028
 5187TIP3    H237053   5.967   6.693   3.739  0.1888 -0.3905 -0.4578
 5188TIP3   OH237054   1.764   5.382  14.118  0.1970 -0.3905  0.0365
 5188TIP3    H137055   1.789   5.334  14.039  0.0901  2.0635 -1.6354
 5188TIP3    H237056   1.764   5.474  14.090 -0.6647  0.5150  2.7128
 5189TIP3   OH237057   5.026   1.920  11.042 -0.2612 -0.1171 -0.3184
 5189TIP3    H137058   4.934   1.944  11.038 -0.2216 -0.0151 -0.6758
 5189TIP3    H237059   5.031   1.855  11.112 -0.2227  1.4946  1.2270
 5190TIP3   OH237060   6.356   2.548   0.678 -0.2220  0.3788  0.2416
 5190TIP3    H137061   6.352   2.544   0.773 -1.8801  0.5794  0.2113
 5190TIP3    H237062   6.359   2.642   0.658 -1.4576  0.4024  0.0839
 5191TIP3   OH237063   4.709   6.414   4.291 -0.1583 -0.0012 -0.1446
 5191TIP3    H137064   4.793   6.397   4.335 -0.1800  1.4898  0.5385
 5191TIP3    H237065   4.677   6.328   4.267  1.7666 -0.5977 -0.7873
 5192TIP3   OH237066   0.746   0.309  13.413  0.0625  0.5715  0.1921
 5192TIP3    H137067   0.747   0.405  13.411  0.6050  0.5712 -2.1062
 5192TIP3    H237068   0.838   0.284  13.422  0.1240  0.2933 -1.0311
 5193TIP3   OH237069   0.658   5.293  14.258 -0.1733  0.1235 -0.4447
 5193TIP3    H137070   0.750   5.312  14.243 -0.0684  1.6798  1.7650
 5193TIP3    H237071   0.658   5.216  14.316 -0.2494  0.3039 -0.2036
 5194TIP3   OH237072   1.514   6.148  12.988 -0.1639  0.5446 -0.8477
 5194TIP3    H137073   1.456   6.138  13.064 -1.3142  0.7572 -1.6813
 5194TIP3    H237074   1.557   6.063  12.981 -0.4977  0.3233 -0.3301
 5195TIP3   OH237075   4.070   5.926   4.355 -0.1562 -0.0573  0.2074
 5195TIP3    H137076   3.993   5.982   4.340  0.5584  0.7932 -0.3945
 5195TIP3    H237077   4.034   5.845   4.390 -1.2047  0.9413  1.5919
 5196TIP3   OH237078   1.126   4.124  16.533  0.2868 -0.4532 -0.2807
 5196TIP3    H137079   1.214   4.161  16.522 -0.3581  0.8949 -1.1312
 5196TIP3    H237080   1.082   4.141  16.450 -1.0602 -0.3065  0.4248
 5197TIP3   OH237081   1.507   6.218  12.687  0.0757  0.1296 -0.2055
 5197TIP3    H137082   1.484   6.215  12.779  0.0169  0.5929 -0.2023
 5197TIP3    H237083   1.443   6.161  12.644  1.3747 -1.7907  0.2761
 5198TIP3   OH237084   2.000   5.683   0.316  0.3356 -0.9162  0.6477
 5198TIP3    H137085   1.953   5.614   0.270 -0.2059 -1.8350  2.4992
 5198TIP3    H237086   1.931   5.742   0.347  0.8311  1.2511 -1.9504
 5199TIP3   OH237087   2.261   1.703   0.238 -0.6283  0.1841  0.2391
 5199TIP3    H137088   2.352   1.673   0.235 -0.6523  0.1965 -0.7168
 5199TIP3    H237089   2.267   1.798   0.246 -0.5584  0.2374 -0.4475
 5200TIP3   OH237090   2.954   5.585   3.807 -0.2863 -0.0689 -0.4612
 5200TIP3    H137091   3.014   5.553   3.875  0.6905  1.5604 -0.4815
 5200TIP3    H237092   2.868   5.557   3.836  0.3783 -1.7412  0.0292
 5201TIP3   OH237093   0.799   3.195   4.387 -0.3439  0.6221  0.2012
 5201TIP3    H137094   0.811   3.176   4.480  0.1495  0.6860  0.1535
 5201TIP3    H237095   0.848   3.127   4.341 -2.5818 -0.9043 -0.0971
 5202TIP3   OH237096   3.726   5.948  11.750 -0.3518 -0.1709 -0.0252
 5202TIP3    H137097   3.658   5.999  11.706 -0.4863 -1.2023 -1.0407
 5202TIP3    H237098   3.684   5.917  11.830 -0.9839 -0.5067 -0.4727
 5203TIP3   OH237099   3.269   0.644  10.421  0.1531 -0.4917  0.1266
 5203TIP3    H137100   3.174   0.632  10.419 -0.5036  3.5766 -1.1764
 5203TIP3    H237101   3.287   0.686  10.505  0.2801  1.5173 -0.8540
 5204TIP3   OH237102   5.101   0.774  17.020 -0.8356  1.0210  0.4973
 5204TIP3    H137103   5.180   0.828  17.033  0.3046 -0.8854  1.9083
 5204TIP3    H237104   5.110   0.741  16.930  1.4222 -1.2229  1.4149
 5205TIP3   OH237105   2.114   2.686  17.079 -0.0049 -0.1999 -0.4085
 5205TIP3    H137106   2.059   2.646  17.012  1.2637 -1.3512 -0.7974
 5205TIP3    H237107   2.183   2.730  17.031  0.3585 -0.1862  0.1161
 5206TIP3   OH237108   4.991   0.126  15.741 -0.4026 -0.0624 -0.0497
 5206TIP3    H137109   5.023   0.087  15.822  1.7032 -0.6077 -1.0592
 5206TIP3    H237110   4.933   0.060  15.703  2.4155 -2.0137 -1.2952
 5207TIP3   OH237111   0.078   0.815  13.807  0.6264 -0.7982 -0.6809
 5207TIP3    H137112   0.126   0.735  13.829  0.6340 -0.3630  1.0237
 5207TIP3    H237113   0.146   0.880  13.793  0.5836 -0.5749  0.1120
 5208TIP3   OH237114   2.830   5.069   4.167  0.2586 -0.1667 -0.0096
 5208TIP3    H137115   2.899   5.015   4.129 -0.9827 -1.7698 -0.0860
 5208TIP3    H237116   2.825   5.042   4.258  0.4772  0.7581  0.2928
 5209TIP3   OH237117   0.415   6.612  12.917  0.0867 -0.0688 -0.3458
 5209TIP3    H137118   0.352   6.684  12.923  1.1015  0.8646 -0.5715
 5209TIP3    H237119   0.450   6.619  12.828  0.2616 -0.7896 -0.3335
 5210TIP3   OH237120   4.259   2.896   5.757  0.3074 -0.6787 -0.3707
 5210TIP3    H137121   4.212   2.978   5.741  1.0314 -0.3617 -0.9528
 5210TIP3    H237122   4.243   2.877   5.849  1.2571  0.8684  0.1518
 5211TIP3   OH237123   0.988   1.579  13.587  0.4877  0.5722 -0.5977
 5211TIP3    H137124   1.080   1.599  13.605  0.6782 -2.0480  2.2310
 5211TIP3    H237125   0.990   1.489  13.553 -1.0798 -0.6235  2.1496
 5212TIP3   OH237126   5.939   1.068  13.390 -0.2808  0.0157  0.2984
 5212TIP3    H137127   5.917   1.161  13.398 -0.1640  0.0183  0.6066
 5212TIP3    H237128   5.903   1.042  13.305 -0.0116  0.4288  0.0539
 5213TIP3   OH237129   1.100   3.340  13.653 -0.1164 -0.1856 -0.0131
 5213TIP3    H137130   1.042   3.266  13.636  1.7295 -1.5363 -0.8541
 5213TIP3    H237131   1.183   3.299  13.678  0.1053  1.6757  2.6809
 5214TIP3   OH237132   0.784   0.706   4.574  0.4378  0.4059 -0.1897
 5214TIP3    H137133   0.691   0.717   4.553  0.1727 -1.3708 -0.0249
 5214TIP3    H237134   0.786   0.641   4.643  1.9614 -2.1053 -2.4207
 5215TIP3   OH237135   5.089   4.878  15.696 -0.1736  0.1924  0.3819
 5215TIP3    H137136   5.059   4.920  15.616 -1.0349  0.0837  0.6352
 5215TIP3    H237137   5.144   4.805  15.666  2.1898  2.0282 -0.0591
 5216TIP3   OH237138   1.193   6.512  15.380  0.1423 -0.3311  0.3083
 5216TIP3    H137139   1.209   6.457  15.303  0.2855 -1.1260  0.9009
 5216TIP3    H237140   1.210   6.455  15.455 -1.2205  0.0518  0.9504
 5217TIP3   OH237141   1.209   4.163  13.607  0.5668  0.6924 -0.6107
 5217TIP3    H137142   1.197   4.140  13.700  2.6703 -1.5387 -0.7899
 5217TIP3    H237143   1.150   4.103  13.561 -0.7648  2.0577 -0.7823
 5218TIP3   OH237144   4.099   2.011   3.259  0.0238  0.8135  0.3147
 5218TIP3    H137145   4.188   2.046   3.250  0.5910 -0.2589  1.4270
 5218TIP3    H237146   4.064   2.013   3.170  0.9888  1.6799 -0.0696
 5219TIP3   OH237147   3.911   3.315  16.580 -0.2133  0.3172  0.5465
 5219TIP3    H137148   3.879   3.237  16.625  0.1601  0.0207  0.3078
 5219TIP3    H237149   3.984   3.283  16.526 -1.4741  0.4121 -1.2949
 5220TIP3   OH237150   2.336   6.415   4.118 -0.4438  0.0599 -0.0507
 5220TIP3    H137151   2.279   6.339   4.108 -2.1870  1.5111 -2.1831
 5220TIP3    H237152   2.404   6.403   4.052 -1.7404  1.1034 -1.6643
 5221TIP3   OH237153   6.527   0.152   5.271  0.2690  0.0798 -0.1598
 5221TIP3    H137154   6.456   0.122   5.215  0.0733 -4.0424  1.8664
 5221TIP3    H237155   6.583   0.075   5.282  3.7178  2.4252  0.3880
 5222TIP3   OH237156   2.608   1.713   3.767  0.2656 -0.8522  0.3647
 5222TIP3    H137157   2.702   1.731   3.756  0.1793 -0.8682 -0.4833
 5222TIP3    H237158   2.597   1.624   3.734 -0.3376 -0.2237 -1.1968
 5223TIP3   OH237159   3.055   1.312   3.526 -0.1977 -0.5063  0.2348
 5223TIP3    H137160   3.090   1.282   3.442  1.2530  0.7180  0.3619
 5223TIP3    H237161   3.063   1.236   3.584 -2.2757 -1.7296 -0.9813
 5224TIP3   OH237162   3.338   6.801   2.975 -0.0164 -0.2578 -0.0259
 5224TIP3    H137163   3.355   6.893   2.995 -0.0925 -0.3995  0.7266
 5224TIP3    H237164   3.252   6.800   2.934  0.3995  0.1084 -0.9321
 5225TIP3   OH237165   3.830   1.667   0.202  0.2317  0.2391  0.0303
 5225TIP3    H137166   3.926   1.666   0.201  0.4375  2.5224  2.9083
 5225TIP3    H237167   3.807   1.616   0.280 -1.0121 -0.8972 -1.0194
 5226TIP3   OH237168   5.130   0.210   3.801 -0.3067 -0.0674  0.5001
 5226TIP3    H137169   5.175   0.192   3.884 -1.0182 -1.9083  0.5441
 5226TIP3    H237170   5.037   0.205   3.822 -0.5073 -1.1988 -0.4795
 5227TIP3   OH237171   5.430   5.429  16.177 -0.1426  0.3407 -0.2910
 5227TIP3    H137172   5.505   5.372  16.194 -0.9331 -0.7475 -0.3491
 5227TIP3    H237173   5.412   5.470  16.262 -0.4798 -0.6517  0.1381
 5228TIP3   OH237174   1.178   0.053   2.875 -0.0526  0.2082 -0.1486
 5228TIP3    H137175   1.239   0.055   2.948  0.4231 -0.5877 -0.5127
 5228TIP3    H237176   1.152  -0.039   2.869 -1.5600  0.5788  0.2199
 5229TIP3   OH237177   1.003   2.094   1.023  0.2279 -0.0961  0.3781
 5229TIP3    H137178   1.027   2.008   1.057 -0.6526 -0.1847  0.8100
 5229TIP3    H237179   0.993   2.081   0.929  0.6833 -0.3215  0.3574
 5230TIP3   OH237180   1.412   5.577   2.187 -0.0181  0.2415 -0.5797
 5230TIP3    H137181   1.425   5.575   2.092 -2.9959 -0.4263 -1.0765
 5230TIP3    H237182   1.381   5.666   2.205  0.2772  0.2825 -0.2677
 5231TIP3   OH237183   0.853   5.928  12.742 -0.3375 -0.2054 -0.7989
 5231TIP3    H137184   0.771   5.914  12.789  0.7690  1.3228  1.7566
 5231TIP3    H237185   0.835   6.000  12.681 -1.1629 -0.6650 -1.1118
 5232TIP3   OH237186   5.361   3.199  10.824 -0.3460 -0.0943 -0.5732
 5232TIP3    H137187   5.301   3.143  10.775 -0.2276  0.9498 -1.9825
 5232TIP3    H237188   5.361   3.282  10.776  0.3103  0.7626  0.8318
 5233TIP3   OH237189   3.880   5.589  12.441  0.0576 -0.0729  0.3238
 5233TIP3    H137190   3.786   5.571  12.438 -0.0905  0.4923  1.2052
 5233TIP3    H237191   3.887   5.674  12.484  1.0070 -0.3556  0.7634
 5234TIP3   OH237192   6.040   3.280   4.255 -0.1623  0.0879 -0.1153
 5234TIP3    H137193   6.002   3.195   4.233  2.7251 -1.2015 -0.5942
 5234TIP3    H237194   6.053   3.277   4.350  0.7490 -0.4153 -0.2434
 5235TIP3   OH237195   0.426   1.895  11.511 -0.4381  0.0679 -0.8101
 5235TIP3    H137196   0.505   1.908  11.565 -0.6975 -0.1976 -0.3615
 5235TIP3    H237197   0.456   1.843  11.436 -0.4781 -1.3603  0.1288
 5236TIP3   OH237198   6.224   2.907  13.116  0.0445  0.2589 -0.4917
 5236TIP3    H137199   6.195   2.943  13.200 -0.7185 -0.1032 -0.5900
 5236TIP3    H237200   6.143   2.880  13.072  0.5424 -0.9569 -0.7018
 5237TIP3   OH237201   4.360   2.810   0.356  0.0411  0.4890 -0.1419
 5237TIP3    H137202   4.343   2.880   0.293  0.4454 -0.2652 -1.1128
 5237TIP3    H237203   4.449   2.781   0.336 -0.4926 -0.9881 -0.4446
 5238TIP3   OH237204   2.889   0.867  11.450  0.3788  0.0600 -0.1565
 5238TIP3    H137205   2.980   0.851  11.476  0.5220 -0.0073 -0.6869
 5238TIP3    H237206   2.878   0.818  11.368 -0.3785 -0.5915  0.3239
 5239TIP3   OH237207   6.740   4.194   5.081 -0.3206  0.0865 -0.2065
 5239TIP3    H137208   6.653   4.200   5.041 -0.9847 -2.2240  0.7305
 5239TIP3    H237209   6.771   4.106   5.057  1.8356  0.9061 -0.6224
 5240TIP3   OH237210   2.934   2.661  13.049 -0.3785  0.1814  0.0374
 5240TIP3    H137211   2.954   2.726  12.981 -0.0627 -0.2208 -0.2576
 5240TIP3    H237212   3.014   2.610  13.058 -0.9908 -0.9253 -0.5721
 5241TIP3   OH237213   1.484   1.494   2.627 -0.4810 -0.3861 -0.0713
 5241TIP3    H137214   1.431   1.566   2.591  2.0818  2.5601  1.5811
 5241TIP3    H237215   1.446   1.478   2.713 -0.3613 -0.2442  0.0068
 5242TIP3   OH237216   0.996   5.898   3.109  0.4187  0.5183 -0.4450
 5242TIP3    H137217   1.031   5.930   3.193  0.5120  2.2965 -1.1193
 5242TIP3    H237218   0.977   5.978   3.059 -1.6956 -0.4612 -1.3020
 5243TIP3   OH237219   5.958   1.400   0.897 -0.1362  0.0632 -0.3186
 5243TIP3    H137220   5.871   1.364   0.880 -0.5424  0.8550  0.0280
 5243TIP3    H237221   5.983   1.363   0.981  0.3492 -1.0534 -0.9488
 5244TIP3   OH237222   0.542   5.830  16.380  0.6039  0.4165  0.3277
 5244TIP3    H137223   0.540   5.743  16.420  0.6995 -0.0627 -0.6758
 5244TIP3    H237224   0.461   5.835  16.329  2.0210 -0.3934 -2.2041
 5245TIP3   OH237225   0.635   3.473   4.849 -0.3718 -0.0707 -0.4355
 5245TIP3    H137226   0.660   3.531   4.777 -2.5096 -0.2880 -1.4407
 5245TIP3    H237227   0.547   3.443   4.825 -0.9790 -0.4690  2.0800
 5246TIP3   OH237228   5.483   5.599   5.017  0.0240 -0.2149 -0.0919
 5246TIP3    H137229   5.400   5.644   5.001  1.3670  2.2608 -0.5977
 5246TIP3    H237230   5.494   5.604   5.112  1.0550  2.4845 -0.2512
 5247TIP3   OH237231   4.721   1.495   0.135 -0.2734 -0.5844 -0.8921
 5247TIP3    H137232   4.728   1.570   0.075  1.0200  0.3867  0.3944
 5247TIP3    H237233   4.812   1.468   0.149 -0.0942  1.3641  3.1400
 5248TIP3   OH237234   0.042   5.086  11.372 -0.2543  0.7336 -0.2254
 5248TIP3    H137235  -0.043   5.075  11.329 -0.4098 -0.1289  0.2733
 5248TIP3    H237236   0.075   5.170  11.341 -1.0159  0.7862 -0.8974
 5249TIP3   OH237237   0.961   3.560  13.996 -0.0201  0.0480 -0.0879
 5249TIP3    H137238   0.948   3.485  13.937  0.9510  0.8778 -1.4320
 5249TIP3    H237239   1.056   3.562  14.011 -0.2357 -0.0015  1.3349
 5250TIP3   OH237240   0.160   5.334   3.948 -0.7287  0.3532  0.0990
 5250TIP3    H137241   0.220   5.400   3.912 -0.8550 -0.0699 -0.9134
 5250TIP3    H237242   0.202   5.250   3.928 -1.1605  0.0846  0.3139
 5251TIP3   OH237243   0.718   3.429   0.099  0.6160  0.3986 -0.1211
 5251TIP3    H137244   0.680   3.485   0.031 -1.5284 -0.3900  0.3703
 5251TIP3    H237245   0.688   3.341   0.077 -0.9584  0.2335  2.3214
 5252TIP3   OH237246   2.456   2.756  15.780 -0.1615 -0.3274  0.3197
 5252TIP3    H137247   2.361   2.756  15.772 -0.1606 -1.6454  0.1429
 5252TIP3    H237248   2.487   2.778  15.692 -0.2684  2.7688  0.9249
 5253TIP3   OH237249   1.905   6.302  16.648  0.5141 -0.1925 -0.7725
 5253TIP3    H137250   1.961   6.244  16.700  0.3462 -0.1351 -0.5299
 5253TIP3    H237251   1.883   6.374  16.706 -0.7077 -0.7497 -0.4989
 5254TIP3   OH237252   4.472   2.325   5.203 -0.0150  0.0774  0.1065
 5254TIP3    H137253   4.488   2.321   5.297 -0.0318 -4.4729  0.1207
 5254TIP3    H237254   4.378   2.309   5.194  0.3784 -2.1132 -0.6519
 5255TIP3   OH237255   5.904   3.261  15.134  0.2572 -0.4229 -0.5348
 5255TIP3    H137256   5.911   3.249  15.039 -0.9409  1.8788 -0.9855
 5255TIP3    H237257   5.904   3.356  15.146  2.0962 -0.6312  1.9654
 5256TIP3   OH237258   2.805   3.668  16.752  0.1301  0.4876 -0.3244
 5256TIP3    H137259   2.835   3.661  16.662 -1.4752 -1.0471 -0.8096
 5256TIP3    H237260   2.861   3.608  16.801  0.6244  0.8858 -0.3925
 5257TIP3   OH237261   4.523   4.575  16.769 -0.5904  0.0539  0.4306
 5257TIP3    H137262   4.588   4.505  16.777  0.3543  0.9872  1.1761
 5257TIP3    H237263   4.530   4.623  16.851 -0.4943  1.6314 -0.4613
 5258TIP3   OH237264   5.530   0.707   4.061 -0.2808  0.0227  0.0290
 5258TIP3    H137265   5.595   0.661   4.008  0.3831  0.3505  0.5566
 5258TIP3    H237266   5.512   0.787   4.012 -0.1301  0.0358 -0.0053
 5259TIP3   OH237267   4.634   6.800   3.067 -0.2748  0.6044  0.1054
 5259TIP3    H137268   4.550   6.826   3.031 -0.8191  0.7942  1.4471
 5259TIP3    H237269   4.613   6.761   3.152  0.4348 -4.5583 -1.7269
 5260TIP3   OH237270   6.629   4.287  14.475  0.5743  0.6982  0.2330
 5260TIP3    H137271   6.633   4.346  14.400 -2.5296  0.6627 -0.0859
 5260TIP3    H237272   6.716   4.247  14.479  0.5717 -0.2086 -4.1085
 5261TIP3   OH237273   0.600   0.011  14.769 -0.3642 -0.5243 -0.4057
 5261TIP3    H137274   0.670  -0.046  14.801  0.6307  0.7938 -0.1259
 5261TIP3    H237275   0.627   0.034  14.681 -0.2357  0.2835 -0.1656
 5262TIP3   OH237276   3.095   5.885   6.372 -0.0559 -0.8041  0.1054
 5262TIP3    H137277   3.074   5.875   6.280  0.6178 -1.1682 -0.0094
 5262TIP3    H237278   3.138   5.970   6.378 -0.8513 -0.3931  0.2279
 5263TIP3   OH237279   4.084   3.111  16.206  0.2420  0.0260 -0.2214
 5263TIP3    H137280   4.051   3.076  16.289 -2.7418  0.3408 -1.1853
 5263TIP3    H237281   4.147   3.179  16.233  0.2570 -0.7107  1.7412
 5264TIP3   OH237282   4.162   0.208   0.355  0.1679 -0.1240  0.3599
 5264TIP3    H137283   4.248   0.166   0.356  0.0481 -0.3660  0.7836
 5264TIP3    H237284   4.157   0.255   0.438  0.3444  0.8336 -0.1592
 5265TIP3   OH237285   4.010   5.837  12.521  0.2712  0.2889  0.1168
 5265TIP3    H137286   3.946   5.880  12.578  0.4274  0.5015  0.1332
 5265TIP3    H237287   3.967   5.833  12.435  0.5488  1.1760 -0.0729
 5266TIP3   OH237288   1.126   2.594  14.035 -0.3187 -0.5771 -0.2513
 5266TIP3    H137289   1.063   2.640  14.090 -0.4613  0.3098 -1.1153
 5266TIP3    H237290   1.099   2.502  14.038  0.9070 -0.9534  2.7888
 5267TIP3   OH237291   6.736   2.567   2.776 -0.2004  0.2963 -0.2761
 5267TIP3    H137292   6.781   2.580   2.693  0.1577  0.0998 -0.1152
 5267TIP3    H237293   6.806   2.559   2.841 -0.3632 -2.3141 -0.3257
 5268TIP3   OH237294   4.039   0.632  16.902  0.3938  0.5355  0.1474
 5268TIP3    H137295   4.105   0.696  16.925 -0.0306  0.5206  1.5547
 5268TIP3    H237296   4.057   0.557  16.959 -0.0242 -0.0003 -0.4017
 5269TIP3   OH237297   2.995   2.696   3.868 -0.2495 -0.0866 -0.1969
 5269TIP3    H137298   2.946   2.638   3.926 -0.3589  1.7229  1.6255
 5269TIP3    H237299   3.086   2.689   3.899 -0.2299  0.5336 -0.1092
 5270TIP3   OH237300   5.689   1.667  13.038  0.1355  0.1219 -0.3427
 5270TIP3    H137301   5.596   1.679  13.057  0.1909 -0.1876  0.1417
 5270TIP3    H237302   5.692   1.646  12.944 -0.0172  3.1710 -1.1366
 5271TIP3   OH237303   5.204   4.600   4.216  0.2654  0.0066  0.2198
 5271TIP3    H137304   5.154   4.634   4.290  1.4398 -1.0240  1.5395
 5271TIP3    H237305   5.169   4.513   4.201 -0.8010  0.6587 -1.2828
 5272TIP3   OH237306   3.896   5.266  16.609  0.1851  0.1468  0.7622
 5272TIP3    H137307   3.890   5.229  16.521  0.2755 -1.6075  1.4479
 5272TIP3    H237308   3.854   5.352  16.602 -3.3173 -1.4629 -0.1867
 5273TIP3   OH237309   5.625   4.041   0.347  0.5117  0.6031  0.1209
 5273TIP3    H137310   5.542   4.081   0.374  0.3054 -0.1696  0.6866
 5273TIP3    H237311   5.615   4.023   0.254 -0.5596 -0.8380  0.4718
 5274TIP3   OH237312   5.548   0.440   0.281  0.6349 -0.5866  0.0965
 5274TIP3    H137313   5.547   0.423   0.375  0.4132 -2.4289 -0.2031
 5274TIP3    H237314   5.517   0.359   0.242 -0.0776  0.4281 -1.5462
 5275TIP3   OH237315   3.807   1.786   2.590 -0.5205  0.0762 -0.4214
 5275TIP3    H137316   3.730   1.729   2.592 -0.8268  0.4314 -1.3417
 5275TIP3    H237317   3.830   1.791   2.497  0.4816  0.1594 -0.1786
 5276TIP3   OH237318   5.938   1.853   1.018 -0.0017 -0.4535 -0.1489
 5276TIP3    H137319   6.023   1.827   1.054  0.5192  0.4215 -0.7020
 5276TIP3    H237320   5.958   1.930   0.964 -1.1729 -0.1457 -0.1599
 5277TIP3   OH237321   4.684   6.709  10.814 -0.0093 -0.6385 -0.3763
 5277TIP3    H137322   4.638   6.774  10.867 -0.7204 -0.8625 -0.7041
 5277TIP3    H237323   4.739   6.662  10.876 -1.3662 -1.3720  0.3022
 5278TIP3   OH237324   6.209   2.362  12.139  0.2287  0.4176 -0.2662
 5278TIP3    H137325   6.299   2.378  12.168 -0.3690  1.2685  1.2435
 5278TIP3    H237326   6.217   2.293  12.073  1.9187 -0.0310  0.3500
 5279TIP3   OH237327   0.393   4.721  17.075  0.1774  0.7130 -0.3026
 5279TIP3    H137328   0.375   4.810  17.105 -0.4668  0.7797 -0.8768
 5279TIP3    H237329   0.311   4.692  17.036  0.0564 -0.5104  0.7843
 5280TIP3   OH237330   4.982   6.759  13.012  0.0564 -0.0269 -0.3961
 5280TIP3    H137331   5.031   6.841  13.014  1.8484 -0.9951 -1.6156
 5280TIP3    H237332   4.986   6.731  12.921 -1.2495 -1.0700 -0.1706
 5281TIP3   OH237333   5.240   4.682  15.558 -0.2010  0.0651  0.6994
 5281TIP3    H137334   5.238   4.761  15.503 -2.1891  0.2474  0.9672
 5281TIP3    H237335   5.185   4.619  15.512 -2.5698  0.4828  2.7671
 5282TIP3   OH237336   5.830   6.568   2.173  0.0927  0.7448  0.0210
 5282TIP3    H137337   5.806   6.484   2.133  1.3433  0.5317 -0.3501
 5282TIP3    H237338   5.925   6.573   2.160  0.0668  2.1042  0.2672
 5283TIP3   OH237339   2.005   5.934  12.233  0.0933 -0.1047  0.2547
 5283TIP3    H137340   2.062   5.977  12.296 -1.1453  1.7602  0.1583
 5283TIP3    H237341   2.056   5.934  12.151  0.6307 -0.0773  0.5830
 5284TIP3   OH237342   5.752   5.707  13.766  0.0145 -0.1801  0.6750
 5284TIP3    H137343   5.766   5.801  13.770  1.2568 -0.3247  0.1553
 5284TIP3    H237344   5.761   5.677  13.857  2.0904 -0.1024  0.5277
 5285TIP3   OH237345   0.489   0.549  11.786 -0.6070  0.1873 -0.1785
 5285TIP3    H137346   0.516   0.561  11.695 -0.2107 -2.2121 -0.4538
 5285TIP3    H237347   0.571   0.553  11.835 -0.5116 -0.7625 -0.2366
 5286TIP3   OH237348   2.199   6.127   5.172 -0.1135  0.4147  0.2636
 5286TIP3    H137349   2.144   6.049   5.183  0.6972 -0.3147 -0.6028
 5286TIP3    H237350   2.144   6.188   5.122 -0.6696  0.3063  0.7296
 5287TIP3   OH237351   4.672   5.917   5.248  0.3233 -0.0501  0.6323
 5287TIP3    H137352   4.660   5.826   5.276 -0.7107 -0.0591  0.1877
 5287TIP3    H237353   4.614   5.968   5.305  2.4672  0.6265  2.3519
 5288TIP3   OH237354   2.529   5.411   0.101 -0.2350 -0.0107 -0.0613
 5288TIP3    H137355   2.571   5.471   0.163 -0.3333  0.5411 -0.5249
 5288TIP3    H237356   2.437   5.409   0.128  0.2950 -2.4457  1.9556
 5289TIP3   OH237357   6.212   6.259  12.718 -0.1727 -0.0663  0.0053
 5289TIP3    H137358   6.229   6.265  12.812 -0.4758 -0.9969  0.1254
 5289TIP3    H237359   6.184   6.169  12.704 -0.4979  0.1683 -0.9240
 5290TIP3   OH237360   4.717   3.982  12.106 -0.5170 -0.1433  0.5851
 5290TIP3    H137361   4.641   4.034  12.130 -1.3368  0.3572 -2.6433
 5290TIP3    H237362   4.749   4.021  12.025  3.2153 -0.3750  1.7336
 5291TIP3   OH237363   5.923   4.370   5.162  0.4671 -0.0383  0.2855
 5291TIP3    H137364   5.960   4.315   5.093  0.8019  1.4092 -0.7190
 5291TIP3    H237365   5.928   4.315   5.241  2.1250 -0.9303 -0.3841
 5292TIP3   OH237366   6.224   2.457  11.036 -0.3146 -0.2046  0.2774
 5292TIP3    H137367   6.230   2.469  10.941 -0.1665  1.0328  0.4298
 5292TIP3    H237368   6.149   2.511  11.063  0.4694  0.5398  1.0312
 5293TIP3   OH237369   2.166   1.670   2.605  0.0521 -0.1854  0.1045
 5293TIP3    H137370   2.239   1.714   2.560 -0.9318  1.5479  0.1198
 5293TIP3    H237371   2.124   1.618   2.536 -0.5829  1.3192 -0.6812
 5294TIP3   OH237372   2.624   6.643  12.994 -0.4656  0.3871  0.3228
 5294TIP3    H137373   2.561   6.699  12.950 -0.2946 -0.3220 -0.8591
 5294TIP3    H237374   2.580   6.559  13.003 -0.1963  0.2889  0.7871
 5295TIP3   OH237375   4.284   4.215  12.896 -0.0518 -0.3437  0.0549
 5295TIP3    H137376   4.272   4.247  12.807  1.1223 -1.9689 -0.7342
 5295TIP3    H237377   4.379   4.209  12.907 -0.1949 -1.0575  1.0589
 5296TIP3   OH237378   1.100   3.981  14.382 -0.1219  0.1926 -0.1709
 5296TIP3    H137379   1.128   4.056  14.329  3.0016  0.0679  1.1149
 5296TIP3    H237380   1.056   4.021  14.458  1.7703  0.8263  0.6493
 5297TIP3   OH237381   4.773   4.631   1.166 -0.8667 -0.1030 -0.4161
 5297TIP3    H137382   4.753   4.537   1.158 -1.2104 -0.2270  1.4993
 5297TIP3    H237383   4.687   4.673   1.165 -0.9745 -0.1398  2.0972
 5298TIP3   OH237384   1.110   4.858  13.311 -0.4211 -0.3750  0.2002
 5298TIP3    H137385   1.038   4.880  13.252  0.7320 -2.6661 -2.3018
 5298TIP3    H237386   1.067   4.821  13.389 -1.9696  1.3283  0.2109
 5299TIP3   OH237387   6.239   2.352   5.362  0.1621  0.3608  0.1119
 5299TIP3    H137388   6.222   2.301   5.441 -0.3707 -0.7846 -0.7196
 5299TIP3    H237389   6.152   2.378   5.331  0.3104 -0.0328 -0.6389
 5300TIP3   OH237390   3.949   6.426   6.671  0.0254  0.0347  0.1119
 5300TIP3    H137391   3.914   6.429   6.582 -0.9430 -0.4445  0.4662
 5300TIP3    H237392   4.044   6.425   6.659 -0.0811  0.6742 -0.8870
 5301TIP3   OH237393   4.370   1.683   0.486  0.2717  0.1080 -0.1402
 5301TIP3    H137394   4.461   1.711   0.479  0.6110 -1.0842 -0.7274
 5301TIP3    H237395   4.325   1.730   0.416  0.6404 -0.0734 -0.5037
 5302TIP3   OH237396   4.357   6.693   5.040  0.0369 -0.0547  0.2887
 5302TIP3    H137397   4.408   6.612   5.045  0.4978  0.1456 -0.8055
 5302TIP3    H237398   4.379   6.729   4.954  1.0059  2.0089  1.3342
 5303TIP3   OH237399   1.437   6.316   0.496 -0.1737 -0.1701  0.1677
 5303TIP3    H137400   1.416   6.248   0.432  0.1287 -0.5846  0.5076
 5303TIP3    H237401   1.527   6.341   0.476  0.1545 -0.7775  0.8539
 5304TIP3   OH237402   4.595   6.723   7.017 -0.2044 -0.5397 -0.2254
 5304TIP3    H137403   4.683   6.746   7.045 -0.3786  0.8648 -0.7758
 5304TIP3    H237404   4.591   6.628   7.027  1.5932 -0.7152 -0.8135
 5305TIP3   OH237405   0.036   2.392  11.885  0.1129  0.1577 -0.5854
 5305TIP3    H137406  -0.009   2.344  11.815  1.9394 -1.3985 -0.7833
 5305TIP3    H237407   0.118   2.344  11.898  0.7677  1.6353  1.2004
 5306TIP3   OH237408   3.803   5.913   1.833 -0.0460 -0.7141 -0.9848
 5306TIP3    H137409   3.832   6.000   1.804 -0.5522  0.8316  2.5911
 5306TIP3    H237410   3.714   5.928   1.866 -0.6153 -2.9016 -1.4002
 5307TIP3   OH237411   0.490   2.155   2.001  0.2155 -0.3177 -0.3689
 5307TIP3    H137412   0.521   2.193   1.919 -2.0551  1.1637 -0.6444
 5307TIP3    H237413   0.417   2.099   1.976 -0.1661 -0.2660  0.5665
 5308TIP3   OH237414   2.805   4.616   0.484  0.0691  0.0486 -0.3426
 5308TIP3    H137415   2.853   4.671   0.423  0.8837  0.4650  0.6333
 5308TIP3    H237416   2.802   4.530   0.442  1.4622  0.0797 -0.5535
 5309TIP3   OH237417   5.618   4.184   3.985 -0.5543 -0.3098 -0.2606
 5309TIP3    H137418   5.578   4.262   4.024  0.8727 -0.1286  0.9417
 5309TIP3    H237419   5.622   4.121   4.057  1.4377 -0.2470 -0.2663
 5310TIP3   OH237420   2.985   0.436   1.873  0.2325 -0.4369 -0.1084
 5310TIP3    H137421   3.000   0.525   1.841  0.0039 -0.2814  0.2069
 5310TIP3    H237422   3.072   0.398   1.882  0.4144  0.2272  1.0766
 5311TIP3   OH237423   0.918   6.452  12.405 -0.0035 -0.2331 -0.1080
 5311TIP3    H137424   0.922   6.546  12.388 -0.1803 -0.5858 -2.3260
 5311TIP3    H237425   0.845   6.442  12.466 -1.6434  0.8631 -1.7633
 5312TIP3   OH237426   3.564   5.580  13.580 -0.1722  0.0062 -0.3528
 5312TIP3    H137427   3.503   5.600  13.509  0.7311  1.5090 -0.7314
 5312TIP3    H237428   3.649   5.606  13.546  0.2565  0.8993  1.3381
 5313TIP3   OH237429   1.822   2.941  10.477  0.1304 -0.6239  0.0698
 5313TIP3    H137430   1.800   2.848  10.471  1.4781 -0.9338 -0.6903
 5313TIP3    H237431   1.800   2.976  10.391 -1.8152  0.1398  0.8354
 5314TIP3   OH237432   3.484   4.437  12.163 -0.5032 -0.0550 -0.3760
 5314TIP3    H137433   3.432   4.434  12.083 -0.4986  1.6532 -0.4772
 5314TIP3    H237434   3.438   4.498  12.220 -1.1398 -2.0776  1.4338
 5315TIP3   OH237435   6.513   1.394   1.367  0.0682 -0.4131  0.5328
 5315TIP3    H137436   6.496   1.302   1.389  0.5906 -0.9597 -1.1778
 5315TIP3    H237437   6.474   1.443   1.439  0.8020 -1.9990  2.0919
 5316TIP3   OH237438   2.843   5.333  15.011  0.7168  0.4132 -0.2525
 5316TIP3    H137439   2.764   5.387  15.011  0.1203 -0.1683 -3.9183
 5316TIP3    H237440   2.848   5.297  15.099 -2.0878  1.8632  0.6235
 5317TIP3   OH237441   1.102   5.266  16.184  0.0245 -0.2267 -0.2259
 5317TIP3    H137442   1.105   5.362  16.179 -0.3066 -0.2688 -1.8408
 5317TIP3    H237443   1.115   5.246  16.277  0.2680  1.3715  0.1093
 5318TIP3   OH237444   6.177   6.581   3.686  0.2207 -0.0205 -0.0808
 5318TIP3    H137445   6.193   6.665   3.729 -0.0688 -0.4022  0.7994
 5318TIP3    H237446   6.264   6.550   3.660  0.4243  0.1310  0.4071
 5319TIP3   OH237447   6.333   4.756  10.920 -0.1461 -0.5705  0.1435
 5319TIP3    H137448   6.269   4.688  10.903 -1.9591  1.2049 -0.5252
 5319TIP3    H237449   6.337   4.806  10.838 -0.0285  1.0337  1.0867
 5320TIP3   OH237450   0.820   4.138  10.574  0.8833 -0.5931  0.2832
 5320TIP3    H137451   0.837   4.190  10.653 -0.1272 -0.6875  0.5728
 5320TIP3    H237452   0.867   4.056  10.589  1.0921 -0.4252  0.5706
 5321TIP3   OH237453   3.066   4.191  15.667 -0.0236 -0.3915 -0.3783
 5321TIP3    H137454   3.091   4.271  15.621  1.8788 -0.6097  0.2052
 5321TIP3    H237455   3.014   4.142  15.602 -3.3404  2.2372 -0.0220
 5322TIP3   OH237456   6.105   5.326   1.843 -0.2322 -0.4642  0.6219
 5322TIP3    H137457   6.154   5.408   1.849  0.2573 -0.7519  0.5866
 5322TIP3    H237458   6.017   5.349   1.874  0.0457 -0.0470  1.1265
 5323TIP3   OH237459   1.148   5.652   4.141  0.7573 -0.3325 -0.2231
 5323TIP3    H137460   1.140   5.637   4.235  1.7382 -1.7424 -0.3286
 5323TIP3    H237461   1.240   5.673   4.127  1.3241 -3.0340 -1.1644
 5324TIP3   OH237462   3.925   3.775   3.424  0.5104 -0.4295 -0.2843
 5324TIP3    H137463   3.840   3.738   3.450  0.6137 -1.0900 -0.8603
 5324TIP3    H237464   3.943   3.842   3.490 -0.1429 -0.7428  0.2262
 5325TIP3   OH237465   1.960   2.462  12.545 -0.1757 -0.2124  0.3385
 5325TIP3    H137466   1.896   2.394  12.568  0.7810 -1.3704 -0.2767
 5325TIP3    H237467   1.989   2.496  12.629 -1.2629  0.0272  0.6413
 5326TIP3   OH237468   4.488   2.065  13.592 -0.2566 -0.1646 -0.2453
 5326TIP3    H137469   4.570   2.052  13.545  0.3327 -0.3055  0.8027
 5326TIP3    H237470   4.503   2.142  13.646 -0.7593 -0.2954  0.0898
 5327TIP3   OH237471   4.195   0.285  15.961  0.4312 -0.0834 -0.0985
 5327TIP3    H137472   4.156   0.311  16.044 -1.5866 -0.3168 -0.9135
 5327TIP3    H237473   4.201   0.367  15.911  0.5303 -0.1280 -0.1607
 5328TIP3   OH237474   1.813   0.394   2.039 -0.6405 -0.3806 -0.4890
 5328TIP3    H137475   1.867   0.431   2.109 -1.8433  1.2892 -0.3800
 5328TIP3    H237476   1.838   0.302   2.035  0.5337 -0.1662  1.1112
 5329TIP3   OH237477   0.492   4.970   3.810 -0.5216  0.2778 -0.3650
 5329TIP3    H137478   0.425   4.921   3.763  1.6001 -1.2333 -2.0009
 5329TIP3    H237479   0.565   4.976   3.748  1.1725  1.1097  1.6081
 5330TIP3   OH237480   4.626   4.069  14.001 -0.0784  0.3162 -1.0455
 5330TIP3    H137481   4.654   4.066  14.092  0.1695  0.0781 -1.1277
 5330TIP3    H237482   4.534   4.041  14.004 -0.2081  0.7477 -0.8200
 5331TIP3   OH237483   5.313   2.680  16.860  0.2656  0.1104  0.5765
 5331TIP3    H137484   5.219   2.685  16.842  0.1612  1.0032  1.2579
 5331TIP3    H237485   5.354   2.717  16.783 -0.0166  0.9372  0.8116
 5332TIP3   OH237486   0.079   6.337   0.863 -0.2010  0.4411  0.0655
 5332TIP3    H137487   0.160   6.315   0.818 -0.7080 -1.9533  0.2207
 5332TIP3    H237488   0.015   6.349   0.792 -0.0972  0.6674  0.0087
 5333TIP3   OH237489   2.298   0.956   4.352  0.2165  0.4657  0.2439
 5333TIP3    H137490   2.251   1.029   4.310  0.8839 -0.0506 -1.4905
 5333TIP3    H237491   2.240   0.881   4.342 -0.1035  0.5655  1.2764
 5334TIP3   OH237492   0.895   5.106   1.579  0.9140  0.2199 -0.2143
 5334TIP3    H137493   0.990   5.111   1.576  0.8751  3.6697  0.1389
 5334TIP3    H237494   0.866   5.137   1.493  0.1482  1.2575  0.3933
 5335TIP3   OH237495   0.042   6.376   5.629 -0.2458  0.2966  0.2669
 5335TIP3    H137496   0.117   6.425   5.661 -0.3280 -0.1988  1.2581
 5335TIP3    H237497   0.037   6.299   5.685 -0.7719 -0.2975 -0.5598
 5336TIP3   OH237498   4.960   5.660   3.871 -0.0288 -0.3631 -0.1938
 5336TIP3    H137499   4.983   5.697   3.956 -0.1343  0.0580 -0.3478
 5336TIP3    H237500   5.033   5.600   3.851 -0.9770 -2.0440  1.1217
 5337TIP3   OH237501   2.394   2.514  17.010  0.4419 -0.9786 -0.1871
 5337TIP3    H137502   2.340   2.579  16.965 -1.3170 -2.0373  0.2946
 5337TIP3    H237503   2.464   2.565  17.051  2.0835  0.0686 -3.8804
 5338TIP3   OH237504   3.697   0.797  14.795  0.2266  0.4133 -0.1144
 5338TIP3    H137505   3.673   0.711  14.830  2.4799 -0.1083  0.3015
 5338TIP3    H237506   3.725   0.847  14.872  0.5977  0.9333 -0.5819
 5339TIP3   OH237507   2.983   5.054  12.967 -0.0069  0.0711 -0.4338
 5339TIP3    H137508   3.021   5.142  12.966 -0.7445  0.4211  0.7720
 5339TIP3    H237509   2.889   5.069  12.980 -0.2218 -0.8769 -0.8422
 5340TIP3   OH237510   1.132   5.621   5.567  0.0658 -0.3841 -0.0927
 5340TIP3    H137511   1.082   5.540   5.558  1.1126 -1.0424 -0.2449
 5340TIP3    H237512   1.118   5.668   5.485 -0.7796 -0.2686  0.1114
 5341TIP3   OH237513   3.383   0.939   5.197  0.0190 -0.0424 -0.0745
 5341TIP3    H137514   3.329   1.005   5.153 -0.0922 -0.3542 -0.3994
 5341TIP3    H237515   3.444   0.908   5.130  1.7300  1.4810  0.6639
 5342TIP3   OH237516   6.724   1.859  10.082 -0.0220 -0.1444  0.0494
 5342TIP3    H137517   6.764   1.930  10.033  0.5403 -0.1892  0.4272
 5342TIP3    H237518   6.797   1.802  10.106 -0.2437  0.0034  1.1447
 5343TIP3   OH237519   5.497   4.713  14.486  0.4770 -0.2767  0.1862
 5343TIP3    H137520   5.529   4.667  14.563  2.1426 -0.2755 -0.4703
 5343TIP3    H237521   5.562   4.695  14.418 -1.3351 -0.9670 -1.4938
 5344TIP3   OH237522   6.131   5.869   4.878 -0.1957 -0.6608 -0.5268
 5344TIP3    H137523   6.098   5.823   4.955 -0.2285  0.5619  0.2011
 5344TIP3    H237524   6.211   5.823   4.855 -1.0242 -2.0532 -0.7610
 5345TIP3   OH237525   1.466   0.797  14.774 -1.1259  0.2733 -0.4985
 5345TIP3    H137526   1.372   0.778  14.775 -1.7425  2.7354 -1.9944
 5345TIP3    H237527   1.503   0.733  14.714 -1.8587 -0.6733  0.0389
 5346TIP3   OH237528   1.617   2.941   0.699  0.4122 -0.5559 -0.2925
 5346TIP3    H137529   1.642   2.932   0.607  1.0464  2.0288 -0.4618
 5346TIP3    H237530   1.592   3.033   0.708 -2.9210 -1.4732  1.4048
 5347TIP3   OH237531   0.164   0.866   1.962  0.0029  0.7043  0.3976
 5347TIP3    H137532   0.069   0.852   1.967  0.3956 -2.3556  1.5598
 5347TIP3    H237533   0.187   0.842   1.872 -0.1026 -0.4710  0.6749
 5348TIP3   OH237534   3.204   0.233  14.621  0.0780 -0.4397  0.3062
 5348TIP3    H137535   3.224   0.231  14.714  1.4970  1.5553  0.1173
 5348TIP3    H237536   3.247   0.312  14.589 -3.5023  1.0837 -1.3553
 5349TIP3   OH237537   6.724   1.899  12.522 -0.7349 -0.1094 -0.7220
 5349TIP3    H137538   6.752   1.811  12.549 -1.8297  0.3197  2.1488
 5349TIP3    H237539   6.789   1.958  12.561 -1.8938  0.4964  0.3879
 5350TIP3   OH237540   4.053   4.825  12.983  0.4444  0.0069 -0.1088
 5350TIP3    H137541   4.135   4.776  12.986  0.2587 -0.3800 -1.0298
 5350TIP3    H237542   4.036   4.849  13.075  1.2039 -0.5262  0.1830
 5351TIP3   OH237543   6.310   6.111   4.073 -0.5869 -0.4031 -0.3153
 5351TIP3    H137544   6.236   6.106   4.013 -2.5592 -1.3289  2.0473
 5351TIP3    H237545   6.276   6.081   4.157  2.5620 -1.1693  0.8447
 5352TIP3   OH237546   1.254   0.767  13.757  0.1729  0.5129  0.1743
 5352TIP3    H137547   1.293   0.679  13.759 -1.8207 -0.4169  0.1135
 5352TIP3    H237548   1.324   0.824  13.790  3.2541 -0.2987 -4.0351
 5353TIP3   OH237549   2.536   0.509   5.378 -0.7850 -0.1990 -0.3436
 5353TIP3    H137550   2.493   0.558   5.448 -2.4181  1.0876 -2.1218
 5353TIP3    H237551   2.529   0.418   5.404 -1.6184  0.2226  1.0069
 5354TIP3   OH237552   6.033   3.957   2.595 -0.1652 -0.4108  0.3920
 5354TIP3    H137553   6.114   3.974   2.643 -1.5112  1.0422  2.3029
 5354TIP3    H237554   6.045   4.002   2.511  0.8722  0.0243  0.7579
 5355TIP3   OH237555   5.101   5.550  13.350  0.5387  0.1376 -0.2229
 5355TIP3    H137556   5.122   5.613  13.281 -1.1412 -0.5614 -1.4523
 5355TIP3    H237557   5.048   5.599  13.413  0.2215  0.2572 -0.5767
 5356TIP3   OH237558   1.261   3.452  10.392 -0.3689 -0.1350 -0.3995
 5356TIP3    H137559   1.208   3.496  10.459  0.1604 -2.0038  1.3415
 5356TIP3    H237560   1.281   3.367  10.430  1.0358 -0.7812 -2.4503
 5357TIP3   OH237561   5.772   0.451  10.944  0.0229 -0.2199  0.5111
 5357TIP3    H137562   5.839   0.448  11.013 -2.9613  2.5548  3.9079
 5357TIP3    H237563   5.729   0.366  10.949  0.8468 -0.6216  1.0013
 5358TIP3   OH237564   4.661   5.527   0.990  0.2529  0.5776 -0.4200
 5358TIP3    H137565   4.572   5.543   0.959  0.5741 -0.1600 -1.8238
 5358TIP3    H237566   4.652   5.513   1.084 -1.0095  1.2316 -0.4209
 5359TIP3   OH237567   2.473   0.964   4.690 -0.1102 -0.2692 -0.0394
 5359TIP3    H137568   2.512   0.945   4.604 -0.7196 -2.9623  0.1840
 5359TIP3    H237569   2.547   0.969   4.750  0.2850  1.1066 -0.6195
 5360TIP3   OH237570   1.431   6.176  12.227 -0.3191  0.5199  0.0842
 5360TIP3    H137571   1.418   6.114  12.298 -1.6749  1.3430  0.5925
 5360TIP3    H237572   1.382   6.140  12.153 -3.1570  2.0647  1.0736
 5361TIP3   OH237573   2.205   2.903  12.981 -0.0926 -0.4980 -0.9942
 5361TIP3    H137574   2.235   2.988  13.012 -0.9759  0.1193 -1.7706
 5361TIP3    H237575   2.269   2.878  12.914  3.3449 -3.0219  2.7069
 5362TIP3   OH237576   2.742   0.828  11.054  0.3028 -0.0741 -0.1527
 5362TIP3    H137577   2.739   0.733  11.042  0.2763 -0.3124  1.4627
 5362TIP3    H237578   2.723   0.864  10.968 -1.3036 -1.5379 -0.4655
 5363TIP3   OH237579   2.302   2.085   3.717  0.6393 -0.1821  0.4741
 5363TIP3    H137580   2.214   2.065   3.749  0.8204 -0.0667  1.0573
 5363TIP3    H237581   2.289   2.124   3.630  0.1150 -0.0767  0.6033
 5364TIP3   OH237582   1.775   4.260  16.444 -0.5214  0.4982  0.9320
 5364TIP3    H137583   1.858   4.307  16.436  0.1801 -0.6493  1.1449
 5364TIP3    H237584   1.755   4.232  16.354  0.2490 -0.7072  1.1113
 5365TIP3   OH237585   4.529   0.676   2.812 -0.9470  0.3029  0.0963
 5365TIP3    H137586   4.482   0.702   2.891 -0.0200  1.5318  0.2618
 5365TIP3    H237587   4.560   0.758   2.774  0.6410 -0.4370 -0.2796
 5366TIP3   OH237588   6.840   2.213  13.682 -0.3462 -0.1463  0.3659
 5366TIP3    H137589   6.800   2.130  13.707  1.5127 -0.6701  1.8715
 5366TIP3    H237590   6.893   2.192  13.605  0.6722 -0.5730  1.1525
 5367TIP3   OH237591   4.797   3.255  15.592  0.4919 -0.4802  0.4071
 5367TIP3    H137592   4.729   3.218  15.649 -1.1348  1.0047 -0.4447
 5367TIP3    H237593   4.789   3.206  15.510  0.6272 -0.4873  0.3985
 5368TIP3   OH237594   5.444   4.120  14.117 -0.1307 -0.3819 -0.2232
 5368TIP3    H137595   5.405   4.047  14.167 -0.6113 -0.4010 -0.6233
 5368TIP3    H237596   5.397   4.197  14.148 -0.0723 -0.3258 -0.2754
 5369TIP3   OH237597   4.901   2.147   2.395 -0.4188  0.4454 -0.3349
 5369TIP3    H137598   4.982   2.098   2.408 -0.0343  1.3382  0.7978
 5369TIP3    H237599   4.857   2.144   2.480 -1.0194  0.9487 -0.6209
 5370TIP3   OH237600   1.305   5.779  13.471  0.3234  0.5116 -0.0439
 5370TIP3    H137601   1.230   5.729  13.439 -0.3315  1.6340 -0.3004
 5370TIP3    H237602   1.267   5.843  13.532  1.2556  0.0762  1.0417
 5371TIP3   OH237603   6.595   6.420   4.984  0.4465  0.5658 -0.0446
 5371TIP3    H137604   6.547   6.348   5.025 -0.5118  1.0880 -0.1990
 5371TIP3    H237605   6.595   6.399   4.891 -0.4671  1.0938 -0.1809
 5372TIP3   OH237606   5.397   2.202   4.371 -0.4416 -0.2742 -0.2255
 5372TIP3    H137607   5.336   2.198   4.444 -0.2299  0.6639  0.0158
 5372TIP3    H237608   5.392   2.116   4.330 -1.4687 -0.4024  0.1575
 5373TIP3   OH237609   4.692   0.158   0.844 -0.6994  0.0089 -0.8828
 5373TIP3    H137610   4.700   0.180   0.937  0.3401  0.5226 -1.0815
 5373TIP3    H237611   4.649   0.234   0.805  0.3365  0.4870 -1.0949
 5374TIP3   OH237612   6.823   3.924   5.099 -0.1693 -0.3341 -0.1085
 5374TIP3    H137613   6.907   3.935   5.144  0.1277  0.2951 -0.7875
 5374TIP3    H237614   6.821   3.832   5.074 -0.5873 -0.8327  1.6384
 5375TIP3   OH237615   5.740   4.374  11.709 -0.1303  0.1919 -0.1822
 5375TIP3    H137616   5.832   4.355  11.725 -0.0618  1.1389  0.6670
 5375TIP3    H237617   5.723   4.340  11.621  0.6083 -1.3689  0.2421
 5376TIP3   OH237618   5.108   4.217  15.140  0.3235 -0.4878  0.5417
 5376TIP3    H137619   5.145   4.177  15.219 -0.7731 -0.9904  0.8311
 5376TIP3    H237620   5.024   4.172  15.128 -0.4169  0.9111  0.2097
 5377TIP3   OH237621   6.073   1.388  15.242  0.3122 -0.0883  0.1005
 5377TIP3    H137622   6.070   1.480  15.214 -0.3590  0.5718  2.1535
 5377TIP3    H237623   6.153   1.354  15.203  1.0266  1.6244 -0.0422
 5378TIP3   OH237624   0.292   2.981  11.258  0.0592  0.2051  0.0720
 5378TIP3    H137625   0.317   2.946  11.343  1.2367  0.5761 -0.0957
 5378TIP3    H237626   0.273   3.074  11.274 -1.5983 -0.1371  0.2518
 5379TIP3   OH237627   3.961   3.162   4.770  0.2236  0.0179 -0.2328
 5379TIP3    H137628   3.991   3.090   4.715 -1.5404 -1.0080  0.0858
 5379TIP3    H237629   4.040   3.191   4.816  1.0559 -1.4289 -0.6948
 5380TIP3   OH237630   4.390   6.503  14.528  0.5979  0.0669  0.5463
 5380TIP3    H137631   4.446   6.513  14.451 -2.1361  0.8594 -1.4686
 5380TIP3    H237632   4.317   6.563  14.513 -1.8957 -2.3661  2.0197
 5381TIP3   OH237633   6.119   1.560  13.006  0.3412  0.0607  0.1451
 5381TIP3    H137634   6.098   1.596  12.920 -1.0999  1.2289  0.9386
 5381TIP3    H237635   6.202   1.600  13.029 -1.1966  3.0425  0.9842
 5382TIP3   OH237636   5.008   4.060  13.753 -0.2645  0.6090 -0.1352
 5382TIP3    H137637   4.996   3.975  13.796  0.6121  0.6877  0.2899
 5382TIP3    H237638   4.950   4.119  13.801 -0.5609  0.3431 -0.1596
 5383TIP3   OH237639   5.197   4.219   1.342 -0.2709  0.0435  0.4165
 5383TIP3    H137640   5.190   4.225   1.247  0.2955  1.9614  0.4499
 5383TIP3    H237641   5.275   4.165   1.357 -2.2177 -3.1733 -0.1010
 5384TIP3   OH237642   0.908   4.402   4.884 -0.3845 -0.3918  0.3815
 5384TIP3    H137643   0.929   4.309   4.894  0.3445 -0.0326  3.2645
 5384TIP3    H237644   0.981   4.438   4.833 -1.0247 -1.4555 -1.3770
 5385TIP3   OH237645   2.256   5.937  13.568  0.4441  0.0354 -0.1293
 5385TIP3    H137646   2.331   5.955  13.511  1.1340  0.5449  0.9017
 5385TIP3    H237647   2.221   5.854  13.537  1.3148 -0.1089 -0.7483
 5386TIP3   OH237648   5.577   2.183  10.845 -0.2553  0.3973 -0.1478
 5386TIP3    H137649   5.529   2.100  10.836  0.9727 -0.3347 -0.2369
 5386TIP3    H237650   5.524   2.246  10.797 -2.1643  0.0937  1.4640
 5387TIP3   OH237651   6.384   0.182  14.288 -0.0783 -0.5955  0.4338
 5387TIP3    H137652   6.291   0.197  14.301 -0.0548 -0.2667  0.2400
 5387TIP3    H237653   6.423   0.191  14.375 -0.0101  0.9111  0.2705
 5388TIP3   OH237654   6.052   5.687   1.356 -0.4327 -0.3708 -0.1488
 5388TIP3    H137655   6.124   5.750   1.358  0.8378 -1.6191 -2.4136
 5388TIP3    H237656   6.065   5.632   1.433  0.7603 -0.3061 -0.2949
 5389TIP3   OH237657   5.908   1.029   3.775  0.0882 -0.4198 -0.1636
 5389TIP3    H137658   5.966   1.099   3.807  1.4257 -1.9705  0.9639
 5389TIP3    H237659   5.821   1.053   3.808  0.4390  0.8816 -0.1251
 5390TIP3   OH237660   5.914   1.774   3.073 -0.6002  0.3244  0.1159
 5390TIP3    H137661   5.836   1.808   3.030 -0.3820  1.1425  0.3546
 5390TIP3    H237662   5.987   1.808   3.022 -0.3635  0.6666  0.6751
 5391TIP3   OH237663   5.509   5.938  13.661  0.1448 -0.0534  0.4657
 5391TIP3    H137664   5.574   5.978  13.717 -0.8944 -0.7994  2.2900
 5391TIP3    H237665   5.471   5.868  13.714 -1.6614 -0.0888 -0.7709
 5392TIP3   OH237666   0.553   6.036  13.562 -0.4568  0.1269  0.5775
 5392TIP3    H137667   0.458   6.047  13.562 -0.3537  1.1089  0.4977
 5392TIP3    H237668   0.576   6.024  13.470 -0.5953 -1.1103  0.6866
 5393TIP3   OH237669   0.454   3.281  12.799 -0.5155 -0.0789 -0.1619
 5393TIP3    H137670   0.468   3.250  12.710  2.5144 -1.3390  0.6304
 5393TIP3    H237671   0.505   3.361  12.806 -1.0936  0.2578  0.3216
 5394TIP3   OH237672   6.060   4.942  12.827  0.3812 -0.2756 -0.1985
 5394TIP3    H137673   6.023   5.030  12.817  1.0701  0.0081 -0.2650
 5394TIP3    H237674   6.124   4.950  12.898  0.3533 -0.7548 -0.1119
 5395TIP3   OH237675   2.600   6.654  11.602  0.4769  0.2416  0.0387
 5395TIP3    H137676   2.518   6.611  11.580  0.7955  0.1091 -0.9366
 5395TIP3    H237677   2.619   6.626  11.692 -0.7898  0.6842  0.4632
 5396TIP3   OH237678   4.517   2.762   5.763  0.2667  0.1892  0.2250
 5396TIP3    H137679   4.554   2.758   5.851  0.3444  2.0295  0.3115
 5396TIP3    H237680   4.422   2.756   5.777  0.3406 -1.1448  0.2765
 5397TIP3   OH237681   5.882   2.181   5.630 -0.4389 -0.1823 -0.7772
 5397TIP3    H137682   5.933   2.246   5.679 -0.7739 -0.7471  0.3556
 5397TIP3    H237683   5.798   2.177   5.675 -0.5081 -1.2261 -0.9657
 5398TIP3   OH237684   4.718   1.755  13.362  0.4226 -0.5582  0.2211
 5398TIP3    H137685   4.636   1.717  13.395 -0.4860  0.1654 -1.1188
 5398TIP3    H237686   4.737   1.703  13.284 -1.4403  2.2470 -2.3098
 5399TIP3   OH237687   1.557   0.484  15.687 -0.5146  0.7119  0.0120
 5399TIP3    H137688   1.548   0.571  15.648 -0.2752  0.6001 -0.2979
 5399TIP3    H237689   1.635   0.491  15.742 -0.5842  0.7379  0.1068
 5400TIP3   OH237690   5.368   3.237   1.579  0.1917 -0.0838  0.0620
 5400TIP3    H137691   5.323   3.174   1.635  0.8644 -2.4408 -1.8975
 5400TIP3    H237692   5.408   3.299   1.641 -4.5412  1.5389  1.9634
 5401TIP3   OH237693   0.577   1.444   0.718 -0.5193  0.3175  0.0768
 5401TIP3    H137694   0.582   1.415   0.627 -0.6220  0.6814 -0.0483
 5401TIP3    H237695   0.485   1.465   0.731 -0.4016  0.8441  0.0812
 5402TIP3   OH237696   4.359   5.379   5.671 -0.5873 -0.1521  0.2349
 5402TIP3    H137697   4.300   5.455   5.672 -1.1818 -0.5717 -0.7505
 5402TIP3    H237698   4.389   5.371   5.761  1.3920  2.6785 -0.0206
 5403TIP3   OH237699   0.414   2.569   5.180  0.0670 -0.5267  0.3200
 5403TIP3    H137700   0.388   2.530   5.096 -0.8217  0.7056 -0.0030
 5403TIP3    H237701   0.457   2.497   5.227 -0.4916 -1.5711 -0.7031
 5404TIP3   OH237702   0.847   3.109   0.233 -0.0907 -0.4222 -0.0704
 5404TIP3    H137703   0.851   3.185   0.290  0.2973  0.3303 -1.0681
 5404TIP3    H237704   0.932   3.067   0.243  0.7430  0.8085 -1.5148
 5405TIP3   OH237705   2.581   2.910   4.144 -0.6756  0.2686 -0.5293
 5405TIP3    H137706   2.519   2.976   4.114 -1.9049 -0.1860  0.8788
 5405TIP3    H237707   2.666   2.940   4.112 -0.9688  3.2634  1.1574
 5406TIP3   OH237708   6.345   3.398  11.504 -0.5642 -0.5409  0.5688
 5406TIP3    H137709   6.306   3.443  11.578  1.0436 -1.0623  1.7900
 5406TIP3    H237710   6.424   3.356  11.539  0.2173 -0.8760 -1.4100
 5407TIP3   OH237711   1.905   2.177  14.570 -0.0458  0.9738  0.9770
 5407TIP3    H137712   1.942   2.262  14.590 -0.8598  2.0902 -1.7898
 5407TIP3    H237713   1.810   2.190  14.572 -0.2134  0.9096 -1.8653
 5408TIP3   OH237714   5.444   3.669  13.484 -0.3957  0.2613 -0.3924
 5408TIP3    H137715   5.504   3.600  13.513  0.4586  0.2085 -2.1353
 5408TIP3    H237716   5.492   3.750  13.499  0.1351  0.2204 -1.7673
 5409TIP3   OH237717   2.891   2.597  13.636  0.1875 -0.2695 -0.1302
 5409TIP3    H137718   2.802   2.569  13.615  0.0824 -1.6296  1.8466
 5409TIP3    H237719   2.880   2.682  13.679 -0.2368 -0.7087  0.6498
 5410TIP3   OH237720   3.285   3.472  13.199  0.1050 -0.1400  0.2914
 5410TIP3    H137721   3.297   3.388  13.242 -0.0751 -1.3970 -1.9411
 5410TIP3    H237722   3.216   3.515  13.249 -0.8660 -1.9774  0.6379
 5411TIP3   OH237723   5.175   6.234  12.796  0.2131 -0.2468 -0.4170
 5411TIP3    H137724   5.139   6.165  12.741 -0.7976  1.9471 -2.6793
 5411TIP3    H237725   5.104   6.297  12.806  1.0152  0.4127  1.8010
 5412TIP3   OH237726   5.376   0.921  12.759  0.2538 -0.5566 -0.3366
 5412TIP3    H137727   5.291   0.913  12.715  0.1519  1.0083 -0.4939
 5412TIP3    H237728   5.355   0.924  12.852  0.2485 -1.3831 -0.3089
 5413TIP3   OH237729   0.589   2.357   0.559  0.2419  0.0424 -0.0330
 5413TIP3    H137730   0.606   2.431   0.618 -0.8290  0.5182 -0.3125
 5413TIP3    H237731   0.521   2.307   0.603 -0.0195 -0.0154 -0.5044
 5414TIP3   OH237732   4.547   2.667  14.721 -0.2358 -0.1017  0.3459
 5414TIP3    H137733   4.488   2.719  14.775 -0.9949 -0.2406 -0.3358
 5414TIP3    H237734   4.583   2.729  14.657 -0.9585 -0.3501 -0.3153
 5415TIP3   OH237735   1.729   6.460   5.144 -0.4606  0.2227  0.2971
 5415TIP3    H137736   1.724   6.373   5.186 -1.5675  1.0221  1.9784
 5415TIP3    H237737   1.711   6.521   5.216  1.3116  1.9213 -0.6367
 5416TIP3   OH237738   5.234   6.322  10.656  0.5414 -0.1016  0.0614
 5416TIP3    H137739   5.269   6.395  10.604  2.7991 -1.5906 -0.6818
 5416TIP3    H237740   5.152   6.298  10.613  0.4928  1.0790 -0.5326
 5417TIP3   OH237741   5.320   5.701  12.295  0.2632  0.0560 -0.2016
 5417TIP3    H137742   5.373   5.622  12.289 -0.7249 -0.5944 -0.7248
 5417TIP3    H237743   5.280   5.697  12.382  0.1404 -0.0734 -0.2638
 5418TIP3   OH237744   3.739   4.788   5.530  0.0578  0.5571  0.0478
 5418TIP3    H137745   3.654   4.752   5.553  0.3990  0.7482  1.7613
 5418TIP3    H237746   3.797   4.760   5.602  0.9635  2.1239 -0.0287
 5419TIP3   OH237747   1.060   2.756   4.090  0.3817  0.2210  0.4429
 5419TIP3    H137748   1.078   2.837   4.042 -0.5795  0.1325 -0.0962
 5419TIP3    H237749   1.086   2.686   4.029  0.2035  0.1180  0.4837
 5420TIP3   OH237750   4.566   2.801  11.058 -0.1291 -0.3327 -0.1197
 5420TIP3    H137751   4.566   2.888  11.098  0.8644  0.2471 -1.3104
 5420TIP3    H237752   4.517   2.812  10.976  0.7177 -0.6738 -0.6881
 5421TIP3   OH237753   0.294   5.006  16.696  0.1436 -0.0601 -0.4228
 5421TIP3    H137754   0.212   4.971  16.730 -0.0997 -0.5216 -1.4486
 5421TIP3    H237755   0.336   5.046  16.772 -0.8320 -0.1889  0.2046
 5422TIP3   OH237756   1.968   3.875   5.514  0.1322  0.3284  0.2298
 5422TIP3    H137757   2.057   3.844   5.497 -0.2393 -0.7036  0.1217
 5422TIP3    H237758   1.978   3.934   5.589  1.0557  1.0845 -0.4599
 5423TIP3   OH237759   2.464   2.661  10.845 -0.2078 -0.1465  0.3569
 5423TIP3    H137760   2.462   2.723  10.772 -1.2817 -0.2755  0.2492
 5423TIP3    H237761   2.514   2.587  10.812  1.4104  0.7898  0.6145
 5424TIP3   OH237762   1.976   0.254  13.338 -0.0833  0.5863  0.2248
 5424TIP3    H137763   1.914   0.184  13.359  0.9127  0.2809  2.4223
 5424TIP3    H237764   1.953   0.281  13.249 -1.7518 -1.1869  0.0614
 5425TIP3   OH237765   2.701   1.806  17.113  0.0742  0.1182 -0.3229
 5425TIP3    H137766   2.738   1.881  17.160  0.3565  0.1596 -0.6092
 5425TIP3    H237767   2.722   1.823  17.021 -1.3588  0.5617 -0.6007
 5426TIP3   OH237768   5.307   5.047  16.345 -0.2542  0.6128  0.4719
 5426TIP3    H137769   5.266   5.105  16.409 -1.4848 -0.8978  1.1248
 5426TIP3    H237770   5.398   5.039  16.375 -0.1847  1.7956  0.6302
 5427TIP3   OH237771   4.353   1.735   1.897 -0.2744 -0.1534 -0.4775
 5427TIP3    H137772   4.394   1.759   1.813  1.0061  0.5356  0.3014
 5427TIP3    H237773   4.427   1.728   1.958 -1.2138 -0.2573  0.6819
 5428TIP3   OH237774   2.310   1.181   3.222  0.3219 -0.1763 -0.1254
 5428TIP3    H137775   2.220   1.208   3.237  1.1031  2.5866  0.0568
 5428TIP3    H237776   2.353   1.194   3.306  1.3192  0.5323 -0.7248
 5429TIP3   OH237777   0.566   4.375  10.504 -0.0430  0.1370  0.1206
 5429TIP3    H137778   0.661   4.367  10.514 -0.4084 -3.9378  2.1021
 5429TIP3    H237779   0.548   4.334  10.419 -0.1517 -0.7425  0.5615
 5430TIP3   OH237780   4.575   6.572  12.825 -0.5228  0.1958 -0.0366
 5430TIP3    H137781   4.532   6.569  12.740 -2.2740  1.3497  0.7362
 5430TIP3    H237782   4.517   6.522  12.883  0.0526  0.3517  0.6935
 5431TIP3   OH237783   2.489   6.296  11.332  0.1705  0.2912  0.0812
 5431TIP3    H137784   2.400   6.304  11.296 -0.8715  0.8014  2.5756
 5431TIP3    H237785   2.545   6.340  11.267 -1.2267 -0.8038 -1.9735
 5432TIP3   OH237786   3.800   2.590  13.797  0.4670 -0.2702  0.0462
 5432TIP3    H137787   3.800   2.497  13.820  1.1692 -0.4751 -0.7250
 5432TIP3    H237788   3.839   2.593  13.709 -0.5227  0.6522 -0.3831
 5433TIP3   OH237789   6.369   1.412  12.150 -0.1299 -0.4245 -0.2138
 5433TIP3    H137790   6.361   1.357  12.072 -0.9306 -1.2979  0.4568
 5433TIP3    H237791   6.460   1.441  12.150 -0.2228 -0.0437 -1.7028
 5434TIP3   OH237792   4.015   3.339   0.498  0.0121  0.0671 -0.4174
 5434TIP3    H137793   4.104   3.317   0.525  0.0958 -0.1963 -0.8818
 5434TIP3    H237794   4.015   3.434   0.489 -0.0551  0.1722  0.6053
 5435TIP3   OH237795   4.523   4.916  13.907  0.1801 -0.5520 -0.2737
 5435TIP3    H137796   4.579   4.918  13.985 -0.0718  1.2791 -0.0987
 5435TIP3    H237797   4.555   4.841  13.857  1.4617 -0.7580  0.7880
 5436TIP3   OH237798   6.177   1.362  16.306  0.3038  0.3061 -0.1532
 5436TIP3    H137799   6.168   1.341  16.213  3.8693 -1.0166 -0.3384
 5436TIP3    H237800   6.232   1.440  16.307  1.5157 -0.5381  0.8479
 5437TIP3   OH237801   1.460   1.015  15.294  0.4381 -0.3593  0.3382
 5437TIP3    H137802   1.491   1.027  15.204 -1.3863 -0.7272 -0.3849
 5437TIP3    H237803   1.504   0.935  15.324  2.6083  0.8448  0.5340
 5438TIP3   OH237804   1.650   5.065   1.110 -0.0814 -0.0278 -0.5404
 5438TIP3    H137805   1.607   5.119   1.177  0.9202 -0.2127  0.2656
 5438TIP3    H237806   1.671   4.983   1.155  0.2761 -0.2934 -1.1870
 5439TIP3   OH237807   0.965   2.049   5.073  0.4115 -0.0821  0.0485
 5439TIP3    H137808   0.957   1.987   5.145  0.6710  0.5792  0.6565
 5439TIP3    H237809   1.022   2.006   5.010  0.7835 -0.3609  0.5709
 5440TIP3   OH237810   3.961   2.141   0.741 -0.0207 -0.4319 -0.4015
 5440TIP3    H137811   3.889   2.200   0.762  0.1000  0.0340 -1.2754
 5440TIP3    H237812   4.025   2.195   0.695  0.9704 -0.8057  0.4694
 5441TIP3   OH237813   1.877   3.752   0.866 -0.0357  0.3897 -0.4549
 5441TIP3    H137814   1.963   3.794   0.872 -0.0498  0.3222  0.2568
 5441TIP3    H237815   1.896   3.665   0.831 -0.0122  0.9773 -1.9896
 5442TIP3   OH237816   1.266   1.378  10.889  0.0937  0.4517  0.4835
 5442TIP3    H137817   1.356   1.378  10.856 -0.3129 -0.0650 -0.6912
 5442TIP3    H237818   1.264   1.450  10.951  0.9847  1.3320 -0.4515
 5443TIP3   OH237819   4.712   2.573  14.957 -0.1275  0.3685  0.0575
 5443TIP3    H137820   4.665   2.510  14.901  0.3148  0.6959 -0.7049
 5443TIP3    H237821   4.760   2.628  14.895  0.3969  0.7296  0.7738
 5444TIP3   OH237822   1.166   6.484  12.695  0.1098  0.3390  0.6304
 5444TIP3    H137823   1.103   6.551  12.669  1.4827  1.2753 -0.4696
 5444TIP3    H237824   1.129   6.444  12.773 -2.2775  0.2059 -0.4898
 5445TIP3   OH237825   3.150   2.514   2.279  0.2251  0.6848  0.3524
 5445TIP3    H137826   3.150   2.608   2.300  0.2220  0.9119 -0.6100
 5445TIP3    H237827   3.155   2.471   2.364  1.2252  1.5736  0.7725
 5446TIP3   OH237828   5.256   2.820  15.527  0.3483 -0.4007 -0.1654
 5446TIP3    H137829   5.216   2.737  15.554 -2.1212  0.3850 -1.0817
 5446TIP3    H237830   5.350   2.803  15.527 -0.0000 -2.7308  1.1246
 5447TIP3   OH237831   5.838   0.507  15.149 -0.1746  0.6913 -0.6029
 5447TIP3    H137832   5.900   0.474  15.215 -0.1098  2.3662  0.2320
 5447TIP3    H237833   5.833   0.601  15.166 -2.8640  0.6410 -0.7392
 5448TIP3   OH237834   1.330   1.462   0.040  1.2433  0.0766 -0.2043
 5448TIP3    H137835   1.275   1.469  -0.039 -2.1178 -1.2979  1.7945
 5448TIP3    H237836   1.365   1.373   0.037 -0.0670 -0.4930  0.4644
 5449TIP3   OH237837   0.084   5.337  11.246  0.2693  0.1033 -0.3357
 5449TIP3    H137838   0.074   5.339  11.151  1.6267  1.5238 -0.4924
 5449TIP3    H237839   0.050   5.422  11.275 -0.6466 -0.5381  0.5321
 5450TIP3   OH237840   5.552   2.852   5.977 -0.6572  0.5219 -0.0635
 5450TIP3    H137841   5.626   2.906   6.004  0.8030 -1.5901  0.4294
 5450TIP3    H237842   5.548   2.782   6.042  0.5801 -2.6301 -3.0361
 5451TIP3   OH237843   3.548   3.460   6.365 -0.0074 -0.2850  0.1230
 5451TIP3    H137844   3.564   3.376   6.410 -0.4150 -0.6219 -0.3466
 5451TIP3    H237845   3.462   3.487   6.397 -0.2459 -0.4668 -0.3605
 5452TIP3   OH237846   5.532   2.237   4.752 -0.4053 -0.2597  0.2167
 5452TIP3    H137847   5.450   2.280   4.774 -1.0707 -1.0091 -0.6721
 5452TIP3    H237848   5.542   2.170   4.819 -1.9513 -1.9355 -1.0980
 5453TIP3   OH237849   5.420   2.314  11.142  0.4071  0.0191 -0.4892
 5453TIP3    H137850   5.442   2.394  11.095  0.4289 -0.9308 -2.1598
 5453TIP3    H237851   5.326   2.320  11.157  0.4130  0.3585 -0.5751
 5454TIP3   OH237852   1.186   5.765  15.217  0.6284 -0.0314  0.1123
 5454TIP3    H137853   1.238   5.818  15.278 -0.3894  0.3935  0.6356
 5454TIP3    H237854   1.100   5.758  15.259 -0.1735  0.4613 -1.3811
 5455TIP3   OH237855   0.413   0.141  17.089  0.2316 -0.0372 -0.2812
 5455TIP3    H137856   0.504   0.133  17.061  0.3263  1.7611 -0.6143
 5455TIP3    H237857   0.363   0.092  17.024  0.8696 -0.0964 -0.7343
 5456TIP3   OH237858   4.129   1.004   0.712  0.2802  0.1134 -0.4915
 5456TIP3    H137859   4.130   1.040   0.801  2.6754  1.5928 -1.0419
 5456TIP3    H237860   4.156   0.913   0.723  1.1392  0.4464  0.2605
 5457TIP3   OH237861   2.366   2.847   3.061  0.1747  0.3216  0.3719
 5457TIP3    H137862   2.356   2.941   3.074 -1.1440  0.3676 -0.6766
 5457TIP3    H237863   2.439   2.839   3.000  1.5847  0.5196  1.9821
 5458TIP3   OH237864   6.535   3.746   2.468  0.9463 -0.4680 -0.0114
 5458TIP3    H137865   6.557   3.654   2.480  0.2292 -0.4538  1.6993
 5458TIP3    H237866   6.609   3.794   2.504  0.9915 -0.3790 -0.2203
 5459TIP3   OH237867   1.642   2.695  14.666  0.0199  0.1110 -0.1643
 5459TIP3    H137868   1.650   2.737  14.580  1.4463 -1.0260 -0.6249
 5459TIP3    H237869   1.559   2.647  14.661  1.3399 -2.2264 -2.0259
 5460TIP3   OH237870   4.886   0.517  11.803  0.1570 -0.1044 -0.1659
 5460TIP3    H137871   4.877   0.424  11.821  0.0001  0.1068  0.9006
 5460TIP3    H237872   4.836   0.531  11.723  2.2883 -1.3789 -1.8148
 5461TIP3   OH237873   5.993   1.653  15.618 -0.3971 -0.0031  0.6064
 5461TIP3    H137874   6.011   1.579  15.560  0.7018  0.8209 -0.1479
 5461TIP3    H237875   5.903   1.639  15.646 -1.6705  0.4634 -2.7135
 5462TIP3   OH237876   2.636   0.338  15.442 -0.8156 -0.1018 -0.3527
 5462TIP3    H137877   2.668   0.299  15.360  0.7363  1.6891 -0.6783
 5462TIP3    H237878   2.541   0.341  15.431 -0.8050 -1.7200 -1.2207
 5463TIP3   OH237879   3.429   1.501  11.316 -0.0293  0.4271 -0.0494
 5463TIP3    H137880   3.428   1.595  11.299  0.2463  0.3789 -0.3325
 5463TIP3    H237881   3.339   1.480  11.339 -0.1867  0.6792 -0.4288
 5464TIP3   OH237882   4.598   6.240  15.398  0.1513 -0.4334  0.0634
 5464TIP3    H137883   4.519   6.269  15.443  1.0873  0.0180  1.4659
 5464TIP3    H237884   4.606   6.300  15.323  0.8781  1.6406  1.7009
 5465TIP3   OH237885   0.406   3.113   4.542  0.5108  0.0065 -0.0156
 5465TIP3    H137886   0.429   3.190   4.592  1.8833 -1.3540  1.5613
 5465TIP3    H237887   0.455   3.041   4.583 -0.9998 -1.7840 -1.1500
 5466TIP3   OH237888   6.345   5.386   2.040  0.1798 -0.3790 -0.0551
 5466TIP3    H137889   6.301   5.466   2.011  2.5612  1.1659  0.3788
 5466TIP3    H237890   6.425   5.383   1.988 -0.0645 -2.7764 -0.3912
 5467TIP3   OH237891   6.418   6.437   3.651 -0.0959 -0.0267 -0.1161
 5467TIP3    H137892   6.478   6.505   3.683  3.0526 -2.9226  0.7616
 5467TIP3    H237893   6.373   6.406   3.729  0.3759 -0.6181 -0.0725
 5468TIP3   OH237894   4.011   3.320   3.922  0.3504 -0.2459 -0.3307
 5468TIP3    H137895   4.022   3.267   4.001  1.2111  0.3217 -0.0519
 5468TIP3    H237896   4.073   3.283   3.860  0.0417 -0.3639 -0.5703
 5469TIP3   OH237897   6.439   5.949  12.499 -0.0787 -0.3871 -0.4464
 5469TIP3    H137898   6.446   5.897  12.419 -0.3522  0.5009 -1.0632
 5469TIP3    H237899   6.397   6.030  12.471  0.4667  0.2262  0.4738
 5470TIP3   OH237900   5.680   6.087   1.740 -0.0881  0.0299  0.0340
 5470TIP3    H137901   5.726   6.169   1.722 -0.4230  0.3433  0.5815
 5470TIP3    H237902   5.718   6.056   1.822 -2.1307  1.2777  1.5553
 5471TIP3   OH237903   3.046   5.716  11.693 -0.4112  0.3466  0.5061
 5471TIP3    H137904   3.065   5.719  11.599 -0.5380 -0.7031  0.4354
 5471TIP3    H237905   3.128   5.744  11.735 -0.1020  0.0626  0.1021
 5472TIP3   OH237906   5.952   6.436   5.140 -0.1198  0.4350 -0.3517
 5472TIP3    H137907   5.979   6.514   5.189  2.6475 -1.8135  2.0437
 5472TIP3    H237908   6.016   6.429   5.069  1.2267 -0.9361  0.9470
 5473TIP3   OH237909   1.305   4.008   4.030 -0.3420 -0.2462 -0.0907
 5473TIP3    H137910   1.347   4.058   4.099 -0.2622  0.0616 -0.3592
 5473TIP3    H237911   1.371   3.944   4.003 -0.6544 -0.9102  0.6684
 5474TIP3   OH237912   5.832   3.999  13.163  0.2128 -0.1727 -0.1434
 5474TIP3    H137913   5.768   4.060  13.126 -0.6911 -1.2598 -0.4378
 5474TIP3    H237914   5.849   3.937  13.092 -0.0993 -1.1826  0.6470
 5475TIP3   OH237915   2.097   5.738  13.438 -0.3691 -0.1469 -1.2392
 5475TIP3    H137916   2.089   5.644  13.455  0.5249 -0.0932 -0.4951
 5475TIP3    H237917   2.074   5.747  13.345  0.8085 -1.2773 -1.6680
 5476TIP3   OH237918   2.172   1.386   4.730  0.2701  0.2500  0.6724
 5476TIP3    H137919   2.107   1.385   4.801  1.4701  1.4835  1.8835
 5476TIP3    H237920   2.253   1.360   4.773  0.7413 -0.4797 -0.6306
 5477TIP3   OH237921   5.784   4.200   0.788 -0.3434  0.8408 -0.3598
 5477TIP3    H137922   5.716   4.266   0.799  0.2475  1.3623  0.2309
 5477TIP3    H237923   5.748   4.121   0.829 -0.3219  1.3010  0.5637
 5478TIP3   OH237924   3.306   3.817  12.891 -0.5922 -0.1124  0.2598
 5478TIP3    H137925   3.235   3.844  12.833  0.1332 -0.2727 -0.7344
 5478TIP3    H237926   3.375   3.787  12.832  0.4040  0.2815  1.1872
 5479TIP3   OH237927   4.377   4.465   5.325 -0.2906 -0.3497  0.5241
 5479TIP3    H137928   4.296   4.435   5.284 -0.9234  0.3141  1.2556
 5479TIP3    H237929   4.379   4.422   5.411  1.0395 -1.7563 -0.1504
 5480TIP3   OH237930   5.433   2.518   3.662 -0.0920 -0.2234 -0.7586
 5480TIP3    H137931   5.355   2.568   3.682  0.7328  0.6384  0.4797
 5480TIP3    H237932   5.450   2.534   3.570 -0.5774  0.7275 -0.6851
 5481TIP3   OH237933   3.646   3.207  12.763 -0.3462  0.4674  0.0618
 5481TIP3    H137934   3.732   3.217  12.804 -0.0395  0.5069 -0.5734
 5481TIP3    H237935   3.636   3.285  12.709 -0.8880  0.5771  0.3138
 5482TIP3   OH237936   2.966   3.260  13.868  0.5020  0.0199 -0.0687
 5482TIP3    H137937   2.909   3.196  13.910  0.8530 -0.6764 -0.6217
 5482TIP3    H237938   3.006   3.212  13.796  1.0459  0.7711 -0.2799
 5483TIP3   OH237939   2.006   3.918  15.835 -0.1208 -0.0099 -0.6285
 5483TIP3    H137940   2.099   3.933  15.852 -0.4727 -0.0807  1.7322
 5483TIP3    H237941   1.984   3.843  15.890 -1.7292  0.4537 -0.6046
 5484TIP3   OH237942   0.991   4.621  12.183 -0.2355  0.1421 -0.1943
 5484TIP3    H137943   0.919   4.561  12.202  0.7276 -1.0952 -0.3046
 5484TIP3    H237944   0.974   4.698  12.238 -1.1877 -0.4730  0.3911
 5485TIP3   OH237945   1.618   1.125  14.472 -0.0214  0.7245 -0.8287
 5485TIP3    H137946   1.613   1.095  14.563  1.0628 -3.6130 -1.9450
 5485TIP3    H237947   1.684   1.194  14.474 -0.4091  1.1357  1.7131
 5486TIP3   OH237948   0.715   2.552  15.899  0.5287  0.3771 -0.5483
 5486TIP3    H137949   0.678   2.552  15.810  1.2504 -0.7955 -0.8570
 5486TIP3    H237950   0.648   2.509  15.952  0.3221  0.6068 -0.6195
 5487TIP3   OH237951   4.595   0.048   4.111 -0.0968  0.1204 -0.6040
 5487TIP3    H137952   4.690   0.058   4.107  0.1757 -0.6047  2.1670
 5487TIP3    H237953   4.581  -0.025   4.170 -2.4086 -1.2722 -2.6581
 5488TIP3   OH237954   2.320   3.072  15.619  0.1926 -0.4277  0.4143
 5488TIP3    H137955   2.342   2.994  15.569  1.0785  0.0773 -0.0032
 5488TIP3    H237956   2.371   3.064  15.700 -0.1735 -0.5576  0.6407
 5489TIP3   OH237957   5.334   5.910   5.507  0.1084  0.7095  0.0157
 5489TIP3    H137958   5.294   5.825   5.521  1.6969 -0.0220  0.2646
 5489TIP3    H237959   5.310   5.934   5.417  1.1069 -0.8349 -0.6980
 5490TIP3   OH237960   6.701   1.122   0.688  0.4430 -0.2712  0.2008
 5490TIP3    H137961   6.639   1.083   0.626  0.0788 -0.6611  0.7977
 5490TIP3    H237962   6.654   1.123   0.771  1.2923 -0.7285  0.7054
 5491TIP3   OH237963   1.633   3.956  15.622  0.1273 -0.1600  0.8218
 5491TIP3    H137964   1.614   3.905  15.701 -0.6427  0.3574  0.9766
 5491TIP3    H237965   1.721   3.991  15.637 -0.3074  0.5495  1.7869
 5492TIP3   OH237966   3.905   1.210   4.394  0.4024 -0.5909  0.2102
 5492TIP3    H137967   3.977   1.248   4.445  1.6240  0.4227 -2.1374
 5492TIP3    H237968   3.834   1.275   4.402  0.8914 -0.0151 -0.1010
 5493TIP3   OH237969   0.601   5.438   5.214 -0.2089  0.5687 -0.6574
 5493TIP3    H137970   0.678   5.384   5.196 -0.5869 -0.2761  0.1770
 5493TIP3    H237971   0.560   5.397   5.290 -1.1008  1.4173 -0.6601
 5494TIP3   OH237972   6.144   1.904   2.924  0.1680  0.1057 -0.0371
 5494TIP3    H137973   6.197   1.967   2.876 -2.1043  2.7267  0.6298
 5494TIP3    H237974   6.097   1.855   2.857  0.2274  0.7487 -0.5477
 5495TIP3   OH237975   2.526   0.333  13.387 -0.4426 -0.1024 -0.0936
 5495TIP3    H137976   2.470   0.317  13.312 -1.8301 -0.3374  0.9435
 5495TIP3    H237977   2.484   0.285  13.459  1.3727 -0.7126  0.6213
 5496TIP3   OH237978   4.397   0.840   5.411  0.4967 -0.3864 -0.4621
 5496TIP3    H137979   4.356   0.754   5.418  0.5119 -0.4616 -1.1948
 5496TIP3    H237980   4.380   0.867   5.321  1.7013 -0.2413 -0.6576
 5497TIP3   OH237981   6.376   0.055   3.081  0.2567 -0.3570 -0.4390
 5497TIP3    H137982   6.311   0.122   3.061  1.2261  0.2495 -1.6640
 5497TIP3    H237983   6.399   0.070   3.173  0.9459  1.4549 -0.8625
 5498TIP3   OH237984   6.042   0.210  13.267  0.3883  1.0263 -0.3080
 5498TIP3    H137985   5.987   0.189  13.191  0.3854  0.7883 -0.2398
 5498TIP3    H237986   6.028   0.138  13.328  0.3031  1.2715 -0.0307
 5499TIP3   OH237987   0.291   5.527  13.504  0.0042  0.2350 -0.0058
 5499TIP3    H137988   0.305   5.540  13.598 -0.1602 -1.0024  0.2067
 5499TIP3    H237989   0.311   5.612  13.465  0.0014  0.7873  1.1548
 5500TIP3   OH237990   4.154   2.306   3.024  0.3578  0.3169 -0.3788
 5500TIP3    H137991   4.193   2.344   3.103 -0.1863 -1.5757  0.8579
 5500TIP3    H237992   4.064   2.341   3.023 -0.3644 -1.3609  1.1361
 5501TIP3   OH237993   1.664   1.789   5.016  0.2320 -0.5756  0.5073
 5501TIP3    H137994   1.576   1.790   5.052 -0.3279 -1.3980 -0.7748
 5501TIP3    H237995   1.677   1.878   4.982 -0.5617 -0.7798 -0.3527
 5502TIP3   OH237996   2.224   0.383   4.085 -0.0271  0.4121  0.1465
 5502TIP3    H137997   2.240   0.291   4.107  0.3315  0.4744  0.1574
 5502TIP3    H237998   2.222   0.385   3.989  2.3355  0.7499  0.0331
 5503TIP3   OH237999   6.647   6.490  10.504 -0.4349  0.3646 -0.4107
 5503TIP3    H138000   6.691   6.575  10.501 -0.8839  0.5838 -0.8786
 5503TIP3    H238001   6.718   6.427  10.520  0.0816  0.6862 -1.3597
 5504TIP3   OH238002   0.619   5.140  16.649 -0.1203  0.4430  0.5431
 5504TIP3    H138003   0.698   5.192  16.661 -0.1912  0.1767  2.3573
 5504TIP3    H238004   0.616   5.123  16.555  2.4214 -0.2232  0.5057
 5505TIP3   OH238005   1.153   2.884  16.462 -0.2922  0.1828 -0.1111
 5505TIP3    H138006   1.080   2.828  16.491 -0.7252  0.1148 -1.2892
 5505TIP3    H238007   1.222   2.868  16.527 -0.9328 -0.5920  0.4023
 5506TIP3   OH238008   3.607   3.976   2.875  0.2672 -0.4024 -0.0737
 5506TIP3    H138009   3.679   4.035   2.855  0.2240 -0.1801  0.4150
 5506TIP3    H238010   3.615   3.960   2.969  0.6386 -1.6473 -0.2910
 5507TIP3   OH238011   1.528   6.669  12.987 -0.1050  0.2613 -0.8026
 5507TIP3    H138012   1.480   6.677  12.905 -0.4766  0.6580 -0.5483
 5507TIP3    H238013   1.544   6.575  12.997 -1.3391  0.0559 -0.5956
 5508TIP3   OH238014   6.410   1.307   2.146 -0.4325  0.3719 -0.1898
 5508TIP3    H138015   6.366   1.317   2.230  0.7622 -0.7763  0.6202
 5508TIP3    H238016   6.474   1.379   2.144 -0.2300  0.2004  0.0458
 5509TIP3   OH238017   3.337   4.194  14.572  0.2956  0.7241  0.5582
 5509TIP3    H138018   3.321   4.275  14.620 -0.4516  1.0123 -0.1637
 5509TIP3    H238019   3.255   4.144  14.582  0.1780  0.7332 -0.2962
 5510TIP3   OH238020   0.306   5.884  16.211 -0.3994  0.4642  0.2456
 5510TIP3    H138021   0.326   5.877  16.118 -1.5457 -1.0441  0.0791
 5510TIP3    H238022   0.227   5.833  16.223  0.3020 -0.2766  2.2452
 5511TIP3   OH238023   1.022   2.990   4.283  0.5294  0.4134  0.0709
 5511TIP3    H138024   1.010   2.907   4.237 -0.0757  0.8616 -0.5943
 5511TIP3    H238025   1.117   2.997   4.294  0.9395  1.3063 -3.0922
 5512TIP3   OH238026   1.027   6.305   3.900  0.0855  0.0165  0.2479
 5512TIP3    H138027   1.047   6.276   3.989  0.8950 -2.4598 -0.6668
 5512TIP3    H238028   0.948   6.257   3.875 -1.5195  2.4231  0.3615
 5513TIP3   OH238029   0.545   1.146  12.366  0.3613 -0.3507  0.0458
 5513TIP3    H138030   0.536   1.240  12.350 -1.2868 -0.1659  1.6168
 5513TIP3    H238031   0.593   1.112  12.291  1.5552  1.8392 -0.2406
 5514TIP3   OH238032   3.089   0.364  12.783 -0.4033  1.1020  0.4343
 5514TIP3    H138033   3.078   0.437  12.722 -0.4372  0.5951 -0.1707
 5514TIP3    H238034   3.017   0.305  12.763  0.0040  0.5858  0.4754
 5515TIP3   OH238035   5.124   4.128  11.411 -0.0592 -0.1512  0.2725
 5515TIP3    H138036   5.061   4.177  11.463 -0.7812 -0.1445 -0.5872
 5515TIP3    H238037   5.188   4.194  11.384 -1.5181  0.5745 -1.6427
 5516TIP3   OH238038   3.918   3.748   2.093 -0.0128 -0.2197  0.0965
 5516TIP3    H138039   3.866   3.679   2.133  0.5987 -1.9416 -1.8862
 5516TIP3    H238040   3.857   3.792   2.033 -0.1936  0.4646  0.7677
 5517TIP3   OH238041   5.033   4.001   5.248  0.3564  0.1323  0.1964
 5517TIP3    H138042   4.942   4.016   5.276  0.1124 -1.7882  0.5227
 5517TIP3    H238043   5.029   3.924   5.193  1.7509  0.3029 -0.1694
 5518TIP3   OH238044   1.386   0.479  13.070 -0.2072 -0.0108  0.1417
 5518TIP3    H138045   1.404   0.569  13.097  0.2392 -0.2945  0.8079
 5518TIP3    H238046   1.378   0.484  12.975  0.0519  0.6920  0.1501
 5519TIP3   OH238047   1.160   6.523   2.179  0.2963  0.1175  0.0263
 5519TIP3    H138048   1.247   6.541   2.143  0.6992 -1.1481  0.3288
 5519TIP3    H238049   1.114   6.479   2.107  1.1240 -2.4812  0.9795
 5520TIP3   OH238050   4.602   1.426   3.436  0.2054  0.0834  0.2232
 5520TIP3    H138051   4.570   1.515   3.421  0.0883  0.1523  0.8347
 5520TIP3    H238052   4.529   1.380   3.477 -0.2861 -0.7722 -1.5311
 5521TIP3   OH238053   5.412   2.355   0.514 -0.3685 -0.0646 -0.0578
 5521TIP3    H138054   5.416   2.345   0.609 -0.4147 -0.6698 -0.1157
 5521TIP3    H238055   5.490   2.405   0.492 -0.2729 -0.0599  0.2843
 5522TIP3   OH238056   0.081   3.428  16.530  0.1670  0.4469  0.3502
 5522TIP3    H138057   0.031   3.436  16.611 -0.9806  1.2055 -0.3897
 5522TIP3    H238058   0.021   3.459  16.462  0.8044 -0.9294 -0.9078
 5523TIP3   OH238059   2.544   3.774   4.090  0.0990 -0.0881 -0.2959
 5523TIP3    H138060   2.550   3.783   4.185 -2.3348 -1.7352  0.1119
 5523TIP3    H238061   2.582   3.688   4.072 -0.6957 -0.3934 -0.5847
 5524TIP3   OH238062   0.375   0.098  14.924 -0.1349  0.1724 -0.1257
 5524TIP3    H138063   0.442   0.101  14.856 -0.9971 -1.7692 -1.1593
 5524TIP3    H238064   0.419   0.063  15.001  0.2506 -0.2213 -0.5210
 5525TIP3   OH238065   2.001   1.701  12.938 -0.1534 -0.8701 -0.5070
 5525TIP3    H138066   2.051   1.625  12.970  1.1145  0.2194  0.1981
 5525TIP3    H238067   2.036   1.718  12.851 -2.1550 -2.5499 -1.7256
 5526TIP3   OH238068   4.035   0.528   3.645 -0.2034  0.2728 -0.0150
 5526TIP3    H138069   3.986   0.589   3.590 -0.8600  0.1438  0.4188
 5526TIP3    H238070   4.086   0.476   3.583  0.6130  1.4547 -0.3820
 5527TIP3   OH238071   0.952   4.018  10.941  0.4992  0.3690  0.4803
 5527TIP3    H138072   0.966   3.974  10.857 -1.0544 -0.4773  0.6240
 5527TIP3    H238073   0.857   4.027  10.947  0.5936  0.4808  2.1196
 5528TIP3   OH238074   3.134   5.421   1.052  0.1358  0.1819  0.2872
 5528TIP3    H138075   3.111   5.452   1.140  0.6377 -1.0084  0.8685
 5528TIP3    H238076   3.212   5.366   1.066 -0.9637 -1.6936 -0.5784
 5529TIP3   OH238077   5.937   1.204   2.183  0.1571  0.4907 -0.1470
 5529TIP3    H138078   5.983   1.131   2.223  0.0250 -1.5574 -3.3636
 5529TIP3    H238079   6.005   1.268   2.164  1.1803 -0.9486 -1.5994
 5530TIP3   OH238080   5.538   4.552   5.802 -0.2267  0.1567 -0.1927
 5530TIP3    H138081   5.471   4.595   5.855  1.4197  3.8518 -0.8614
 5530TIP3    H238082   5.493   4.529   5.721 -1.0487  1.1560 -0.0332
 5531TIP3   OH238083   2.508   5.941   2.090 -0.5740 -0.1382 -0.3812
 5531TIP3    H138084   2.593   5.971   2.059  0.1991  0.5717  2.1451
 5531TIP3    H238085   2.519   5.847   2.105  0.6441  0.3319  2.2239
 5532TIP3   OH238086   2.914   3.032   0.449 -0.0649  0.2339 -0.2054
 5532TIP3    H138087   2.837   3.016   0.395  0.4097  0.8601 -1.0872
 5532TIP3    H238088   2.921   3.128   0.454 -1.3452  0.2954  2.7973
 5533TIP3   OH238089   3.888   5.169  14.741  0.6586 -0.0369 -0.1641
 5533TIP3    H138090   3.916   5.118  14.664  0.2597 -0.6210  0.0694
 5533TIP3    H238091   3.816   5.223  14.710 -0.0553 -0.8808 -0.0182
 5534TIP3   OH238092   6.813   5.908  15.041  0.4756 -0.2814  0.1238
 5534TIP3    H138093   6.814   6.003  15.051  0.2744 -0.0652 -1.5711
 5534TIP3    H238094   6.720   5.885  15.046  0.5738 -0.5009  1.2351
 5535TIP3   OH238095   3.670   0.966  15.607  0.1631  0.0655 -0.2439
 5535TIP3    H138096   3.753   0.925  15.628 -0.6439 -1.4242  0.1611
 5535TIP3    H238097   3.636   0.997  15.691  0.4436  0.9787 -0.4538
 5536TIP3   OH238098   3.852   4.939   5.312 -0.0234 -0.4227 -0.4462
 5536TIP3    H138099   3.825   4.880   5.382 -1.3991  1.3533  0.6093
 5536TIP3    H238100   3.929   4.984   5.346 -1.7205  1.7434  0.8007
 5537TIP3   OH238101   2.749   0.561   0.169 -0.0566 -0.0888 -0.0253
 5537TIP3    H138102   2.724   0.521   0.085  1.1150 -1.0968  0.0877
 5537TIP3    H238103   2.699   0.512   0.234 -0.8122  0.5612 -0.0989
 5538TIP3   OH238104   5.634   4.903   6.403 -0.1076 -0.4344  0.0116
 5538TIP3    H138105   5.678   4.847   6.467  1.1117  0.6317  0.1439
 5538TIP3    H238106   5.614   4.983   6.451 -0.7130 -0.2651 -0.5019
 5539TIP3   OH238107   6.391   1.558   4.907  0.3630  0.4055 -0.6574
 5539TIP3    H138108   6.385   1.463   4.913 -3.0481  0.5758  0.3249
 5539TIP3    H238109   6.486   1.576   4.909  1.0955 -2.7897  1.9178
 5540TIP3   OH238110   0.403   3.916  15.024  0.0572 -0.4056  0.0031
 5540TIP3    H138111   0.328   3.899  15.080  0.1082  0.3317  0.3160
 5540TIP3    H238112   0.366   3.943  14.940 -0.0378  0.1292  0.2118
 5541TIP3   OH238113   6.172   4.853  13.584  0.6428  0.3779  0.0149
 5541TIP3    H138114   6.111   4.895  13.524  2.1362  1.6195 -0.6623
 5541TIP3    H238115   6.115   4.807  13.647 -0.9796  1.4746 -0.6007
 5542TIP3   OH238116   6.224   6.141   2.140 -0.0713 -0.7646  0.7072
 5542TIP3    H138117   6.187   6.152   2.227 -0.4404 -1.5822  0.6558
 5542TIP3    H238118   6.281   6.065   2.147  0.8488 -0.1107  0.5328
 5543TIP3   OH238119   4.273   4.439  16.761 -0.0336 -0.3856  0.7867
 5543TIP3    H138120   4.259   4.398  16.676  0.9596 -0.6526  0.7435
 5543TIP3    H238121   4.335   4.509  16.745 -0.0993 -0.2191  1.2355
 5544TIP3   OH238122   0.048   1.902   5.872  0.1709 -0.1738 -0.1330
 5544TIP3    H138123  -0.018   1.970   5.855  0.6829  0.2171 -0.6036
 5544TIP3    H238124   0.053   1.897   5.967 -1.1986 -0.8643 -0.0655
 5545TIP3   OH238125   3.609   1.881   2.964  0.1451  0.2592  0.3874
 5545TIP3    H138126   3.629   1.897   3.056 -1.2803  0.6063  0.6617
 5545TIP3    H238127   3.519   1.912   2.953 -0.5006 -1.7823 -0.5973
 5546TIP3   OH238128   2.677   6.738  13.240 -0.4414  0.5268 -1.0470
 5546TIP3    H138129   2.662   6.700  13.153 -3.1688  0.8053 -0.7665
 5546TIP3    H238130   2.593   6.776  13.265  0.2016  0.2920  1.8058
 5547TIP3   OH238131   5.646   5.631   0.451  0.1952  0.2761  0.1771
 5547TIP3    H138132   5.701   5.564   0.493 -0.2811  1.3604  2.6878
 5547TIP3    H238133   5.649   5.706   0.510 -5.0946 -0.0219  1.2943
 5548TIP3   OH238134   2.857   0.767   3.260 -0.3391  0.3192  0.1264
 5548TIP3    H138135   2.915   0.820   3.205  1.1736 -0.5768  0.8196
 5548TIP3    H238136   2.825   0.698   3.201  2.1743 -1.3299  0.5206
 5549TIP3   OH238137   1.737   0.438  17.096 -0.4210 -0.4401 -0.2244
 5549TIP3    H138138   1.803   0.496  17.057 -0.4690  0.7731  1.4057
 5549TIP3    H238139   1.728   0.366  17.033  1.4307  0.0752 -1.1507
 5550TIP3   OH238140   2.247   1.306  13.465  0.1288  0.0031 -0.3890
 5550TIP3    H138141   2.246   1.223  13.418  1.2098  1.9673 -4.3082
 5550TIP3    H238142   2.156   1.334  13.465 -0.0361 -0.5175 -0.3213
 5551TIP3   OH238143   3.647   3.464  12.589 -0.0853  0.9457 -0.2270
 5551TIP3    H138144   3.606   3.431  12.510 -0.9823  1.1106  0.1617
 5551TIP3    H238145   3.741   3.462  12.570  0.0251 -2.5576  0.0300
 5552TIP3   OH238146   5.283   1.467   3.976 -0.1161 -0.2335  0.3437
 5552TIP3    H138147   5.192   1.480   4.004  0.4145  1.3529  1.5691
 5552TIP3    H238148   5.317   1.399   4.035 -0.2260 -0.0524  0.6194
 5553TIP3   OH238149   3.325   5.939  12.699  0.0355  0.4728 -0.3119
 5553TIP3    H138150   3.368   5.974  12.777  0.5344 -0.2788 -0.2403
 5553TIP3    H238151   3.265   5.872  12.732 -0.5926  0.9402 -0.4838
 5554TIP3   OH238152   2.491   3.119  11.017  0.3309  0.1444  0.0397
 5554TIP3    H138153   2.529   3.048  10.966  1.0671  0.3245  0.3137
 5554TIP3    H238154   2.424   3.078  11.071 -0.7927  0.0245 -1.3867
 5555TIP3   OH238155   4.235   3.071  10.948 -0.0324 -0.1298 -0.2326
 5555TIP3    H138156   4.211   2.979  10.933  0.3541 -0.3834  0.6525
 5555TIP3    H238157   4.314   3.084  10.895 -0.1821 -0.2547 -0.4909
 5556TIP3   OH238158   4.739   0.605   2.115  0.4762  0.5183 -0.3680
 5556TIP3    H138159   4.753   0.609   2.209  2.4325  0.1264 -0.5849
 5556TIP3    H238160   4.812   0.655   2.078  0.7138 -0.7299 -1.6995
 5557TIP3   OH238161   2.161   3.360   3.731  0.0964  0.6211 -0.1052
 5557TIP3    H138162   2.226   3.313   3.679 -2.4196 -1.9666 -1.1747
 5557TIP3    H238163   2.202   3.371   3.817  2.3302  0.1761 -1.0399
 5558TIP3   OH238164   1.567   3.122  16.681  0.0757 -0.1781 -0.2808
 5558TIP3    H138165   1.567   3.123  16.586 -0.6937  0.7000 -0.2840
 5558TIP3    H238166   1.546   3.212  16.706  0.9635 -0.2266  0.7313
 5559TIP3   OH238167   4.496   6.121   2.644 -0.3897 -0.0745  0.5005
 5559TIP3    H138168   4.554   6.066   2.696 -0.7938 -1.0181 -0.0291
 5559TIP3    H238169   4.541   6.133   2.561  0.3180  1.5460  1.0707
 5560TIP3   OH238170   3.365   1.714   3.583  0.3106 -0.0038  0.2138
 5560TIP3    H138171   3.337   1.769   3.656  0.1541 -0.9147  0.8655
 5560TIP3    H238172   3.283   1.678   3.548 -0.6144  5.4443 -4.8183
 5561TIP3   OH238173   0.545   4.639  10.849  0.0332 -0.1238  0.7205
 5561TIP3    H138174   0.577   4.557  10.887 -0.4925 -0.9308 -0.5172
 5561TIP3    H238175   0.559   4.629  10.755  1.5950  1.9478  0.6510
 5562TIP3   OH238176   2.644   0.585   2.950  0.0589  0.2931 -0.0809
 5562TIP3    H138177   2.686   0.548   3.027 -1.3012 -0.8816  0.1346
 5562TIP3    H238178   2.654   0.679   2.960  1.6339  0.0919  0.5026
 5563TIP3   OH238179   5.727   0.529  16.197 -0.4005  0.1833 -0.0460
 5563TIP3    H138180   5.728   0.563  16.107 -1.1010  2.6688  0.8137
 5563TIP3    H238181   5.652   0.572  16.238 -0.6806 -1.6471  1.5111
 5564TIP3   OH238182   4.385   3.471   2.901  0.0096 -0.1729 -0.1004
 5564TIP3    H138183   4.411   3.546   2.953 -0.2491 -0.6493  0.7494
 5564TIP3    H238184   4.394   3.396   2.961 -1.0527 -0.6327 -0.4850
 5565TIP3   OH238185   3.615   1.295  11.261 -0.2315 -0.1226  0.2324
 5565TIP3    H138186   3.594   1.203  11.271 -1.2759 -0.1284 -1.5063
 5565TIP3    H238187   3.536   1.341  11.291  0.6193  0.2930  1.9813
 5566TIP3   OH238188   6.613   5.257   3.431 -0.4551 -0.2692  0.6534
 5566TIP3    H138189   6.573   5.293   3.511 -1.1831  2.1276 -0.6792
 5566TIP3    H238190   6.704   5.285   3.436 -0.8120  1.0966  0.0569
 5567TIP3   OH238191   6.479   2.498   5.251 -0.0516 -0.2679  0.5598
 5567TIP3    H138192   6.393   2.465   5.279 -1.9136  2.2115 -1.6485
 5567TIP3    H238193   6.503   2.443   5.177 -0.7201  0.1886 -0.0125
 5568TIP3   OH238194   4.877   5.248  11.853  0.2668 -0.3407  0.0169
 5568TIP3    H138195   4.805   5.187  11.872 -0.5098  0.5238 -0.0618
 5568TIP3    H238196   4.921   5.209  11.777 -1.3007  0.0559 -1.1501
 5569TIP3   OH238197   4.167   5.513   1.475 -0.3767 -0.3706 -0.4498
 5569TIP3    H138198   4.072   5.506   1.465 -0.6463  0.2757  1.2735
 5569TIP3    H238199   4.196   5.555   1.394 -1.3629 -1.7440 -1.5701
 5570TIP3   OH238200   0.188   6.797   3.910 -0.0383 -0.8126 -0.0694
 5570TIP3    H138201   0.231   6.780   3.994 -1.2150 -0.1679  0.6952
 5570TIP3    H238202   0.164   6.890   3.914 -0.2354 -0.8048 -1.0689
 5571TIP3   OH238203   3.529   0.290   1.913  0.7540 -0.4473  0.1830
 5571TIP3    H138204   3.472   0.310   1.987 -0.3765 -0.6038 -0.6224
 5571TIP3    H238205   3.596   0.359   1.915  0.1716  0.1190  0.7620
 5572TIP3   OH238206   4.440   0.529  15.847 -0.3018 -0.8481  0.4913
 5572TIP3    H138207   4.484   0.446  15.860  2.6932 -0.1491 -3.5197
 5572TIP3    H238208   4.493   0.592  15.895  0.1254 -0.6918 -0.1717
 5573TIP3   OH238209   4.591   3.251  15.140  0.3784  0.1199  0.1421
 5573TIP3    H138210   4.610   3.180  15.201  0.4014 -1.8325 -1.9862
 5573TIP3    H238211   4.541   3.209  15.070  1.4224  1.9402 -1.8041
 5574TIP3   OH238212   3.855   0.787  13.598 -0.4365  0.1171 -0.0104
 5574TIP3    H138213   3.876   0.693  13.600 -0.9625 -0.0002  0.3226
 5574TIP3    H238214   3.917   0.826  13.659 -2.6189 -0.5490  2.8266
 5575TIP3   OH238215   5.036   3.289   0.451  0.7027  0.7201  0.2502
 5575TIP3    H138216   4.960   3.277   0.394  1.5653 -0.0351 -0.7836
 5575TIP3    H238217   5.033   3.215   0.512  2.9709 -2.0199 -2.6168
 5576TIP3   OH238218   2.574   5.356  14.319 -0.2923  0.3288  0.1043
 5576TIP3    H138219   2.617   5.437  14.345 -0.3619  0.2668  0.4209
 5576TIP3    H238220   2.505   5.343  14.385  0.4022 -0.5381  0.6881
 5577TIP3   OH238221   0.374   5.337  11.399  0.2378 -0.2848  0.1706
 5577TIP3    H138222   0.370   5.287  11.480  0.1007 -0.7529 -0.1175
 5577TIP3    H238223   0.305   5.299  11.344  0.8650 -0.5269 -0.4711
 5578TIP3   OH238224   6.188   2.313  11.802 -0.1810 -0.4439 -0.3739
 5578TIP3    H138225   6.268   2.291  11.851 -1.4359 -1.0946  1.4982
 5578TIP3    H238226   6.217   2.322  11.711  2.0054 -0.7017  0.2487
 5579TIP3   OH238227   3.547   1.888  13.747  0.2837 -0.5168  0.2772
 5579TIP3    H138228   3.475   1.856  13.692 -1.6738  2.8235  0.6224
 5579TIP3    H238229   3.622   1.834  13.723 -1.8931 -3.0605 -1.3563
 5580TIP3   OH238230   6.056   3.623  14.013 -0.0954 -0.0338 -0.1722
 5580TIP3    H138231   6.127   3.659  14.066 -1.7168  0.3517  1.8631
 5580TIP3    H238232   5.976   3.659  14.051 -1.4806 -1.3443 -1.6533
 5581TIP3   OH238233   3.041   0.803   0.560 -0.3058 -0.3623 -0.1607
 5581TIP3    H138234   2.971   0.752   0.517 -0.1290 -1.4537  0.7815
 5581TIP3    H238235   3.112   0.740   0.571  0.0500  0.1803  0.7367
 5582TIP3   OH238236   0.386   6.218  12.581 -0.1712  0.3987 -1.4127
 5582TIP3    H138237   0.376   6.258  12.495 -0.6433  1.8541 -0.7202
 5582TIP3    H238238   0.443   6.279  12.629  0.4563 -0.6179 -0.8262
 5583TIP3   OH238239   4.497   3.246  16.822  0.1135 -0.3029  0.3266
 5583TIP3    H138240   4.432   3.228  16.889  1.5379  0.5106  2.0079
 5583TIP3    H238241   4.557   3.171  16.825  0.2018 -0.2506 -0.0194
 5584TIP3   OH238242   4.224   3.067  12.855  0.2194  0.2736  0.3619
 5584TIP3    H138243   4.170   3.102  12.926  0.4735 -0.0403  0.7149
 5584TIP3    H238244   4.256   2.983  12.889 -0.2202 -0.2046 -0.3982
 5585TIP3   OH238245   5.693   1.325   0.900 -0.0489 -0.0136 -0.6817
 5585TIP3    H138246   5.743   1.313   0.981  3.0538  1.5630 -2.1750
 5585TIP3    H238247   5.618   1.378   0.926  0.4799 -0.1327  1.2648
 5586TIP3   OH238248   2.833   4.593   2.806 -0.0437  0.0712  0.7487
 5586TIP3    H138249   2.770   4.543   2.754 -0.1271  1.7170 -0.8104
 5586TIP3    H238250   2.814   4.568   2.896 -0.3828 -2.3207  0.0920
 5587TIP3   OH238251   3.132   1.767   1.288  0.3233 -0.0236  0.2416
 5587TIP3    H138252   3.048   1.748   1.329  0.8673 -1.2423  0.8486
 5587TIP3    H238253   3.196   1.760   1.360  1.1255 -0.7191 -0.5224
 5588TIP3   OH238254   3.023   4.497  13.880  0.5168  0.1026  0.4935
 5588TIP3    H138255   3.073   4.462  13.954  0.6216  0.6619  0.6868
 5588TIP3    H238256   2.969   4.567  13.917  1.0389  0.8166 -0.0712
 5589TIP3   OH238257   4.812   2.326   1.975  0.5734  0.3594 -0.1204
 5589TIP3    H138258   4.855   2.261   2.030 -0.4348  0.5567  0.9280
 5589TIP3    H238259   4.761   2.380   2.036 -1.4103 -0.0498 -1.3330
 5590TIP3   OH238260   2.698   0.819  12.040 -0.5655 -0.5625  0.5734
 5590TIP3    H138261   2.696   0.746  11.978  0.6871  0.5290 -0.8010
 5590TIP3    H238262   2.763   0.880  12.005  0.5865 -0.1115  3.2006
 5591TIP3   OH238263   3.563   0.304  16.712 -0.3374  0.0582 -0.6896
 5591TIP3    H138264   3.574   0.217  16.675  0.6689 -0.3930  0.5684
 5591TIP3    H238265   3.649   0.325  16.749 -0.8213  1.1837 -0.1485
 5592TIP3   OH238266   3.906   5.384  13.745  0.5456 -0.4660 -0.4755
 5592TIP3    H138267   3.996   5.360  13.725  0.7103  0.1965 -0.5531
 5592TIP3    H238268   3.913   5.445  13.819  0.0618 -1.5222  0.4583
 5593TIP3   OH238269   1.572   3.891  13.287  0.1336 -0.0670  0.4254
 5593TIP3    H138270   1.663   3.893  13.315 -0.1515  0.8983  1.3570
 5593TIP3    H238271   1.526   3.945  13.351 -1.5571 -2.6615  1.5840
 5594TIP3   OH238272   5.735   2.760   2.680  0.2671  0.0568  0.9519
 5594TIP3    H138273   5.822   2.768   2.641  0.3298 -0.4033  0.9987
 5594TIP3    H238274   5.683   2.827   2.635  0.3976 -0.3173  0.2278
 5595TIP3   OH238275   3.509   1.563  13.782  0.1090  0.0158 -0.0210
 5595TIP3    H138276   3.441   1.560  13.849 -0.8063 -0.8617 -0.9422
 5595TIP3    H238277   3.578   1.505  13.815 -0.4927 -0.6915  0.0316
 5596TIP3   OH238278   5.910   3.949  13.414 -0.0861  0.3949 -0.1975
 5596TIP3    H138279   5.848   4.000  13.465  1.7640  1.0899  1.4902
 5596TIP3    H238280   5.881   3.958  13.323 -1.3906  2.1616  0.3550
 5597TIP3   OH238281   1.016   1.601  15.888  0.2124 -0.3806  0.3040
 5597TIP3    H138282   1.062   1.566  15.964  2.2621 -1.1413 -1.1721
 5597TIP3    H238283   1.002   1.525  15.832 -2.7792 -0.1345  0.5641
 5598TIP3   OH238284   5.529   3.734  17.096  0.1389  0.0923  0.0334
 5598TIP3    H138285   5.512   3.641  17.114  0.9318 -0.5353 -2.1199
 5598TIP3    H238286   5.443   3.773  17.087 -0.2212 -0.8471 -0.8049
 5599TIP3   OH238287   4.604   6.219  14.478 -0.1240 -0.3501 -0.5484
 5599TIP3    H138288   4.638   6.139  14.438 -0.3802 -0.4036 -0.6600
 5599TIP3    H238289   4.588   6.195  14.569  0.5924 -0.1904 -0.3718
 5600TIP3   OH238290   0.947   6.801   5.710  0.3792  0.5240 -0.7493
 5600TIP3    H138291   0.936   6.749   5.789 -0.3373 -1.2209 -1.9383
 5600TIP3    H238292   0.958   6.891   5.742 -0.7578  0.0013  1.2748
 5601TIP3   OH238293   1.384   2.543   5.298  0.7609 -0.1454 -0.0879
 5601TIP3    H138294   1.316   2.545   5.366  0.8564  1.0361 -0.0065
 5601TIP3    H238295   1.466   2.555   5.345  0.7819  1.2350 -0.4433
 5602TIP3   OH238296   4.222   3.173  14.279 -0.3041  0.1617 -0.8571
 5602TIP3    H138297   4.144   3.121  14.264 -0.7035  0.6314 -0.4337
 5602TIP3    H238298   4.196   3.238  14.343  0.7452 -0.3846  0.1633
 5603TIP3   OH238299   3.024   0.494   4.267 -0.1599  0.6337 -0.2402
 5603TIP3    H138300   2.982   0.523   4.348 -0.5291  0.5505 -0.4022
 5603TIP3    H238301   3.055   0.406   4.286 -0.1294  0.6644 -0.1461
 5604TIP3   OH238302   1.826   5.062   4.413 -0.0443  0.3755 -0.3333
 5604TIP3    H138303   1.779   5.019   4.343  0.3238  0.6982 -0.7849
 5604TIP3    H238304   1.819   5.002   4.487 -0.4233  0.0281 -0.6464
 5605TIP3   OH238305   1.066   5.003   4.886 -0.0934 -0.4264 -0.8131
 5605TIP3    H138306   0.994   4.969   4.833 -1.1348  0.2402  0.1321
 5605TIP3    H238307   1.055   4.960   4.971  0.2334  0.1773 -0.4651
 5606TIP3   OH238308   3.140   6.282   1.066 -0.1184 -0.3260  0.1863
 5606TIP3    H138309   3.136   6.368   1.025  0.6165 -0.8057 -0.9379
 5606TIP3    H238310   3.233   6.262   1.072 -0.2809 -1.0275  0.4831
 5607TIP3   OH238311   4.441   2.082   0.015 -0.1821 -0.3392 -0.3878
 5607TIP3    H138312   4.435   2.015  -0.054  2.2159 -0.8402 -0.1978
 5607TIP3    H238313   4.535   2.091   0.031 -0.6398 -0.0741  2.6602
 5608TIP3   OH238314   2.508   5.273  13.077  0.9526  0.1696 -0.4451
 5608TIP3    H138315   2.426   5.286  13.124 -0.8599  0.1216 -3.3601
 5608TIP3    H238316   2.574   5.317  13.131 -1.4932  3.1546  0.3985
 5609TIP3   OH238317   3.273   0.880   3.843 -0.2772  0.4475 -0.2486
 5609TIP3    H138318   3.283   0.864   3.937  1.3740 -1.6015 -0.6900
 5609TIP3    H238319   3.192   0.836   3.819  0.1262 -0.4506 -0.0273
 5610TIP3   OH238320   5.667   0.703  10.901  0.7214  0.2007 -0.2770
 5610TIP3    H138321   5.590   0.706  10.957  0.2330  0.5743 -0.9678
 5610TIP3    H238322   5.713   0.623  10.928  0.7753  0.6320  1.0140
 5611TIP3   OH238323   3.767   3.982   2.410 -0.1082  0.0367 -0.1072
 5611TIP3    H138324   3.783   4.077   2.404 -1.0082  0.1253 -1.9151
 5611TIP3    H238325   3.780   3.962   2.502  0.6910  1.8142  0.2230
 5612TIP3   OH238326   3.703   1.044   3.208 -0.1109 -0.3441 -0.1478
 5612TIP3    H138327   3.652   1.112   3.253  2.1774  0.9507  0.6657
 5612TIP3    H238328   3.723   1.081   3.122  1.5041  0.2511  0.4535
 5613TIP3   OH238329   0.316   5.006   1.634 -0.3302 -0.2865 -0.4213
 5613TIP3    H138330   0.233   5.001   1.587 -0.3212  1.0279 -0.6131
 5613TIP3    H238331   0.341   5.099   1.630  0.1893 -0.3170  1.2770
 5614TIP3   OH238332   5.025   3.405  13.043  0.0016 -0.2131 -0.7366
 5614TIP3    H138333   5.028   3.376  13.134  0.0256 -0.2392 -0.7453
 5614TIP3    H238334   5.110   3.448  13.029 -1.0565  2.2946  0.0697
 5615TIP3   OH238335   5.986   6.150   5.770  0.6584 -0.2928  0.0052
 5615TIP3    H138336   5.929   6.226   5.761  1.0715  0.0262  0.0683
 5615TIP3    H238337   6.022   6.136   5.683 -0.9554 -1.6525 -0.5018
 5616TIP3   OH238338   3.123   4.554   3.268  0.2671  0.0092 -0.4800
 5616TIP3    H138339   3.151   4.489   3.332 -0.9691  0.0082  0.0718
 5616TIP3    H238340   3.035   4.527   3.243 -0.1167  1.2619 -0.5210
 5617TIP3   OH238341   0.696   6.380  16.591 -0.5518  0.0335  1.0136
 5617TIP3    H138342   0.623   6.323  16.568 -0.1125 -0.6110  1.1566
 5617TIP3    H238343   0.771   6.343  16.545  0.4951 -1.6942  3.8019
 5618TIP3   OH238344   6.017   0.286   3.418 -0.3451  0.8968 -0.1416
 5618TIP3    H138345   6.045   0.224   3.351 -1.6279  1.5595 -1.3206
 5618TIP3    H238346   5.984   0.230   3.489 -0.6904  0.1951 -0.8333
 5619TIP3   OH238347   1.915   5.140  11.449 -0.0195 -0.1759 -0.0212
 5619TIP3    H138348   1.969   5.182  11.382 -0.1110  1.6583  0.9894
 5619TIP3    H238349   1.845   5.098  11.400  1.0260 -0.6028 -1.2015
 5620TIP3   OH238350   3.714   1.168  13.477  0.6102  0.0770 -0.5615
 5620TIP3    H138351   3.645   1.115  13.518 -0.6955  1.1294 -1.3046
 5620TIP3    H238352   3.780   1.179  13.546 -0.5653  0.1097  0.6044
 5621TIP3   OH238353   5.094   4.991  15.045  0.6219 -0.4011 -0.1313
 5621TIP3    H138354   5.027   4.953  14.988  0.2806 -0.7253  0.4768
 5621TIP3    H238355   5.143   4.916  15.079 -1.1868 -0.5300  2.5049
 5622TIP3   OH238356   6.325   2.030  16.206  0.3706 -0.8495 -0.0605
 5622TIP3    H138357   6.275   2.097  16.252  1.2200 -0.4554  0.3096
 5622TIP3    H238358   6.388   1.998  16.270  0.1786 -1.7980 -0.3230
 5623TIP3   OH238359   5.871   6.833   1.392 -0.3180 -0.1770 -0.1526
 5623TIP3    H138360   5.896   6.806   1.303  1.3063  0.0025  0.2131
 5623TIP3    H238361   5.806   6.901   1.379 -0.2326 -0.2812 -1.2096
 5624TIP3   OH238362   5.935   0.548   1.774  0.1905 -0.0972 -0.1168
 5624TIP3    H138363   6.022   0.509   1.760 -0.5638 -1.9033 -0.1176
 5624TIP3    H238364   5.882   0.514   1.702 -0.6390  0.6092  0.1519
 5625TIP3   OH238365   0.722   5.604   4.940 -0.5490  0.0571  0.0426
 5625TIP3    H138366   0.682   5.527   4.900  1.8160 -1.7876  0.9492
 5625TIP3    H238367   0.728   5.668   4.869  0.4631 -1.8761 -1.7317
 5626TIP3   OH238368   4.567   0.319  15.945  0.2648 -0.3915  0.5911
 5626TIP3    H138369   4.653   0.276  15.942  1.3981  1.7402  0.8506
 5626TIP3    H238370   4.526   0.285  16.025  0.0719 -2.7610 -0.4364
 5627TIP3   OH238371   2.443   5.885  15.767  0.2764  0.3463 -0.3926
 5627TIP3    H138372   2.448   5.812  15.829 -0.1730  2.3945  2.2245
 5627TIP3    H238373   2.478   5.849  15.686  3.1937 -1.8649  1.6180
 5628TIP3   OH238374   4.808   0.125  16.272 -0.3530 -0.0357  0.1065
 5628TIP3    H138375   4.767   0.108  16.357 -0.4097 -1.2005 -0.1429
 5628TIP3    H238376   4.780   0.214  16.250 -1.5979 -0.2741  0.6009
 5629TIP3   OH238377   1.902   6.418  16.410 -0.3890  0.3149  0.1043
 5629TIP3    H138378   1.884   6.347  16.472  1.3667 -1.1471 -0.9239
 5629TIP3    H238379   1.944   6.486  16.462 -0.9278  0.0622  0.8866
 5630TIP3   OH238380   5.476   0.122  15.359  0.1284 -0.2442 -0.7314
 5630TIP3    H138381   5.477   0.154  15.269  0.0604 -0.5529 -0.8419
 5630TIP3    H238382   5.516   0.035  15.355  0.5940 -0.0519 -0.3822
 5631TIP3   OH238383   5.475   6.570   0.769  0.1115  0.0093  0.4645
 5631TIP3    H138384   5.539   6.606   0.707  1.3674 -2.1525  0.3712
 5631TIP3    H238385   5.528   6.546   0.846 -0.8387 -0.5120  0.9696
 5632TIP3   OH238386   3.652   3.870   0.602 -0.5228 -0.1230  0.3385
 5632TIP3    H138387   3.619   3.924   0.530 -0.7451 -0.1508  0.4193
 5632TIP3    H238388   3.574   3.843   0.649 -0.6833 -2.7228 -1.2224
 5633TIP3   OH238389   5.296   5.637  14.680  0.2526 -0.7353  0.5884
 5633TIP3    H138390   5.263   5.614  14.768 -1.2152 -2.1324 -0.2609
 5633TIP3    H238391   5.291   5.555  14.631 -1.2071  0.4810 -1.4586
 5634TIP3   OH238392   1.516   5.660  16.340  0.1713  0.1663 -0.2636
 5634TIP3    H138393   1.499   5.566  16.342 -0.3532  0.2529  1.7915
 5634TIP3    H238394   1.440   5.698  16.385 -0.6087  1.7750 -2.7604
 5635TIP3   OH238395   0.718   3.461  12.156 -0.0903 -0.7166  0.2102
 5635TIP3    H138396   0.695   3.369  12.167  0.6044 -0.9862 -0.4985
 5635TIP3    H238397   0.712   3.476  12.062 -0.7691  0.1243  0.3733
 5636TIP3   OH238398   4.844   0.670  15.092 -0.9487  0.6905 -0.6727
 5636TIP3    H138399   4.820   0.658  15.000 -1.8338 -0.6432 -0.3061
 5636TIP3    H238400   4.934   0.702  15.090 -0.2848 -1.0819 -1.9923
 5637TIP3   OH238401   4.727   5.413  12.449 -0.2084 -0.0119 -0.3412
 5637TIP3    H138402   4.791   5.458  12.394 -1.0349 -1.1781 -2.3922
 5637TIP3    H238403   4.659   5.385  12.388 -1.5303 -0.8191  1.4115
 5638TIP3   OH238404   0.171   5.564   3.242 -0.1764 -0.4575  0.6413
 5638TIP3    H138405   0.169   5.595   3.152 -0.0124 -1.2826  0.3449
 5638TIP3    H238406   0.236   5.619   3.286  0.9226 -1.0937 -0.1441
 5639TIP3   OH238407   5.905   6.369  13.577 -0.3979  0.4216  0.5523
 5639TIP3    H138408   5.894   6.447  13.522  2.3484  0.5918  0.0526
 5639TIP3    H238409   5.951   6.400  13.654  0.2290 -0.5956  0.6136
 5640TIP3   OH238410   3.988   5.453  12.823  0.2725  0.5641 -0.4891
 5640TIP3    H138411   3.967   5.360  12.815 -0.7562  0.7458 -0.1169
 5640TIP3    H238412   3.909   5.499  12.793  0.3806  1.2935  0.2686
 5641TIP3   OH238413   4.380   5.177  13.996  0.4600  0.0113 -0.3547
 5641TIP3    H138414   4.377   5.102  14.055 -1.0185  1.4969  1.5737
 5641TIP3    H238415   4.399   5.252  14.053 -1.6990  1.6067 -1.5951
 5642TIP3   OH238416   1.676   5.361  15.509 -0.0180 -0.4608  0.9796
 5642TIP3    H138417   1.730   5.440  15.507 -0.9384  0.1783 -0.2536
 5642TIP3    H238418   1.738   5.289  15.499  0.7171  0.1894  0.7504
 5643TIP3   OH238419   4.606   3.996   2.841 -0.3548  0.1184  0.3187
 5643TIP3    H138420   4.654   3.915   2.853 -0.6966 -0.0018  0.9660
 5643TIP3    H238421   4.612   4.015   2.748 -0.9419 -1.0626  0.0262
 5644TIP3   OH238422   4.683   4.501  15.846 -0.3173 -0.1471 -0.0610
 5644TIP3    H138423   4.704   4.468  15.759  0.3870 -1.0236  0.4245
 5644TIP3    H238424   4.703   4.429  15.905 -0.2674  0.6078  0.8845
 5645TIP3   OH238425   6.224   5.388  16.079  0.3828 -0.8475 -0.5612
 5645TIP3    H138426   6.278   5.457  16.042 -0.0747  0.7605  1.6384
 5645TIP3    H238427   6.286   5.320  16.105  1.4669  0.9245  1.8417
 5646TIP3   OH238428   5.408   1.724  13.067  0.2716  0.0362  0.3941
 5646TIP3    H138429   5.332   1.669  13.085 -1.3050  1.7930 -0.5983
 5646TIP3    H238430   5.403   1.794  13.132  1.1826  0.0708  0.4450
 5647TIP3   OH238431   3.745   2.078  11.558  0.8741  0.3562 -0.0834
 5647TIP3    H138432   3.779   2.117  11.477 -1.9629  1.2677 -0.9575
 5647TIP3    H238433   3.676   2.018  11.529 -0.0482  0.5214  1.6259
 5648TIP3   OH238434   1.155   3.061   1.739  0.0151 -0.9147 -0.2242
 5648TIP3    H138435   1.105   3.143   1.734  1.5833  0.0617 -0.7206
 5648TIP3    H238436   1.234   3.085   1.788  0.3920 -2.1960 -0.1860
 5649TIP3   OH238437   0.271   1.993   1.888 -0.4192 -0.0275  0.3952
 5649TIP3    H138438   0.275   1.976   1.794  1.8435  0.3261  0.3600
 5649TIP3    H238439   0.270   1.906   1.928 -0.1857 -0.1928  0.0518
 5650TIP3   OH238440   4.283   3.902  17.075 -0.5016  0.0030 -0.5103
 5650TIP3    H138441   4.288   3.918  16.980 -0.6704  0.6973 -0.4052
 5650TIP3    H238442   4.190   3.911  17.096 -0.4037  0.3252 -0.2022
 5651TIP3   OH238443   4.470   6.074  13.344 -0.3687  0.5073  0.5774
 5651TIP3    H138444   4.500   6.055  13.433 -0.9807  0.1783  0.7166
 5651TIP3    H238445   4.538   6.036  13.287 -1.3804 -1.9067  0.8479
 5652TIP3   OH238446   1.937   0.129   0.948 -0.1977  0.6050  0.3907
 5652TIP3    H138447   1.965   0.220   0.937  3.8895 -0.4093  0.6885
 5652TIP3    H238448   1.858   0.121   0.894  1.2064  3.5141 -2.4303
 5653TIP3   OH238449   1.311   5.865   3.863  0.1585 -0.1625  0.4497
 5653TIP3    H138450   1.367   5.893   3.791 -1.3018 -1.0676 -1.1322
 5653TIP3    H238451   1.271   5.946   3.895  1.4229  0.3419  0.8013
 5654TIP3   OH238452   2.590   1.076  13.349 -0.2203  0.3386 -0.0887
 5654TIP3    H138453   2.605   1.168  13.329 -1.3289  0.8334  1.1686
 5654TIP3    H238454   2.584   1.073  13.445 -1.3192 -0.8478 -0.1602
 5655TIP3   OH238455   3.006   3.008  15.991  0.6247  0.9244  0.1255
 5655TIP3    H138456   3.096   3.018  16.023 -0.1586  1.3901  2.3904
 5655TIP3    H238457   2.952   3.050  16.058 -1.3931 -0.6640 -0.3847
 5656TIP3   OH238458   2.586   1.511  16.009 -0.0356  0.2747 -0.5408
 5656TIP3    H138459   2.492   1.494  16.016 -0.2299  1.1922 -0.7778
 5656TIP3    H238460   2.599   1.540  15.919  0.6156 -0.6030 -0.7421
 5657TIP3   OH238461   1.213   0.762   1.318  0.0588  0.3358 -0.0052
 5657TIP3    H138462   1.197   0.771   1.412 -1.1206  0.5829 -0.2131
 5657TIP3    H238463   1.128   0.782   1.278  0.9743  1.9515 -1.2141
 5658TIP3   OH238464   2.129   0.157   0.689 -0.3381 -0.3299  0.1888
 5658TIP3    H138465   2.123   0.184   0.597  1.2332 -0.6421 -0.0255
 5658TIP3    H238466   2.098   0.234   0.738 -0.0537  0.2832 -0.5686
 5659TIP3   OH238467   1.243   5.720  15.856 -0.2904  0.2921  0.0898
 5659TIP3    H138468   1.285   5.805  15.843 -0.0957  0.1766 -0.0380
 5659TIP3    H238469   1.151   5.741  15.872 -0.9498  0.3561 -3.1383
 5660TIP3   OH238470   1.016   0.734  10.938 -0.1635 -0.5761  0.7391
 5660TIP3    H138471   1.059   0.819  10.930 -0.3804 -0.4441  0.9614
 5660TIP3    H238472   0.974   0.736  11.024 -0.1686 -0.9080  0.7447
 5661TIP3   OH238473   0.835   5.982   1.300 -0.1858  0.9208 -0.2094
 5661TIP3    H138474   0.931   5.976   1.302 -0.1955  0.8396  0.1000
 5661TIP3    H238475   0.812   5.958   1.210 -0.1093 -2.4878  0.5164
 5662TIP3   OH238476   0.776   2.341   4.469  0.3999 -0.5385  0.7583
 5662TIP3    H138477   0.684   2.336   4.493  0.6498  2.4051  2.8150
 5662TIP3    H238478   0.777   2.337   4.374 -1.8210 -0.9123  0.7205
 5663TIP3   OH238479   0.727   0.867  12.706  0.3999  0.2333  0.0567
 5663TIP3    H138480   0.647   0.856  12.655  1.7310 -1.9824 -1.7857
 5663TIP3    H238481   0.746   0.779  12.739  3.4730 -0.0474 -1.9866
 5664TIP3   OH238482   4.630   3.703   4.250  0.0708  0.4665  0.2753
 5664TIP3    H138483   4.647   3.618   4.209  0.8326 -0.4540  2.3104
 5664TIP3    H238484   4.548   3.690   4.298  0.2441  0.8451  0.6775
 5665TIP3   OH238485   3.973   2.698   5.754  0.0586  0.1498  0.1833
 5665TIP3    H138486   4.049   2.642   5.739 -0.2767 -0.3527  0.3124
 5665TIP3    H238487   3.977   2.720   5.847  0.1440  0.2663  0.1517
 5666TIP3   OH238488   5.124   0.127  11.929 -0.0050 -0.1380  0.2625
 5666TIP3    H138489   5.113   0.219  11.953 -1.6343  0.0716 -1.1601
 5666TIP3    H238490   5.206   0.126  11.879  1.7673 -0.0733  2.9747
 5667TIP3   OH238491   0.392   3.539  13.937  0.0345 -0.1545  0.0296
 5667TIP3    H138492   0.464   3.581  13.890  1.2428  0.3721  2.2074
 5667TIP3    H238493   0.411   3.555  14.029 -2.6547 -0.4278  0.7102
 5668TIP3   OH238494   0.218   4.499  13.841  0.1341 -0.2442  0.1100
 5668TIP3    H138495   0.171   4.532  13.917  0.7078 -0.0595  0.3840
 5668TIP3    H238496   0.169   4.421  13.815  0.4225 -0.8046  1.1877
 5669TIP3   OH238497   1.064   2.181  16.553 -0.3563  0.5968 -0.7308
 5669TIP3    H138498   1.117   2.102  16.547 -0.9015  0.2869 -1.6305
 5669TIP3    H238499   1.029   2.180  16.642  2.6526  1.8146  0.6027
 5670TIP3   OH238500   2.971   5.034   4.737  0.4284 -0.4990  0.0642
 5670TIP3    H138501   3.027   5.036   4.659 -1.1702 -2.6665 -1.2373
 5670TIP3    H238502   2.914   4.959   4.724 -2.0394  0.9112  1.8525
 5671TIP3   OH238503   5.631   3.909  15.458 -0.4020  0.3859 -0.2720
 5671TIP3    H138504   5.678   3.870  15.531 -0.7017 -1.0126 -0.7974
 5671TIP3    H238505   5.624   3.839  15.393 -2.6111  0.7288 -0.4847
 5672TIP3   OH238506   6.334   0.231   3.854 -0.7983 -0.2937  0.5403
 5672TIP3    H138507   6.308   0.174   3.782 -2.4239  0.7464  0.2377
 5672TIP3    H238508   6.370   0.309   3.811 -0.3469 -0.3001  0.8987
 5673TIP3   OH238509   6.325   6.010  15.138  0.1751  0.0974 -0.1501
 5673TIP3    H138510   6.388   5.958  15.089  2.0331  1.7595  0.3529
 5673TIP3    H238511   6.242   5.964  15.127  0.9874 -0.8995 -2.7891
 5674TIP3   OH238512   6.432   1.229  11.059  0.1679 -0.2933  0.2867
 5674TIP3    H138513   6.353   1.193  11.018 -0.3513 -1.3697  2.1001
 5674TIP3    H238514   6.495   1.157  11.055 -0.0141 -0.5594  1.6237
 5675TIP3   OH238515   5.616   2.972  12.984 -0.0415 -0.1082 -0.7284
 5675TIP3    H138516   5.699   2.938  13.018 -0.2442  1.0458  1.0702
 5675TIP3    H238517   5.552   2.906  13.010  0.3194 -1.2187 -2.5035
 5676TIP3   OH238518   5.440   4.830  14.982  0.1805  0.2477 -0.0074
 5676TIP3    H138519   5.352   4.837  15.020  0.2105  2.1037 -0.2047
 5676TIP3    H238520   5.429   4.856  14.891  0.8334 -0.2256 -0.2285
 5677TIP3   OH238521   1.849   3.432   0.744 -0.4053  0.3398 -0.0531
 5677TIP3    H138522   1.855   3.397   0.833  3.0297  0.4976 -0.0903
 5677TIP3    H238523   1.940   3.441   0.716 -1.3471  1.8711 -2.9926
 5678TIP3   OH238524   0.805   3.808   4.950 -0.7792 -0.6719 -0.2935
 5678TIP3    H138525   0.751   3.755   4.891 -0.0586 -2.2631  0.4302
 5678TIP3    H238526   0.768   3.896   4.943 -0.3474 -0.6233 -3.5808
 5679TIP3   OH238527   3.631   5.355   0.827  0.3345  0.1975 -0.3347
 5679TIP3    H138528   3.719   5.371   0.790  0.4239 -0.3268 -0.3508
 5679TIP3    H238529   3.572   5.372   0.754  0.5465 -1.4228 -0.9167
 5680TIP3   OH238530   2.088   4.703  14.403 -0.5442 -0.4865 -0.0391
 5680TIP3    H138531   2.038   4.682  14.324 -2.6662 -0.2520  1.1738
 5680TIP3    H238532   2.043   4.778  14.441  0.5412 -0.4767  1.3236
 5681TIP3   OH238533   0.311   2.019   4.357  0.6081 -0.1314 -0.0181
 5681TIP3    H138534   0.354   2.100   4.385 -1.5445  0.7030  1.0714
 5681TIP3    H238535   0.222   2.026   4.390  0.2936 -2.9042 -0.0192
 5682TIP3   OH238536   4.969   6.317  15.078  0.0582  0.6172  0.2239
 5682TIP3    H138537   4.978   6.405  15.039  1.5344  0.7489  0.7976
 5682TIP3    H238538   4.918   6.331  15.157  1.0561  1.1405  0.8001
 5683TIP3   OH238539   4.356   3.998   5.952 -0.8316  0.0772 -0.6615
 5683TIP3    H138540   4.383   4.059   5.884  0.4878 -0.5320 -0.7229
 5683TIP3    H238541   4.438   3.963   5.986 -1.5023 -0.1880  0.7299
 5684TIP3   OH238542   0.970   2.196   4.555 -0.3323  0.1179  0.1634
 5684TIP3    H138543   0.973   2.184   4.650 -0.1519  0.2044  0.1693
 5684TIP3    H238544   0.890   2.248   4.541 -1.4613 -1.5567  0.0761
 5685TIP3   OH238545   1.095   3.076  13.187  0.3724 -0.2524 -0.1733
 5685TIP3    H138546   1.083   2.991  13.143  1.7581 -0.5585 -0.0138
 5685TIP3    H238547   1.161   3.121  13.133  0.5751  0.2041  0.4469
 5686TIP3   OH238548   4.700   1.113  11.469  0.1814 -0.5121  0.2892
 5686TIP3    H138549   4.763   1.184  11.459  1.4765 -1.5050  0.9348
 5686TIP3    H238550   4.615   1.151  11.447  1.1286  0.6034 -1.7610
 5687TIP3   OH238551   0.116   5.450   1.437 -0.1845 -0.1687  0.1270
 5687TIP3    H138552   0.098   5.539   1.469 -0.2012 -0.1086 -0.0521
 5687TIP3    H238553   0.129   5.460   1.343 -0.2375 -0.3656  0.0986
 5688TIP3   OH238554   3.011   5.002   5.604 -0.1584  0.5226 -0.1197
 5688TIP3    H138555   2.934   4.986   5.550  0.1357 -0.6393 -0.2241
 5688TIP3    H238556   3.037   4.915   5.636  0.4267  1.0273  0.8505
 5689TIP3   OH238557   6.497   2.918  13.118  0.1153  0.3921  0.2284
 5689TIP3    H138558   6.406   2.933  13.143  0.1149 -0.9078  1.0834
 5689TIP3    H238559   6.495   2.914  13.022 -0.7859  0.1034  0.2497
 5690TIP3   OH238560   1.153   6.795  11.642 -0.0283 -0.6120  0.1892
 5690TIP3    H138561   1.143   6.709  11.600 -2.2458 -0.2603 -0.1086
 5690TIP3    H238562   1.173   6.774  11.733  1.3803 -1.4102 -0.2735
 5691TIP3   OH238563   6.525   5.035  12.647  0.4738  0.1675 -0.0558
 5691TIP3    H138564   6.454   5.049  12.709  1.8560  2.9013  1.0760
 5691TIP3    H238565   6.565   4.952  12.674 -0.4768  0.0802  1.1288
 5692TIP3   OH238566   3.718   0.648  15.486 -0.4844  0.1422 -0.2393
 5692TIP3    H138567   3.746   0.706  15.414 -0.3071 -0.6022 -0.7778
 5692TIP3    H238568   3.717   0.561  15.447  0.2725 -0.3644  0.8551
 5693TIP3   OH238569   3.935   0.362  15.424  0.2129  0.0737  0.2011
 5693TIP3    H138570   3.936   0.424  15.351 -0.7907  0.6422  0.6453
 5693TIP3    H238571   4.009   0.390  15.479 -0.1916  0.8632  0.3659
 5694TIP3   OH238572   2.807   2.442  11.555  0.3085 -0.8853 -0.3605
 5694TIP3    H138573   2.750   2.496  11.500 -0.0478  0.0077  0.8341
 5694TIP3    H238574   2.894   2.453  11.517  0.6551  2.2776  0.9838
 5695TIP3   OH238575   1.175   1.873  11.944 -0.3881  0.4533 -0.0189
 5695TIP3    H138576   1.143   1.870  11.854  0.9570  2.5492 -0.6477
 5695TIP3    H238577   1.268   1.850  11.937 -0.8513 -2.1702  1.2847
 5696TIP3   OH238578   1.780   3.340   5.319 -0.4400  0.1076  0.1638
 5696TIP3    H138579   1.735   3.392   5.253  2.0212  0.9304 -1.0051
 5696TIP3    H238580   1.850   3.397   5.350 -0.5529 -0.8543  2.3641
 5697TIP3   OH238581   6.104   4.391  16.954  0.4651  0.7256  0.7546
 5697TIP3    H138582   6.079   4.441  17.032 -0.9953  2.0611 -0.5000
 5697TIP3    H238583   6.145   4.455  16.896  1.0353 -0.1315  0.1840
 5698TIP3   OH238584   5.932   0.248   4.573  0.5098 -0.2190 -0.0807
 5698TIP3    H138585   5.955   0.165   4.615  0.9864 -0.1037 -0.0974
 5698TIP3    H238586   6.006   0.266   4.515 -0.9640 -1.3107 -2.4390
 5699TIP3   OH238587   2.321   5.073   3.675 -0.0087 -0.0498  0.0865
 5699TIP3    H138588   2.234   5.108   3.659 -0.4470 -1.2361 -0.2424
 5699TIP3    H238589   2.358   5.060   3.587  1.0385  1.6908  0.2335
 5700TIP3   OH238590   3.368   5.948  15.662 -0.3885  0.5115 -0.1923
 5700TIP3    H138591   3.372   5.915  15.572 -0.5129 -0.2562  0.0715
 5700TIP3    H238592   3.394   5.873  15.716 -0.5163  0.9006  0.4225
 5701TIP3   OH238593   2.748   1.163  16.918  0.4221 -0.5113 -0.1664
 5701TIP3    H138594   2.743   1.068  16.915 -1.9074 -0.4232 -1.8321
 5701TIP3    H238595   2.826   1.185  16.867  0.9397 -1.5305  0.1782
 5702TIP3   OH238596   4.616   6.024   1.834 -0.1032 -0.5188  0.0686
 5702TIP3    H138597   4.572   6.052   1.753 -1.3483 -1.5131  0.3601
 5702TIP3    H238598   4.629   6.104   1.883 -2.0323 -0.1953  0.1430
 5703TIP3   OH238599   0.110   2.845  11.574  1.0120 -0.0587 -0.2648
 5703TIP3    H138600   0.053   2.776  11.608  1.8305 -2.0585 -2.6465
 5703TIP3    H238601   0.090   2.921  11.628 -1.2649 -1.6437  1.3246
 5704TIP3   OH238602   5.256   3.005  13.998 -0.3484  0.0854  0.7217
 5704TIP3    H138603   5.317   2.936  14.024  0.4859  0.0968 -1.0577
 5704TIP3    H238604   5.308   3.086  14.004 -0.7081  0.3113  0.8286
 5705TIP3   OH238605   2.440   5.103  16.974 -0.1317  0.0821  0.3329
 5705TIP3    H138606   2.532   5.080  16.984  0.2586  0.2703 -2.0753
 5705TIP3    H238607   2.441   5.181  16.917 -1.7703  0.0029  0.1462
 5706TIP3   OH238608   5.166   4.810   0.213 -0.7435 -0.5140 -0.1570
 5706TIP3    H138609   5.257   4.820   0.183 -0.9330 -0.1277 -0.6177
 5706TIP3    H238610   5.135   4.900   0.225 -1.3569 -0.6155 -0.8947
 5707TIP3   OH238611   3.606   1.816   3.528 -0.0678 -0.3688 -0.3370
 5707TIP3    H138612   3.675   1.760   3.565  0.2791  0.4957  0.3703
 5707TIP3    H238613   3.525   1.782   3.564  0.1567 -0.3336  0.2067
 5708TIP3   OH238614   6.797   2.385  11.354 -0.3675 -0.2923  0.4482
 5708TIP3    H138615   6.816   2.440  11.278 -1.1419 -1.1213 -0.3670
 5708TIP3    H238616   6.864   2.410  11.418 -0.1988  0.9989 -0.1913
 5709TIP3   OH238617   0.884   2.005  14.194 -0.3561  0.4282 -0.1247
 5709TIP3    H138618   0.893   1.910  14.192 -0.0217  0.4684 -0.7932
 5709TIP3    H238619   0.964   2.036  14.237  0.4259  0.5037 -1.5902
 5710TIP3   OH238620   2.268   6.047  15.614  0.5249  0.1305 -0.5200
 5710TIP3    H138621   2.332   6.009  15.675 -0.2038 -0.5890 -0.1925
 5710TIP3    H238622   2.321   6.080  15.542  1.4601  1.3833  0.6757
 5711TIP3   OH238623   6.487   4.154  13.465  0.5558  0.3981  0.0124
 5711TIP3    H138624   6.445   4.227  13.510  0.7561 -1.0003  2.6787
 5711TIP3    H238625   6.474   4.079  13.523  1.0803 -1.5391 -2.2005
 5712TIP3   OH238626   5.874   0.536   2.296  0.0218  1.0382  0.1157
 5712TIP3    H138627   5.889   0.629   2.315  0.3045  0.5449  2.6845
 5712TIP3    H238628   5.780   0.529   2.279 -0.1164  1.6928  0.5957
 5713TIP3   OH238629   6.837   3.645  16.361  0.7829 -0.2642  0.1513
 5713TIP3    H138630   6.927   3.679  16.367  0.2854  1.3167 -0.9645
 5713TIP3    H238631   6.786   3.704  16.416 -0.1421  1.0949 -2.0446
 5714TIP3   OH238632   5.872   4.231   3.851  0.1939 -0.0442  0.1114
 5714TIP3    H138633   5.880   4.158   3.790 -0.2204  0.3681 -0.4479
 5714TIP3    H238634   5.803   4.204   3.912 -0.7331  0.3052 -0.7441
 5715TIP3   OH238635   5.041   0.636  11.210  0.5356  0.0048 -0.1420
 5715TIP3    H138636   4.973   0.585  11.165 -0.1503 -0.4021  1.2786
 5715TIP3    H238637   5.123   0.595  11.182  0.0919 -0.6890 -0.4774
 5716TIP3   OH238638   6.006   3.965   1.943 -0.4066 -0.0335  0.4961
 5716TIP3    H138639   5.925   3.978   1.895 -0.6543  0.6860  1.0875
 5716TIP3    H238640   5.999   4.024   2.019  1.2087  1.0197 -0.1136
 5717TIP3   OH238641   2.824   1.318  15.618  0.0051  0.0895 -0.3210
 5717TIP3    H138642   2.845   1.411  15.621  1.2513 -0.1280 -1.2328
 5717TIP3    H238643   2.734   1.312  15.650  0.8590  1.2697  2.6462
 5718TIP3   OH238644   0.180   4.698  11.123 -0.4426  0.3831  0.1607
 5718TIP3    H138645   0.184   4.684  11.218  1.6944  3.5382  0.6765
 5718TIP3    H238646   0.138   4.784  11.114 -1.3819 -0.2377 -1.8413
 5719TIP3   OH238647   6.595   1.687  13.531  0.0890 -0.3100 -0.1733
 5719TIP3    H138648   6.594   1.599  13.568 -0.4232 -1.4085 -2.5837
 5719TIP3    H238649   6.541   1.739  13.590 -1.7163 -2.2451 -0.0113
 5720TIP3   OH238650   4.532   0.978  12.171 -0.1224  1.0087 -0.1026
 5720TIP3    H138651   4.511   1.069  12.191  0.5767  1.7489 -2.4166
 5720TIP3    H238652   4.562   0.979  12.080 -1.7202 -1.7913 -0.7888
 5721TIP3   OH238653   3.655   2.169   4.988  0.0974 -0.6389  0.4406
 5721TIP3    H138654   3.738   2.179   5.036  1.6826  2.7066 -2.4957
 5721TIP3    H238655   3.648   2.075   4.972  4.0606 -1.0174 -0.1622
 5722TIP3   OH238656   3.924   5.937  13.412 -0.0267 -0.2902  0.3517
 5722TIP3    H138657   3.885   5.959  13.328 -0.6994  1.6395  1.1141
 5722TIP3    H238658   4.009   5.982  13.412  0.3439 -0.9716  0.3910
 5723TIP3   OH238659   0.848   4.142   5.638 -0.2931  0.0602 -0.1398
 5723TIP3    H138660   0.918   4.167   5.699 -0.5268 -0.7684  0.4958
 5723TIP3    H238661   0.768   4.149   5.691 -0.6887  0.9232 -0.8347
 5724TIP3   OH238662   0.491   2.380   3.096 -0.3764 -0.1742  0.2415
 5724TIP3    H138663   0.539   2.431   3.161 -2.2179 -0.0031  1.5482
 5724TIP3    H238664   0.513   2.289   3.116  0.3038 -0.0535  0.0627
 5725TIP3   OH238665   4.365   0.119  14.949 -0.2347 -0.0548  0.4425
 5725TIP3    H138666   4.431   0.188  14.959  0.9476 -1.5230  4.5198
 5725TIP3    H238667   4.344   0.121  14.855  1.6469  3.9920 -0.1461
 5726TIP3   OH238668   6.362   1.781  11.291 -0.1275 -0.0125  0.0545
 5726TIP3    H138669   6.411   1.717  11.240  0.9626  1.5865 -0.9967
 5726TIP3    H238670   6.415   1.861  11.287 -1.8457  1.2211  0.5854
 5727TIP3   OH238671   6.379   6.124   1.280 -0.3356 -0.8857 -0.2124
 5727TIP3    H138672   6.357   6.200   1.334  0.0207 -2.1004  1.7535
 5727TIP3    H238673   6.304   6.065   1.289  0.0305 -1.4061 -0.4820
 5728TIP3   OH238674   2.347   3.046   4.926 -0.0550 -0.0040 -0.1919
 5728TIP3    H138675   2.383   3.082   4.845 -0.2351 -0.4388 -0.4678
 5728TIP3    H238676   2.311   2.961   4.900 -2.1691  0.8149 -0.1594
 5729TIP3   OH238677   3.373   6.253  12.397  0.5041 -0.4005  0.5168
 5729TIP3    H138678   3.376   6.159  12.382 -0.5596 -0.7369  2.2053
 5729TIP3    H238679   3.304   6.265  12.461  0.9361  1.4927  0.6803
 5730TIP3   OH238680   4.524   5.712  13.331  0.0956 -0.4215 -0.0437
 5730TIP3    H138681   4.541   5.650  13.259  0.8252 -0.2310 -0.0399
 5730TIP3    H238682   4.611   5.744  13.357 -0.2408  0.3016  0.2255
 5731TIP3   OH238683   6.818   1.144   1.848 -0.0351 -0.3199  0.2933
 5731TIP3    H138684   6.908   1.143   1.816 -0.4341 -0.6918 -0.8435
 5731TIP3    H238685   6.824   1.101   1.934  0.8598 -0.3723  0.2193
 5732TIP3   OH238686   1.959   1.632  11.157 -0.0711  0.6215 -0.0996
 5732TIP3    H138687   1.969   1.724  11.132 -0.6109  0.3831 -1.2748
 5732TIP3    H238688   1.876   1.605  11.116 -0.3366 -0.1668  0.9194
 5733TIP3   OH238689   6.169   3.863  12.325 -0.0420  0.1589  0.2866
 5733TIP3    H138690   6.137   3.797  12.386 -1.0554  0.0852 -0.3036
 5733TIP3    H238691   6.207   3.814  12.253  0.8214  0.2432  0.6780
 5734TIP3   OH238692   1.422   1.676  12.985  0.2140  0.3354 -0.5779
 5734TIP3    H138693   1.343   1.683  12.931  0.0246  1.6708 -0.1726
 5734TIP3    H238694   1.393   1.629  13.063  0.6258 -2.1387 -1.8253
 5735TIP3   OH238695   4.590   4.157   4.481 -0.1802 -0.1725  0.6428
 5735TIP3    H138696   4.591   4.123   4.570 -0.1016 -2.3461 -0.1263
 5735TIP3    H238697   4.655   4.104   4.434 -1.4080 -0.2527 -1.0826
 5736TIP3   OH238698   5.626   5.365  13.330  0.0768  0.2357  0.0176
 5736TIP3    H138699   5.622   5.451  13.290  0.6889  0.4131  0.3308
 5736TIP3    H238700   5.574   5.309  13.272 -0.5518  0.8624 -0.0382
 5737TIP3   OH238701   5.635   5.124   4.292  0.1714 -0.7662  0.5332
 5737TIP3    H138702   5.656   5.097   4.382 -1.7491 -0.9693  0.9646
 5737TIP3    H238703   5.586   5.206   4.303  0.3233 -0.5393 -0.3806
 5738TIP3   OH238704   3.818   5.680  16.367  0.6011 -0.0905  0.2254
 5738TIP3    H138705   3.822   5.661  16.461  0.0639  0.9085  0.4756
 5738TIP3    H238706   3.889   5.629  16.329  0.8258 -0.5176  1.1811
 5739TIP3   OH238707   6.627   1.248  17.027 -0.3985  0.1141 -0.0677
 5739TIP3    H138708   6.680   1.192  16.971  1.3448  0.7065  0.9267
 5739TIP3    H238709   6.636   1.336  16.989 -1.1718  0.1355 -0.2281
 5740TIP3   OH238710   6.400   3.106   5.081  0.0367 -0.2035 -0.0939
 5740TIP3    H138711   6.342   3.030   5.088  0.0701 -0.0779  3.3024
 5740TIP3    H238712   6.341   3.180   5.068 -0.1112 -0.5743 -1.7645
 5741TIP3   OH238713   5.686   6.671   0.635 -0.3364  0.3530  0.5076
 5741TIP3    H138714   5.770   6.647   0.596 -0.7625  0.8363 -0.7818
 5741TIP3    H238715   5.701   6.757   0.673 -0.0130  0.0489  1.0664
 5742TIP3   OH238716   4.947   1.698  16.886  0.2057  0.0625  0.7608
 5742TIP3    H138717   5.012   1.631  16.866  0.8818  1.5212 -2.7464
 5742TIP3    H238718   4.999   1.775  16.912 -0.0902  0.7831 -0.6240
 5743TIP3   OH238719   4.386   3.642   3.745 -0.1336 -0.0949  0.7879
 5743TIP3    H138720   4.426   3.722   3.711 -0.0910 -0.5454 -0.2738
 5743TIP3    H238721   4.343   3.669   3.826 -1.4644  1.3562 -0.3344
 5744TIP3   OH238722   6.586   5.875   4.680  0.1578 -0.2355  0.4182
 5744TIP3    H138723   6.630   5.944   4.731  0.0741 -1.0200  1.5856
 5744TIP3    H238724   6.525   5.835   4.741  0.3625 -1.5003 -0.1669
 5745TIP3   OH238725   3.431   4.712  16.993  0.2354 -0.2361  0.5005
 5745TIP3    H138726   3.338   4.737  16.994  0.1716 -0.4651  1.4314
 5745TIP3    H238727   3.446   4.674  17.080  1.0956 -0.5962  0.2006
 5746TIP3   OH238728   5.950   0.744   0.319 -0.0909 -0.3657 -0.1203
 5746TIP3    H138729   6.007   0.681   0.275  2.1971  2.1682 -1.1060
 5746TIP3    H238730   5.897   0.781   0.248 -1.0393 -0.7734  0.3614
 5747TIP3   OH238731   3.288   3.873   1.456  0.1728  0.4542 -0.4273
 5747TIP3    H138732   3.231   3.949   1.458  1.2067  1.3882 -2.5987
 5747TIP3    H238733   3.229   3.798   1.446 -0.7863  1.0758  0.4177
 5748TIP3   OH238734   5.322   2.097   5.177  0.1852 -0.2978 -0.2317
 5748TIP3    H138735   5.367   2.069   5.256  0.2499  0.5258  0.0402
 5748TIP3    H238736   5.344   2.190   5.170 -0.6921 -0.1142 -0.6292
 5749TIP3   OH238737   6.356   5.187   3.578  0.5372  0.2748  0.3240
 5749TIP3    H138738   6.432   5.143   3.615 -0.0350 -0.2554  0.9054
 5749TIP3    H238739   6.324   5.243   3.649  0.1491  0.1719  0.2364
 5750TIP3   OH238740   5.736   3.988  12.843 -0.7010 -0.5787 -0.0418
 5750TIP3    H138741   5.781   4.034  12.773 -0.3512  2.0035  1.7571
 5750TIP3    H238742   5.655   3.956  12.803 -0.5037  0.7924 -1.6170
 5751TIP3   OH238743   0.752   6.344   4.899 -0.3023  0.5442 -0.4732
 5751TIP3    H138744   0.690   6.386   4.959  0.4166  0.8464  0.0700
 5751TIP3    H238745   0.729   6.379   4.813 -1.4089  0.0284 -0.4017
 5752TIP3   OH238746   0.382   4.340   3.967  0.1093 -0.3184 -0.2269
 5752TIP3    H138747   0.425   4.322   3.883  1.2605  1.1647  0.0048
 5752TIP3    H238748   0.451   4.379   4.021 -0.5165 -1.5399  1.5522
 5753TIP3   OH238749   2.221   6.050   6.239 -0.3136  0.6350 -0.0763
 5753TIP3    H138750   2.171   5.969   6.244 -1.4355  1.3919  1.5426
 5753TIP3    H238751   2.312   6.021   6.233 -0.6688 -0.7422  0.7140
 5754TIP3   OH238752   5.553   3.082  13.680  0.1573 -0.2861 -0.0867
 5754TIP3    H138753   5.587   3.171  13.683 -0.5357 -0.0460  0.8012
 5754TIP3    H238754   5.568   3.047  13.768 -2.0341 -0.1058  0.4193
 5755TIP3   OH238755   0.381   1.401  15.568 -0.0665 -0.3434 -0.4503
 5755TIP3    H138756   0.327   1.442  15.636 -3.2120 -2.1376 -1.6166
 5755TIP3    H238757   0.452   1.463  15.553 -1.0297  1.6071  2.1904
 5756TIP3   OH238758   1.938   6.357   0.668 -0.1930 -0.2871 -0.4042
 5756TIP3    H138759   1.920   6.290   0.734  1.0603  0.2606  0.5292
 5756TIP3    H238760   1.934   6.440   0.716  2.0936  0.0426 -0.6528
 5757TIP3   OH238761   5.568   2.028   3.809  0.7175 -0.2346  0.1203
 5757TIP3    H138762   5.646   1.975   3.826  0.6495 -0.2617  0.3572
 5757TIP3    H238763   5.561   2.031   3.714  1.3057  0.1921  0.0768
 5758TIP3   OH238764   0.806   5.721   3.181 -0.1023 -0.3626 -0.4377
 5758TIP3    H138765   0.869   5.789   3.156 -0.2250  0.7096  1.9437
 5758TIP3    H238766   0.857   5.659   3.233 -0.6590 -0.3461  0.1414
 5759TIP3   OH238767   4.226   6.636   3.108  0.4673  0.1592 -0.1906
 5759TIP3    H138768   4.155   6.699   3.123  0.5937 -0.1553  2.0863
 5759TIP3    H238769   4.183   6.561   3.068 -0.2559  0.4669 -0.0168
 5760TIP3   OH238770   4.476   6.330  16.903  0.3964 -0.4991  0.0184
 5760TIP3    H138771   4.427   6.350  16.983  1.9487 -1.4291  1.2845
 5760TIP3    H238772   4.484   6.414  16.858  1.2553  0.5173  1.9327
 5761TIP3   OH238773   1.937   2.131  13.745 -0.4491 -0.5374  0.1628
 5761TIP3    H138774   1.999   2.134  13.672 -0.5983  0.1493  0.0557
 5761TIP3    H238775   1.904   2.220  13.751  0.8454 -0.1229  2.1757
 5762TIP3   OH238776   1.343   0.039  15.236 -0.2871  0.3259 -0.5160
 5762TIP3    H138777   1.408   0.061  15.169  1.2281 -1.9846  0.0693
 5762TIP3    H238778   1.393  -0.010  15.302 -2.3025  0.0282  0.8686
 5763TIP3   OH238779   2.547   4.129   3.178 -0.0549  0.1167  0.2831
 5763TIP3    H138780   2.458   4.165   3.172 -0.0856 -0.0359 -0.3155
 5763TIP3    H238781   2.598   4.196   3.222 -0.3040  0.5298 -0.0482
 5764TIP3   OH238782   1.500   0.202  14.103  0.2444  0.2546  0.9166
 5764TIP3    H138783   1.413   0.168  14.128  0.0380 -0.3235 -0.5270
 5764TIP3    H238784   1.506   0.286  14.150 -1.7474  1.0537 -0.1159
 5765TIP3   OH238785   4.083   3.192  13.058  0.0279  0.1761 -0.2735
 5765TIP3    H138786   4.137   3.270  13.044 -0.5448  0.4387 -1.0266
 5765TIP3    H238787   4.105   3.164  13.147  0.3282  1.1233 -0.0415
 5766TIP3   OH238788   2.927   6.710  16.703  0.5557  0.0302 -0.3082
 5766TIP3    H138789   2.854   6.765  16.733  0.3237 -1.8313  3.0998
 5766TIP3    H238790   2.890   6.659  16.631 -1.7361 -1.0379  1.4726
 5767TIP3   OH238791   4.638   1.865  15.712  0.3379  0.1403  0.0906
 5767TIP3    H138792   4.631   1.832  15.622 -0.7893  1.2775 -0.2696
 5767TIP3    H238793   4.647   1.786  15.765  1.1086 -0.5487 -1.0146
 5768TIP3   OH238794   6.023   0.250  13.694  0.1114  0.1144 -0.8081
 5768TIP3    H138795   5.986   0.314  13.634  0.2225  2.2759  1.2976
 5768TIP3    H238796   5.948   0.203  13.729 -0.2062  0.8615 -0.4740
 5769TIP3   OH238797   6.244   6.200   0.622 -0.3826 -0.2974 -0.6310
 5769TIP3    H138798   6.311   6.132   0.615  0.2340  0.1858  0.3471
 5769TIP3    H238799   6.201   6.183   0.705  1.1575  1.6742  0.6729
 5770TIP3   OH238800   2.842   1.022   0.415  0.0075 -0.4384  0.1888
 5770TIP3    H138801   2.776   1.066   0.361  0.5870  0.5007  0.2345
 5770TIP3    H238802   2.913   1.000   0.355 -0.2388 -1.2729  0.1796
 5771TIP3   OH238803   0.357   3.251   4.292  0.2957  0.1754 -0.2136
 5771TIP3    H138804   0.309   3.187   4.239 -1.0979 -0.0531  1.2354
 5771TIP3    H238805   0.385   3.203   4.369  0.8057  0.8954  0.0610
 5772TIP3   OH238806   4.214   6.287   3.696  0.4119  0.0623  0.0343
 5772TIP3    H138807   4.222   6.238   3.615  2.7478  0.2929  0.0707
 5772TIP3    H238808   4.182   6.224   3.760  2.4072 -1.2168 -0.1515
 5773TIP3   OH238809   3.125   3.341   0.180  0.1372  0.3589  0.2916
 5773TIP3    H138810   3.058   3.321   0.115  0.8031 -1.2610  0.0623
 5773TIP3    H238811   3.160   3.427   0.153 -0.7940  0.5185 -0.4501
 5774TIP3   OH238812   3.520   6.808   1.237  0.0940 -0.5985  0.4368
 5774TIP3    H138813   3.442   6.860   1.219  1.7576  1.5919 -1.0723
 5774TIP3    H238814   3.550   6.841   1.322 -0.8022 -1.7334  1.2142
 5775TIP3   OH238815   2.243   3.444  15.569 -0.2846 -0.0554  0.0374
 5775TIP3    H138816   2.300   3.517  15.591  0.9119 -0.9612  0.0324
 5775TIP3    H238817   2.302   3.375  15.540 -1.5018 -0.3583 -1.9769
 5776TIP3   OH238818   6.575   4.738  11.322 -0.4687  0.2440  0.2893
 5776TIP3    H138819   6.642   4.718  11.257 -0.3025 -0.6243  0.7187
 5776TIP3    H238820   6.492   4.726  11.276 -0.3478  0.1985  0.0827
 5777TIP3   OH238821   6.746   1.208  12.557  0.6863  0.0921  0.4324
 5777TIP3    H138822   6.739   1.203  12.462 -0.2728  1.1526  0.4319
 5777TIP3    H238823   6.839   1.225  12.573  0.7612  0.4605 -0.3465
 5778TIP3   OH238824   0.805   4.925   2.575 -0.5714 -0.8131 -0.0600
 5778TIP3    H138825   0.826   5.011   2.539 -1.2483 -1.4612 -2.1294
 5778TIP3    H238826   0.773   4.944   2.663  1.4990  0.8142  0.4287
 5779TIP3   OH238827   5.764   4.153  16.727 -0.5131  0.3892  0.6107
 5779TIP3    H138828   5.719   4.093  16.668  1.1344 -0.1388 -0.1615
 5779TIP3    H238829   5.755   4.112  16.813 -0.6335 -0.2417  0.3088
 5780TIP3   OH238830   2.546   0.239   2.285 -0.2532  0.1731 -0.2404
 5780TIP3    H138831   2.490   0.310   2.316  0.9394  1.5777 -1.1669
 5780TIP3    H238832   2.514   0.220   2.197 -1.2033 -1.1693  0.3657
 5781TIP3   OH238833   1.941   1.390   5.473  0.6357  0.0337 -0.2016
 5781TIP3    H138834   1.944   1.364   5.381 -1.3376 -2.3230  0.3102
 5781TIP3    H238835   1.953   1.309   5.522  0.1285  0.9871  1.6319
 5782TIP3   OH238836   0.279   3.967   3.876  0.1737 -0.4585  0.5796
 5782TIP3    H138837   0.322   3.914   3.944 -0.7139 -0.6317  1.0233
 5782TIP3    H238838   0.191   3.931   3.870  0.4460 -0.9182 -1.1984
 5783TIP3   OH238839   0.417   1.083   6.547  0.0887 -0.5732  0.1449
 5783TIP3    H138840   0.486   1.096   6.612 -1.3414  1.9293  1.2911
 5783TIP3    H238841   0.448   1.131   6.470  1.0442 -2.1902 -0.5275
 5784TIP3   OH238842   0.135   2.702  10.565  0.6977  0.8824 -0.4086
 5784TIP3    H138843   0.102   2.690  10.654  1.3196 -0.4281 -0.3326
 5784TIP3    H238844   0.216   2.753  10.576  0.5310  1.1203 -0.2740
 5785TIP3   OH238845   3.116   4.464  14.499 -0.1265 -0.3253  0.4431
 5785TIP3    H138846   3.021   4.471  14.507 -0.0428  1.1793  0.4743
 5785TIP3    H238847   3.145   4.432  14.585 -0.5342  0.1572  0.7664
 5786TIP3   OH238848   5.327   5.522   4.059 -0.3655  0.2622 -0.2954
 5786TIP3    H138849   5.371   5.450   4.013  0.3014 -0.7137  1.7133
 5786TIP3    H238850   5.240   5.488   4.080 -0.8757  0.9139 -1.2957
 5787TIP3   OH238851   3.809   5.549   3.676 -0.1418  0.4404 -0.5365
 5787TIP3    H138852   3.754   5.495   3.733  2.0495 -2.4255 -0.8638
 5787TIP3    H238853   3.795   5.513   3.588  1.7345 -0.0307 -0.6947
 5788TIP3   OH238854   5.577   3.128  16.050  0.3708 -0.1609  0.5394
 5788TIP3    H138855   5.575   3.202  15.990  2.6534 -0.8249 -0.4485
 5788TIP3    H238856   5.491   3.087  16.040 -0.2364  1.2270 -0.2930
 5789TIP3   OH238857   3.826   5.352  11.697  0.6925 -0.4705 -0.1713
 5789TIP3    H138858   3.736   5.383  11.681  0.7568 -1.0360 -1.7484
 5789TIP3    H238859   3.873   5.431  11.724 -0.3146 -0.2055  0.9181
 5790TIP3   OH238860   2.184   5.782  15.512  0.7382 -0.8029 -0.6934
 5790TIP3    H138861   2.255   5.806  15.453  0.5517 -2.0244 -1.4526
 5790TIP3    H238862   2.153   5.865  15.548  2.2947 -0.2212 -0.6386
 5791TIP3   OH238863   5.329   1.714  13.725  0.0403 -0.2163  0.4090
 5791TIP3    H138864   5.293   1.745  13.808  0.6768 -1.6085  1.2425
 5791TIP3    H238865   5.419   1.689  13.747 -0.5780 -3.1091 -0.0391
 5792TIP3   OH238866   0.364   4.042   4.702  0.1349  0.1235  0.5873
 5792TIP3    H138867   0.354   4.103   4.775 -3.6662  0.9254 -0.4319
 5792TIP3    H238868   0.353   4.095   4.624  0.7562 -1.2741 -0.4929
 5793TIP3   OH238869   2.355   0.062  12.743  0.3623  0.6449 -0.3846
 5793TIP3    H138870   2.380   0.116  12.668  1.3338  3.1125  1.5840
 5793TIP3    H238871   2.317   0.123  12.806 -1.0084 -1.4304  0.9529
 5794TIP3   OH238872   1.184   4.711  15.696 -0.3301 -0.0359 -0.4594
 5794TIP3    H138873   1.111   4.699  15.756  1.7965 -1.7940  1.9862
 5794TIP3    H238874   1.163   4.657  15.620 -1.8411  0.0486 -0.1180
 5795TIP3   OH238875   3.007   2.891  16.802  0.5992  0.0876 -0.4157
 5795TIP3    H138876   3.022   2.961  16.740 -0.8685 -0.8070 -1.8649
 5795TIP3    H238877   3.035   2.811  16.757  1.9665 -0.3401  1.0818
 5796TIP3   OH238878   2.811   6.561  10.966 -0.4312 -0.1430 -0.3028
 5796TIP3    H138879   2.888   6.559  11.023 -1.8851  1.2146  1.8506
 5796TIP3    H238880   2.847   6.555  10.877  2.2436  1.4278  0.5701
 5797TIP3   OH238881   1.982   1.073  14.331 -0.4820  0.0762  0.1415
 5797TIP3    H138882   1.923   0.999  14.317 -1.8431  1.3335 -1.1881
 5797TIP3    H238883   1.982   1.086  14.426 -1.2657 -0.8272  0.2796
 5798TIP3   OH238884   3.591   2.480  15.122  0.1026 -0.5470 -0.1208
 5798TIP3    H138885   3.609   2.463  15.214 -0.5549 -0.5893  0.0025
 5798TIP3    H238886   3.675   2.463  15.078  1.5260  2.9593  0.8599
 5799TIP3   OH238887   5.448   1.455   5.199  0.5955 -0.7440 -0.6206
 5799TIP3    H138888   5.461   1.360   5.199 -1.3088 -1.0788  0.4091
 5799TIP3    H238889   5.526   1.490   5.241  2.1932 -1.6455 -2.6847
 5800TIP3   OH238890   1.852   3.369  12.477 -0.2410  0.5210 -0.1171
 5800TIP3    H138891   1.850   3.274  12.462  0.7378  0.3456  0.7238
 5800TIP3    H238892   1.937   3.397  12.444 -0.0696  0.9107  0.6186
 5801TIP3   OH238893   2.702   4.559  17.070  0.3271  0.1283 -0.1999
 5801TIP3    H138894   2.630   4.498  17.062  0.1218  0.4387 -0.8161
 5801TIP3    H238895   2.662   4.641  17.098  0.5258  0.1275  0.0914
 5802TIP3   OH238896   1.865   6.347  12.732 -0.1058  0.1280  0.1839
 5802TIP3    H138897   1.918   6.407  12.679 -0.7926  0.5306 -0.0457
 5802TIP3    H238898   1.777   6.383  12.729 -0.2744 -0.1824  1.1080
 5803TIP3   OH238899   0.854   1.204   0.067  0.1568 -0.1060 -0.3858
 5803TIP3    H138900   0.897   1.118   0.058  0.5221  0.1291 -1.0180
 5803TIP3    H238901   0.814   1.202   0.153  0.1314 -0.9310 -0.4060
 5804TIP3   OH238902   4.852   4.655  16.064  0.0892  0.4862  0.6953
 5804TIP3    H138903   4.927   4.708  16.035 -0.1905  0.0955 -0.8316
 5804TIP3    H238904   4.892   4.581  16.110  0.7918 -0.3840 -1.1725
 5805TIP3   OH238905   0.391   5.506  13.193  0.3100  1.4264  0.2746
 5805TIP3    H138906   0.406   5.594  13.227 -1.1066  1.2324  1.4905
 5805TIP3    H238907   0.400   5.449  13.268 -1.2332  0.8109  0.0401
 5806TIP3   OH238908   2.611   1.279   5.542  1.1875  0.1907  0.2484
 5806TIP3    H138909   2.557   1.329   5.603  1.5393 -0.9455  1.5434
 5806TIP3    H238910   2.590   1.187   5.561  2.1978 -0.2149 -0.5153
 5807TIP3   OH238911   2.502   1.191   2.336 -0.2036  0.2446 -0.5042
 5807TIP3    H138912   2.534   1.102   2.317  1.1569  0.5411  0.2974
 5807TIP3    H238913   2.432   1.178   2.400 -0.6737 -0.3035 -1.1107
 5808TIP3   OH238914   1.940   5.221   0.488  0.4640  0.1878 -0.2342
 5808TIP3    H138915   1.854   5.258   0.508 -0.0884 -1.6855  1.0799
 5808TIP3    H238916   2.001   5.269   0.545 -0.0460 -0.0865  0.5434
 5809TIP3   OH238917   4.314   0.853  14.597 -0.1115  0.2366 -0.0572
 5809TIP3    H138918   4.276   0.778  14.551  0.7371  1.0672 -2.2241
 5809TIP3    H238919   4.239   0.910  14.614 -0.6601 -0.7447  1.0144
 5810TIP3   OH238920   2.945   3.643  16.515 -0.3941 -0.6453  0.8193
 5810TIP3    H138921   2.994   3.723  16.536 -3.1074  1.1430  0.7584
 5810TIP3    H238922   2.941   3.642  16.419 -1.4090 -0.1536  0.8488
 5811TIP3   OH238923   4.370   4.245   3.364 -1.2000  0.5106  0.0366
 5811TIP3    H138924   4.388   4.298   3.442 -2.7312  0.5756  0.3656
 5811TIP3    H238925   4.456   4.235   3.322 -0.2654  0.0577  1.9712
 5812TIP3   OH238926   4.222   6.031  14.117 -0.1174  0.5140 -0.3854
 5812TIP3    H138927   4.318   6.034  14.114  0.0577 -0.8201  1.5598
 5812TIP3    H238928   4.197   5.969  14.049  0.6207 -0.9867  0.6542
 5813TIP3   OH238929   6.132   2.920   1.494 -0.0790  0.1939 -0.2428
 5813TIP3    H138930   6.215   2.882   1.522  0.2080  0.5382 -0.6339
 5813TIP3    H238931   6.066   2.866   1.538  0.3254 -0.6414 -0.6238
 5814TIP3   OH238932   3.606   5.085   0.482  0.3726  0.0906 -0.4013
 5814TIP3    H138933   3.572   5.161   0.530 -0.7506 -0.9832  0.5773
 5814TIP3    H238934   3.562   5.088   0.397  0.8965  0.9268 -0.6560
 5815TIP3   OH238935   2.210   2.611  15.586 -0.4506 -0.2707 -0.7791
 5815TIP3    H138936   2.286   2.562  15.617 -1.6536 -2.1346 -0.6532
 5815TIP3    H238937   2.155   2.620  15.663 -1.2908 -0.7554 -1.3122
 5816TIP3   OH238938   4.074   5.231  11.683 -0.0905  0.0077  0.0066
 5816TIP3    H138939   3.987   5.266  11.700  0.0345  0.7078 -0.7462
 5816TIP3    H238940   4.086   5.240  11.588  0.5480 -0.6702  0.0121
 5817TIP3   OH238941   2.747   3.118   0.116  0.3596 -0.2608  0.0111
 5817TIP3    H138942   2.699   3.060   0.057  2.7248 -2.9123  0.5144
 5817TIP3    H238943   2.732   3.081   0.203  0.6063  0.8997  0.5650
 5818TIP3   OH238944   6.429   2.821   4.566 -0.0723  0.1407 -0.0651
 5818TIP3    H138945   6.484   2.849   4.638 -0.0735  1.0881 -0.4153
 5818TIP3    H238946   6.481   2.838   4.487  0.0458 -1.1378 -0.2977
 5819TIP3   OH238947   5.955   4.043   2.325 -0.0253 -0.4582  0.0510
 5819TIP3    H138948   5.875   3.994   2.309 -0.0506 -1.0297  1.7323
 5819TIP3    H238949   5.966   4.097   2.247 -2.4705  0.2200  0.0981
 5820TIP3   OH238950   5.498   0.929  16.127  0.2454  0.7614  0.1546
 5820TIP3    H138951   5.536   0.859  16.180  0.2374  1.1760  0.7155
 5820TIP3    H238952   5.407   0.935  16.157 -0.0736  0.2607 -0.6808
 5821TIP3   OH238953   1.938   3.822  13.086 -0.0414 -0.2253  0.0251
 5821TIP3    H138954   2.012   3.856  13.137  0.5283 -3.2066  1.3587
 5821TIP3    H238955   1.861   3.842  13.140  0.2783 -1.0205  0.7856
 5822TIP3   OH238956   0.331   1.055   4.858 -0.3822  0.3460  0.0836
 5822TIP3    H138957   0.337   1.141   4.899  0.9518 -0.8065  2.4886
 5822TIP3    H238958   0.401   1.055   4.793 -0.5878  1.1500 -0.1510
 5823TIP3   OH238959   3.088   5.734   5.116  0.0855  0.3059  0.1251
 5823TIP3    H138960   3.089   5.658   5.058 -1.0787 -0.0723  0.5586
 5823TIP3    H238961   3.014   5.786   5.086  0.5436  0.9973  0.1789
 5824TIP3   OH238962   1.552   1.369   4.874 -0.5243  0.0245 -0.1817
 5824TIP3    H138963   1.611   1.316   4.928 -1.2713  1.4854  2.1863
 5824TIP3    H238964   1.608   1.436   4.836 -0.3534  0.3277  0.5971
 5825TIP3   OH238965   3.198   1.998   5.756 -0.4253  0.2742  0.4283
 5825TIP3    H138966   3.127   2.045   5.713 -1.2753  0.5127  2.0048
 5825TIP3    H238967   3.155   1.942   5.820  0.7996  2.0503  3.0013
 5826TIP3   OH238968   2.142   4.505  12.199  0.3417 -0.1268 -0.6044
 5826TIP3    H138969   2.124   4.599  12.201  1.9958  0.2278  2.0178
 5826TIP3    H238970   2.099   4.474  12.119 -2.5141  2.3460 -0.1802
 5827TIP3   OH238971   3.758   4.071   3.519 -0.0077  0.3372 -0.4945
 5827TIP3    H138972   3.740   4.098   3.609  0.3883  0.1590 -0.3636
 5827TIP3    H238973   3.813   4.142   3.484 -2.2419  1.7303 -1.4109
 5828TIP3   OH238974   4.609   5.434   3.658  0.4646  0.4427  0.0201
 5828TIP3    H138975   4.579   5.517   3.622 -1.6955  0.6098  1.9568
 5828TIP3    H238976   4.646   5.456   3.743  1.6400 -0.3821 -0.2499
 5829TIP3   OH238977   5.707   1.103  15.747  0.1955  0.2520  0.3751
 5829TIP3    H138978   5.717   1.181  15.692 -0.4787  0.1138  0.0395
 5829TIP3    H238979   5.700   1.031  15.684  0.7130 -0.0747  0.6802
 5830TIP3   OH238980   2.298   1.798  11.080  0.1095  0.5362  0.0830
 5830TIP3    H138981   2.275   1.706  11.087  0.1675  0.4910 -0.2709
 5830TIP3    H238982   2.298   1.815  10.985 -1.5705  1.3342  0.1959
 5831TIP3   OH238983   5.189   3.424   0.259 -0.0951 -0.0186 -0.3397
 5831TIP3    H138984   5.277   3.390   0.246  0.0804 -0.8404  2.3729
 5831TIP3    H238985   5.165   3.395   0.347 -2.8475  0.7022 -0.7685
 5832TIP3   OH238986   5.653   2.316   6.075  0.3137  0.6550  0.6121
 5832TIP3    H138987   5.571   2.266   6.074  0.6947  0.0141  1.2952
 5832TIP3    H238988   5.654   2.359   6.160 -0.5009  2.6860 -0.3252
 5833TIP3   OH238989   0.186   2.895   2.828  0.4381 -0.3426 -0.2017
 5833TIP3    H138990   0.237   2.931   2.900 -2.1123 -0.2539  1.7070
 5833TIP3    H238991   0.155   2.810   2.860  0.0872 -0.7752 -1.6138
 5834TIP3   OH238992   2.234   5.895   5.792 -0.5574 -0.1228  0.4061
 5834TIP3    H138993   2.304   5.945   5.835 -0.4661 -0.2127  0.3632
 5834TIP3    H238994   2.173   5.874   5.863 -1.0710  0.8380  0.2673
 5835TIP3   OH238995   1.498   6.392   1.362  0.5736  0.6253 -0.3371
 5835TIP3    H138996   1.506   6.416   1.454  0.5139 -0.9046  0.0846
 5835TIP3    H238997   1.587   6.372   1.334  0.5000  0.3837 -0.4039
 5836TIP3   OH238998   5.147   3.243   3.150 -0.1693 -0.4209 -0.2478
 5836TIP3    H138999   5.070   3.298   3.164  0.4629 -0.1062  2.9932
 5836TIP3    H239000   5.118   3.154   3.171 -0.5003 -0.9499 -2.7237
 5837TIP3   OH239001   6.402   6.625  10.532  0.3902 -0.2963  0.3548
 5837TIP3    H139002   6.478   6.570  10.514 -0.1746 -1.3591  1.0632
 5837TIP3    H239003   6.407   6.695  10.468  1.7049 -0.6082  0.0862
 5838TIP3   OH239004   2.724   5.755  11.580  0.6312  0.9992 -0.0548
 5838TIP3    H139005   2.711   5.736  11.487 -2.4792  1.1860  0.2342
 5838TIP3    H239006   2.726   5.851  11.585 -0.1851  1.0125  0.1454
 5839TIP3   OH239007   6.802   1.523   2.570 -0.2072  0.0713  0.0977
 5839TIP3    H139008   6.891   1.489   2.582  0.7015  1.9734 -0.8997
 5839TIP3    H239009   6.748   1.445   2.558  0.9925 -1.2305  2.4381
 5840TIP3   OH239010   3.511   4.472   6.347 -0.1162 -0.0365  0.4282
 5840TIP3    H139011   3.465   4.508   6.423 -0.1864 -2.4921  1.6398
 5840TIP3    H239012   3.498   4.377   6.354  1.8208 -0.5057 -1.3926
 5841TIP3   OH239013   6.129   4.270   4.511 -0.3956 -0.1814 -0.1730
 5841TIP3    H139014   6.172   4.284   4.427 -1.6927 -0.7736 -0.9641
 5841TIP3    H239015   6.122   4.175   4.520  1.3774 -0.2226  1.5077
 5842TIP3   OH239016   4.997   1.044  16.910  0.1291  0.1817  0.6780
 5842TIP3    H139017   4.944   1.110  16.867  0.0939  0.3998  1.0522
 5842TIP3    H239018   5.034   0.992  16.838 -0.1934  0.3324  0.4025
 5843TIP3   OH239019   5.723   2.565  15.084 -0.6556  0.1305 -0.2728
 5843TIP3    H139020   5.760   2.482  15.112  0.0244  0.7752  0.8303
 5843TIP3    H239021   5.798   2.619  15.062 -0.8221  1.4577  1.9952
 5844TIP3   OH239022   5.167   1.581  14.881 -0.3382  0.8640 -0.3503
 5844TIP3    H139023   5.161   1.506  14.823 -1.3932  0.9149 -0.3200
 5844TIP3    H239024   5.076   1.602  14.905 -0.1894  2.8640 -1.2958
 5845TIP3   OH239025   5.048   4.159  12.090 -0.5841 -0.1573  0.5282
 5845TIP3    H139026   5.129   4.195  12.126  0.0965 -1.0295 -0.0743
 5845TIP3    H239027   5.067   4.066  12.077 -1.4556 -0.2452 -0.2564
 5846TIP3   OH239028   5.554   0.712  16.325  0.0339 -0.0469 -0.0090
 5846TIP3    H139029   5.476   0.659  16.345 -0.0058 -0.0202 -0.0941
 5846TIP3    H239030   5.582   0.745  16.410  2.0721 -2.9417  0.5970
 5847TIP3   OH239031   6.771   2.680  14.876 -0.0073  0.1699 -0.5465
 5847TIP3    H139032   6.744   2.758  14.925 -0.3209 -0.1684 -0.1716
 5847TIP3    H239033   6.866   2.678  14.884  0.1338  1.2897 -1.7470
 5848TIP3   OH239034   6.132   6.306   2.745 -0.2392 -0.0818 -0.1294
 5848TIP3    H139035   6.163   6.394   2.724 -2.2693  0.8480  0.5005
 5848TIP3    H239036   6.164   6.289   2.833  1.3687 -0.6097 -0.7821
 5849TIP3   OH239037   5.053   5.176   6.077 -0.6433 -0.0955 -0.6881
 5849TIP3    H139038   5.122   5.164   6.012 -0.9896  0.9862 -1.2826
 5849TIP3    H239039   5.059   5.268   6.102 -0.7466 -0.4121  0.5636
 5850TIP3   OH239040   0.861   4.660   4.597 -0.7233 -0.3405  0.4746
 5850TIP3    H139041   0.771   4.631   4.615 -0.9800 -0.1726 -0.5232
 5850TIP3    H239042   0.871   4.649   4.503 -0.9900  3.2679 -0.0821
 5851TIP3   OH239043   0.368   4.238  14.282 -0.4993  0.2047  0.0523
 5851TIP3    H139044   0.432   4.273  14.220 -0.0347 -1.0346 -0.1989
 5851TIP3    H239045   0.283   4.257  14.241 -0.1993 -0.6501 -1.0352
 5852TIP3   OH239046   2.787   4.076   1.785 -0.7380 -0.1343 -0.1034
 5852TIP3    H139047   2.737   4.132   1.726 -1.1731 -1.6561 -1.2376
 5852TIP3    H239048   2.875   4.075   1.747 -0.8734 -0.6565 -0.4102
 5853TIP3   OH239049   1.379   5.714  13.128 -0.5321  0.6333  0.1878
 5853TIP3    H139050   1.381   5.776  13.055 -0.6644 -1.2235 -1.4837
 5853TIP3    H239051   1.393   5.629  13.087 -1.1799 -0.5507  2.2922
 5854TIP3   OH239052   6.054   5.276   2.210  0.5160 -0.0228 -0.1823
 5854TIP3    H139053   6.017   5.349   2.259 -1.3174 -0.7207 -0.4762
 5854TIP3    H239054   6.008   5.277   2.126  0.0423 -1.8431  0.0191
 5855TIP3   OH239055   3.457   6.204  13.514  0.2369  0.5123  0.1069
 5855TIP3    H139056   3.440   6.258  13.437 -0.0285  0.0516 -0.1662
 5855TIP3    H239057   3.516   6.256  13.568  1.3075  0.3950 -0.9203
 5856TIP3   OH239058   0.162   1.655  13.054 -0.2356  0.1448 -0.1246
 5856TIP3    H139059   0.221   1.725  13.083  0.6256 -0.4509 -0.3728
 5856TIP3    H239060   0.158   1.664  12.959  2.0171 -1.6986 -0.4779
 5857TIP3   OH239061   0.361   1.676   1.281 -0.7829 -0.9004  0.0369
 5857TIP3    H139062   0.409   1.655   1.200  0.1257 -0.4891  0.4502
 5857TIP3    H239063   0.430   1.699   1.344 -1.5606  0.5013  0.4169
 5858TIP3   OH239064   5.153   1.262  11.343 -0.3272  0.2179  0.1901
 5858TIP3    H139065   5.178   1.291  11.255 -2.1615  1.6977  0.0978
 5858TIP3    H239066   5.139   1.343  11.392 -1.7025 -0.5444  1.1301
 5859TIP3   OH239067   6.516   3.260   2.228  0.2083  0.2437  0.1525
 5859TIP3    H139068   6.466   3.278   2.307 -1.2999  0.5770 -0.8295
 5859TIP3    H239069   6.515   3.164   2.220  0.0155  0.2304  0.3239
 5860TIP3   OH239070   5.108   1.134  12.433  0.5695  0.4605 -0.3727
 5860TIP3    H139071   5.089   1.211  12.487 -0.7475 -0.3298  0.3251
 5860TIP3    H239072   5.029   1.119  12.382  1.3972  0.5119 -1.7198
 5861TIP3   OH239073   5.796   1.171  11.839  0.4793 -0.0442 -0.2513
 5861TIP3    H139074   5.772   1.089  11.882  0.3326 -0.1475 -0.5288
 5861TIP3    H239075   5.843   1.220  11.906 -2.3516  1.0987  1.0457
 5862TIP3   OH239076   0.781   5.972   0.767 -0.6183  0.2367  0.1788
 5862TIP3    H139077   0.823   5.980   0.681 -3.0327  1.5694 -0.9697
 5862TIP3    H239078   0.737   5.887   0.764 -0.9939  0.4383 -0.0504
 5863TIP3   OH239079   5.390   3.414  10.673  0.6759 -0.3355 -0.3566
 5863TIP3    H139080   5.412   3.489  10.728  0.0012 -0.8883  0.7139
 5863TIP3    H239081   5.391   3.449  10.584  2.8156  0.3416 -0.1205
 5864TIP3   OH239082   1.477   5.841  14.302  0.1175  0.4776  0.2247
 5864TIP3    H139083   1.462   5.928  14.339 -1.3165  0.5547 -0.4756
 5864TIP3    H239084   1.519   5.859  14.217 -5.0065  1.0028 -2.6103
 5865TIP3   OH239085   3.695   5.454  13.302 -0.2326 -0.0553  0.0522
 5865TIP3    H139086   3.715   5.547  13.290  2.7016 -0.6682 -0.4838
 5865TIP3    H239087   3.681   5.445  13.397  2.3307  0.5360  0.5748
 5866TIP3   OH239088   2.896   3.982  16.089  0.1149  0.1591  0.5152
 5866TIP3    H139089   2.833   4.053  16.081  0.6644  0.6561  0.5208
 5866TIP3    H239090   2.965   4.004  16.026  0.6675  0.0366  1.0722
 5867TIP3   OH239091   0.966   0.642   0.008  0.6256 -0.3167  0.4127
 5867TIP3    H139092   1.004   0.571   0.060 -0.0603 -0.6650  0.4473
 5867TIP3    H239093   0.883   0.607  -0.024  0.2504  0.4886  0.4690
 5868TIP3   OH239094   1.215   6.526  15.789 -0.0479  0.5278 -0.1836
 5868TIP3    H139095   1.263   6.465  15.844 -0.2624  0.5884  0.0745
 5868TIP3    H239096   1.271   6.603  15.783  1.0149 -0.3021 -1.9053
 5869TIP3   OH239097   5.514   5.190  15.764 -0.4584 -0.1075 -0.0346
 5869TIP3    H139098   5.427   5.210  15.730 -0.7246 -0.5127  0.3920
 5869TIP3    H239099   5.537   5.265  15.818 -0.5167  0.0208 -0.1859
 5870TIP3   OH239100   0.620   2.917   4.563 -0.3670 -0.0768 -0.0111
 5870TIP3    H139101   0.685   2.968   4.612 -0.0319 -0.6798  0.1825
 5870TIP3    H239102   0.635   2.827   4.591  0.4710 -0.5780 -1.9091
 5871TIP3   OH239103   3.309   3.658  11.332  0.2990 -0.2127 -0.3526
 5871TIP3    H139104   3.344   3.659  11.243 -0.4002 -1.6309 -0.6877
 5871TIP3    H239105   3.278   3.747  11.347  1.0799  0.2245 -1.2596
 5872TIP3   OH239106   5.671   0.706   4.827 -0.0382  0.4743 -0.3768
 5872TIP3    H139107   5.663   0.783   4.771  0.1790 -0.2348 -1.4204
 5872TIP3    H239108   5.584   0.667   4.827  0.2032 -0.1083 -1.1229
 5873TIP3   OH239109   1.415   3.602   4.750 -0.0551 -0.1903 -0.1048
 5873TIP3    H139110   1.464   3.679   4.779  0.3175 -1.0527  1.6885
 5873TIP3    H239111   1.471   3.528   4.773 -1.4486 -1.1073  0.4807
 5874TIP3   OH239112   1.551   4.094  12.616 -0.4509 -0.1650 -0.5519
 5874TIP3    H139113   1.539   4.154  12.689 -0.9689 -1.0156  0.0758
 5874TIP3    H239114   1.582   4.013  12.656 -1.8568 -1.0154 -1.1134
 5875TIP3   OH239115   6.115   5.299   0.240 -0.4607 -0.2537  0.1497
 5875TIP3    H139116   6.117   5.274   0.148  2.0398  1.8865 -0.4946
 5875TIP3    H239117   6.142   5.220   0.286 -0.6056 -1.0290 -1.0479
 5876TIP3   OH239118   3.581   3.289  11.740  0.1654  0.0808 -0.0466
 5876TIP3    H139119   3.512   3.294  11.673 -0.1917 -1.7946  0.1288
 5876TIP3    H239120   3.631   3.210  11.717  0.2030 -0.4528  1.7199
 5877TIP3   OH239121   1.686   2.028  15.484  0.4432  0.0367 -0.3555
 5877TIP3    H139122   1.692   2.001  15.392  0.3645 -0.5186 -0.2031
 5877TIP3    H239123   1.642   1.955  15.527  1.2864 -0.1039  0.2873
 5878TIP3   OH239124   4.673   1.586  16.143 -0.7467  0.0691 -0.3930
 5878TIP3    H139125   4.760   1.611  16.173 -0.3058 -2.2418  0.4230
 5878TIP3    H239126   4.613   1.639  16.196  0.1169  0.0204  0.6559
 5879TIP3   OH239127   1.226   5.577   4.660 -0.0009  0.1519  0.5292
 5879TIP3    H139128   1.215   5.483   4.669  0.8720  0.0738  0.8655
 5879TIP3    H239129   1.292   5.600   4.725  1.4435  0.6466 -1.0378
 5880TIP3   OH239130   1.499   6.630  15.764 -0.1349 -0.1600  0.3870
 5880TIP3    H139131   1.541   6.569  15.704 -0.4597 -1.2492  1.2197
 5880TIP3    H239132   1.561   6.640  15.837 -0.1642  0.3655  0.3464
 5881TIP3   OH239133   5.082   3.910  12.148 -0.3630 -0.6716 -0.0006
 5881TIP3    H139134   5.095   3.855  12.070 -1.5918  1.3468 -1.7536
 5881TIP3    H239135   5.023   3.860  12.204 -2.7478 -0.6161 -2.2612
 5882TIP3   OH239136   0.376   1.218   0.109 -0.9292  0.0196 -0.6240
 5882TIP3    H139137   0.421   1.135   0.122 -1.2468  0.1266  1.3651
 5882TIP3    H239138   0.300   1.214   0.166 -1.5986  1.2171 -1.3799
 5883TIP3   OH239139   5.285   0.153  16.832 -0.3536  0.2491  0.0710
 5883TIP3    H139140   5.369   0.109  16.840 -0.0540  0.8899  0.5073
 5883TIP3    H239141   5.221   0.090  16.866 -0.1687 -0.5571 -1.0060
 5884TIP3   OH239142   1.809   6.690  11.214  0.6140 -0.2291  0.1882
 5884TIP3    H139143   1.714   6.685  11.223  0.4749  0.5204 -0.8049
 5884TIP3    H239144   1.839   6.728  11.297 -0.0839  0.8730 -0.0515
 5885TIP3   OH239145   4.076   1.086   4.030 -0.1661 -0.7242 -0.2531
 5885TIP3    H139146   4.000   1.144   4.028  0.7276  0.4782 -0.2754
 5885TIP3    H239147   4.068   1.032   3.951 -1.5493 -1.3739  0.3002
 5886TIP3   OH239148   6.066   5.807  15.732 -0.1264  0.4737 -0.0727
 5886TIP3    H139149   6.074   5.740  15.664  2.9465  2.1216 -1.5366
 5886TIP3    H239150   6.014   5.876  15.691  0.6485  0.9239 -0.3193
 5887TIP3   OH239151   5.354   5.534   2.985 -0.3557 -0.1891  0.1499
 5887TIP3    H139152   5.427   5.554   3.044 -0.6787  1.5325  0.0128
 5887TIP3    H239153   5.276   5.548   3.038 -0.6318  0.5908 -0.4465
 5888TIP3   OH239154   6.110   6.668   5.584  0.1096  0.2906 -0.0973
 5888TIP3    H139155   6.161   6.741   5.619 -0.6610  0.7446  0.0991
 5888TIP3    H239156   6.064   6.632   5.660 -0.4615  0.3774 -0.3991
 5889TIP3   OH239157   2.863   3.994   5.879 -0.2317 -0.1357 -0.0334
 5889TIP3    H139158   2.861   3.965   5.970 -2.5061 -0.9355 -0.2816
 5889TIP3    H239159   2.855   4.089   5.883 -1.8617 -0.2769  0.6008
 5890TIP3   OH239160   1.377   4.452   1.795  0.3774 -0.1474  0.0854
 5890TIP3    H139161   1.472   4.444   1.804  0.2883 -0.9619  0.3393
 5890TIP3    H239162   1.356   4.407   1.714  0.1623 -0.3010  0.2251
 5891TIP3   OH239163   3.692   5.989  15.173  0.0535 -0.2478  0.6407
 5891TIP3    H139164   3.667   6.067  15.223 -0.1192 -1.5124  2.6853
 5891TIP3    H239165   3.745   6.022  15.101 -1.1899  1.8553  0.6159
 5892TIP3   OH239166   4.864   4.853   5.642 -0.4626  0.6503  1.4521
 5892TIP3    H139167   4.869   4.945   5.666 -1.1082  0.9358  0.5630
 5892TIP3    H239168   4.772   4.840   5.618  0.3164  0.7863 -2.1963
 5893TIP3   OH239169   4.911   0.412  11.097 -0.2077 -0.1436  0.1316
 5893TIP3    H139170   4.836   0.468  11.112  0.6392  0.8860  0.6932
 5893TIP3    H239171   4.891   0.331  11.144  0.1466  1.1137  2.6438
 5894TIP3   OH239172   2.471   1.012   5.226  0.2869 -0.0445 -0.5317
 5894TIP3    H139173   2.543   0.982   5.281  0.0864  0.2186 -0.1229
 5894TIP3    H239174   2.512   1.068   5.160  0.3807  0.6852  0.1265
 5895TIP3   OH239175   1.468   0.342   4.283  0.0255 -0.3757 -0.2948
 5895TIP3    H139176   1.512   0.302   4.358 -2.0904 -1.1186  0.6305
 5895TIP3    H239177   1.498   0.433   4.283  2.2789 -1.0689 -0.3524
 5896TIP3   OH239178   2.539   3.788   3.760  0.3968 -0.3178  0.3798
 5896TIP3    H139179   2.469   3.833   3.807 -1.3673 -1.7034 -0.8365
 5896TIP3    H239180   2.545   3.702   3.801  1.4003 -0.2410  0.4378
 5897TIP3   OH239181   5.573   5.021  16.708 -0.0963  0.2775 -0.3521
 5897TIP3    H139182   5.596   4.940  16.755  0.8332 -0.2005 -1.5750
 5897TIP3    H239183   5.481   5.009  16.683  0.1856 -0.6760 -1.0027
 5898TIP3   OH239184   0.806   1.781   2.832 -0.0558 -1.0042 -0.4344
 5898TIP3    H139185   0.727   1.833   2.821  0.6420  0.5721  1.3670
 5898TIP3    H239186   0.872   1.825   2.778  0.1043 -1.0583 -0.2856
 5899TIP3   OH239187   3.489   4.810   4.188 -0.3845 -0.4305  0.3975
 5899TIP3    H139188   3.409   4.757   4.194 -1.3040  0.6480 -1.3411
 5899TIP3    H239189   3.464   4.896   4.222 -0.5213  0.3977 -1.6115
 5900TIP3   OH239190   6.679   5.991   0.759  0.5133  0.2807 -0.3551
 5900TIP3    H139191   6.666   5.897   0.749 -1.3160  0.3236  1.1525
 5900TIP3    H239192   6.743   5.999   0.829 -0.0389  0.1496  0.1729
 5901TIP3   OH239193   3.863   5.478  15.026  0.3795  0.3142  0.2840
 5901TIP3    H139194   3.940   5.424  15.043 -0.7865 -1.6276 -0.2591
 5901TIP3    H239195   3.852   5.528  15.106  2.4239  0.9751  0.2170
 5902TIP3   OH239196   2.959   2.851   3.408  0.1202 -0.2605  0.4538
 5902TIP3    H139197   2.946   2.757   3.400  0.8904 -0.4610  1.3881
 5902TIP3    H239198   3.037   2.860   3.463  0.2824  0.9198  0.0574
 5903TIP3   OH239199   3.568   5.941   4.311 -0.4130 -0.0243  0.3336
 5903TIP3    H139200   3.548   5.891   4.390  0.1942 -0.7266  0.0514
 5903TIP3    H239201   3.618   5.881   4.256  1.1444  1.1656  0.3804
 5904TIP3   OH239202   5.035   4.183  14.076 -0.0472 -0.1718 -0.2173
 5904TIP3    H139203   4.946   4.151  14.085  0.6502 -2.0335  0.6986
 5904TIP3    H239204   5.038   4.223  13.989 -0.7752 -3.6922 -2.0464
 5905TIP3   OH239205   4.786   3.516  11.810 -0.2904 -0.5321 -0.3959
 5905TIP3    H139206   4.729   3.447  11.844  1.6932 -1.0143  2.2146
 5905TIP3    H239207   4.775   3.589  11.871  1.3508 -0.4138 -0.1931
 5906TIP3   OH239208   4.391   4.986   4.865 -0.0079 -0.7971 -0.0309
 5906TIP3    H139209   4.388   4.891   4.857  0.0340 -0.8447  0.5069
 5906TIP3    H239210   4.305   5.010   4.899  0.5769 -0.8127  1.5119
 5907TIP3   OH239211   2.039   6.140  16.075 -0.1024  0.1777 -0.3835
 5907TIP3    H139212   1.947   6.164  16.081 -0.1657  0.2435 -1.5366
 5907TIP3    H239213   2.085   6.224  16.065 -0.0660  0.0420 -1.4196
 5908TIP3   OH239214   4.927   1.529   2.502  0.4635 -0.6214 -0.4219
 5908TIP3    H139215   4.878   1.606   2.474  0.7683 -0.9528 -2.0100
 5908TIP3    H239216   5.017   1.546   2.472  1.0910 -0.5257  1.4203
 5909TIP3   OH239217   6.822   6.238  14.421  0.3373 -0.0133  0.1805
 5909TIP3    H139218   6.848   6.317  14.468  1.0360  1.1153 -1.9846
 5909TIP3    H239219   6.904   6.191  14.405  0.1851 -0.0435 -0.5117
 5910TIP3   OH239220   0.795   6.545   4.207  0.1347  0.1164 -0.2462
 5910TIP3    H139221   0.749   6.462   4.217 -0.4678 -0.0275 -3.4323
 5910TIP3    H239222   0.785   6.568   4.115  4.1232  1.4699 -0.5389
 5911TIP3   OH239223   0.496   0.576   4.308  0.2327  0.0973  0.5991
 5911TIP3    H139224   0.569   0.546   4.254  1.2564  0.4603  1.7201
 5911TIP3    H239225   0.498   0.671   4.299 -0.4593  0.0773  0.2056
 5912TIP3   OH239226   3.818   0.416  16.811 -0.4564 -0.0581 -0.1487
 5912TIP3    H139227   3.870   0.494  16.832 -3.4131  2.0939 -0.1698
 5912TIP3    H239228   3.832   0.358  16.886 -0.3872  1.7725  1.3444
 5913TIP3   OH239229   1.404   2.867  16.234 -0.0500 -0.9513 -0.1032
 5913TIP3    H139230   1.442   2.952  16.257  1.1880 -1.0441 -1.6247
 5913TIP3    H239231   1.321   2.865  16.281  0.4637  0.5543  0.9796
 5914TIP3   OH239232   2.781   1.631   6.350  0.6244 -0.0987  0.3630
 5914TIP3    H139233   2.761   1.608   6.440 -4.7031 -1.4579 -0.8169
 5914TIP3    H239234   2.713   1.694   6.326  2.0717  0.4929 -2.6195
 5915TIP3   OH239235   5.138   2.402  15.129  0.1693  0.4091 -0.2173
 5915TIP3    H139236   5.151   2.313  15.163 -1.7382  0.4652  0.7887
 5915TIP3    H239237   5.155   2.459  15.204 -0.9040  0.7424 -0.2158
 5916TIP3   OH239238   3.423   2.648   2.906 -0.0327 -0.2977  0.0489
 5916TIP3    H139239   3.342   2.696   2.924 -2.3584 -3.4653 -1.1018
 5916TIP3    H239240   3.447   2.609   2.990 -0.4466 -0.4059  0.1164
 5917TIP3   OH239241   0.623   2.987  13.412 -0.3419  0.7496  0.5268
 5917TIP3    H139242   0.703   2.948  13.378  0.1915  2.1819  0.0474
 5917TIP3    H239243   0.612   3.068  13.362  0.1466  2.6782  3.2596
 5918TIP3   OH239244   1.297   1.682   0.784 -0.4619 -0.1820  0.5613
 5918TIP3    H139245   1.233   1.620   0.747 -1.0857 -0.1764  1.6029
 5918TIP3    H239246   1.377   1.630   0.794 -0.5753 -0.4455  0.1610
 5919TIP3   OH239247   1.527   6.694  11.240 -0.5149 -0.1138  0.1017
 5919TIP3    H139248   1.469   6.770  11.247 -1.3874 -0.7754  0.3354
 5919TIP3    H239249   1.512   6.660  11.152  0.2591  0.2754 -0.1869
 5920TIP3   OH239250   2.674   1.892   4.549  0.0520 -0.4449 -0.1526
 5920TIP3    H139251   2.582   1.917   4.545  0.2682  0.4927  0.3321
 5920TIP3    H239252   2.692   1.882   4.642  0.8731  1.1659 -0.1061
 5921TIP3   OH239253   2.393   1.264  11.733  0.5489 -0.0850 -0.1672
 5921TIP3    H139254   2.432   1.178  11.745  1.1224  0.1961  0.0247
 5921TIP3    H239255   2.440   1.321  11.794  0.6859  0.5178 -0.8161
 5922TIP3   OH239256   0.683   3.120   3.084  0.1687 -0.1753 -0.2967
 5922TIP3    H139257   0.643   3.167   3.157  2.0423 -0.2466  0.8112
 5922TIP3    H239258   0.608   3.086   3.034 -1.1439 -0.0720  1.5182
 5923TIP3   OH239259   6.822   1.702   1.869 -0.1313  0.0520 -0.0685
 5923TIP3    H139260   6.749   1.650   1.902  0.0555  0.1984  0.6085
 5923TIP3    H239261   6.811   1.787   1.910  1.5825 -0.5457  1.7938
 5924TIP3   OH239262   3.865   6.455   5.857 -0.0300 -0.5987  0.7880
 5924TIP3    H139263   3.870   6.550   5.841 -1.1482 -0.8345 -1.1807
 5924TIP3    H239264   3.881   6.415   5.772 -5.0570 -2.0088  0.1985
 5925TIP3   OH239265   2.711   5.151   3.347 -0.1863  0.1370  0.5971
 5925TIP3    H139266   2.674   5.070   3.381 -0.2769 -0.2268 -0.3322
 5925TIP3    H239267   2.790   5.123   3.300 -0.8155  0.4374 -0.6722
 5926TIP3   OH239268   5.705   2.990   3.813 -0.2652  0.0971 -0.4086
 5926TIP3    H139269   5.656   2.909   3.800  0.8992 -0.4843 -1.4050
 5926TIP3    H239270   5.797   2.963   3.812  0.1386  1.4084 -0.7008
 5927TIP3   OH239271   4.127   5.939   4.686  0.0304  0.6788 -0.0315
 5927TIP3    H139272   4.069   5.978   4.621 -0.1617  0.0758 -0.2253
 5927TIP3    H239273   4.190   6.008   4.706 -1.3826  1.7391  0.9819
 5928TIP3   OH239274   4.990   3.618   0.771 -0.0957 -0.3069  0.2362
 5928TIP3    H139275   5.044   3.667   0.832  1.8663  0.3883 -1.9190
 5928TIP3    H239276   4.929   3.683   0.735 -0.7527 -0.5540  0.8805
 5929TIP3   OH239277   4.833   0.090  14.534  0.5879 -0.1655 -0.1465
 5929TIP3    H139278   4.829   0.006  14.581  0.1698  0.2774  0.6221
 5929TIP3    H239279   4.877   0.069  14.451  1.4332 -0.9370  0.4821
 5930TIP3   OH239280   6.321   3.234  11.046  0.3155  0.5382  0.3726
 5930TIP3    H139281   6.322   3.192  10.960  1.2458 -0.2818  0.7593
 5930TIP3    H239282   6.259   3.182  11.097 -1.2194  1.7856 -0.1244
 5931TIP3   OH239283   4.773   4.773  15.318  0.2466 -0.1894  0.3604
 5931TIP3    H139284   4.824   4.712  15.263 -1.4506 -0.5183 -0.9349
 5931TIP3    H239285   4.747   4.721  15.394 -0.1248 -0.7277 -0.1232
 5932TIP3   OH239286   5.987   4.502   0.491 -0.7850  0.1549 -0.4778
 5932TIP3    H139287   6.003   4.412   0.521 -0.6423 -0.2641 -1.7302
 5932TIP3    H239288   6.037   4.557   0.552 -1.3958 -0.5503  0.7027
 5933TIP3   OH239289   0.869   5.635  15.694 -0.4950 -0.1167  0.4869
 5933TIP3    H139290   0.824   5.633  15.609  0.0172  0.1464  0.2026
 5933TIP3    H239291   0.943   5.575  15.682 -1.7434 -1.9725  1.5288
 5934TIP3   OH239292   1.484   4.722   3.647  0.2977 -0.3919 -0.4298
 5934TIP3    H139293   1.447   4.662   3.583 -0.0096 -0.7183  0.0449
 5934TIP3    H239294   1.411   4.741   3.707  0.1090  1.2152 -1.1046
 5935TIP3   OH239295   5.599   2.453  11.405 -0.7463  0.3660 -0.0712
 5935TIP3    H139296   5.690   2.469  11.428 -0.6771 -0.2826  0.1248
 5935TIP3    H239297   5.591   2.485  11.315  0.5213 -2.4393 -1.3063
 5936TIP3   OH239298   2.230   0.275  16.727  0.5562  0.2952 -0.5232
 5936TIP3    H139299   2.160   0.289  16.663  0.5300 -2.6673 -1.2646
 5936TIP3    H239300   2.311   0.291  16.678  0.5167 -1.3489 -1.1571
 5937TIP3   OH239301   5.136   2.149   5.572 -0.1525  0.0150  0.0147
 5937TIP3    H139302   5.100   2.131   5.658  0.9200  1.1393  0.7348
 5937TIP3    H239303   5.101   2.080   5.516 -1.0548 -0.5928  1.2903
 5938TIP3   OH239304   2.567   0.764  12.538  0.1325 -0.3430  0.6978
 5938TIP3    H139305   2.555   0.677  12.500 -1.0439  0.0904  0.0118
 5938TIP3    H239306   2.648   0.797  12.497  0.1543 -0.8044  0.3594
 5939TIP3   OH239307   1.109   2.869   5.759 -0.3872 -1.3930 -0.2450
 5939TIP3    H139308   1.105   2.964   5.746  0.4213 -1.1994  0.7712
 5939TIP3    H239309   1.043   2.834   5.700 -0.2592 -0.2457 -1.1058
 5940TIP3   OH239310   1.874   1.208   4.999  0.2830  0.2340 -0.5225
 5940TIP3    H139311   1.805   1.213   5.064  1.0386 -1.3352  0.4721
 5940TIP3    H239312   1.866   1.288   4.948 -0.6395  1.2833  1.2034
 5941TIP3   OH239313   2.568   2.273  11.490 -0.1990 -0.1683  0.6349
 5941TIP3    H139314   2.544   2.332  11.418 -1.1865 -1.1275  0.1543
 5941TIP3    H239315   2.642   2.317  11.533 -0.1120  0.8130 -0.4619
 5942TIP3   OH239316   5.256   0.426   6.651  0.4257  0.0871  0.2006
 5942TIP3    H139317   5.207   0.482   6.711 -1.1964  1.1386 -1.9751
 5942TIP3    H239318   5.234   0.459   6.564  1.3498 -2.3969 -1.0678
 5943TIP3   OH239319   4.543   6.052   0.671 -0.0147 -0.0609 -0.0184
 5943TIP3    H139320   4.523   6.052   0.764 -0.6690 -0.2287 -0.1527
 5943TIP3    H239321   4.608   5.983   0.660  0.6786  0.5146  0.4362
 5944TIP3   OH239322   1.624   1.527   5.165  0.5311 -0.2613 -0.0760
 5944TIP3    H139323   1.585   1.517   5.078  0.1696  0.4637  0.0003
 5944TIP3    H239324   1.683   1.451   5.173 -1.3912 -1.8264  0.1071
 5945TIP3   OH239325   5.192   4.865   1.801  0.0089  0.0898  0.3690
 5945TIP3    H139326   5.254   4.874   1.873  1.1492  0.5552 -0.6263
 5945TIP3    H239327   5.211   4.939   1.743 -0.3050 -0.7066 -0.8052
 5946TIP3   OH239328   1.825   4.545  13.538  0.3971 -0.3614  0.0750
 5946TIP3    H139329   1.824   4.635  13.504 -1.5719 -0.1013  0.7149
 5946TIP3    H239330   1.882   4.497  13.477  0.0446  0.9166 -1.3172
 5947TIP3   OH239331   5.032   5.419   5.478  0.0745  0.1368 -0.1529
 5947TIP3    H139332   5.048   5.330   5.510  0.0252 -0.1589 -0.9425
 5947TIP3    H239333   4.940   5.419   5.452  0.0047  0.5000  0.0808
 5948TIP3   OH239334   4.676   4.010   0.103 -1.1614  0.4694 -0.5172
 5948TIP3    H139335   4.757   4.057   0.123 -0.8993  0.0138 -0.5066
 5948TIP3    H239336   4.612   4.080   0.086 -1.2557  0.8807  1.3207
 5949TIP3   OH239337   4.746   0.371   5.147  0.0745  0.1351  0.0393
 5949TIP3    H139338   4.790   0.456   5.133  1.5939 -0.2637  1.9950
 5949TIP3    H239339   4.803   0.308   5.103 -0.2738 -0.0504 -0.1483
 5950TIP3   OH239340   6.610   2.739   5.114 -0.4854  0.2307 -0.5385
 5950TIP3    H139341   6.702   2.767   5.111 -0.7787  1.4837  0.9779
 5950TIP3    H239342   6.610   2.664   5.173 -0.6014  1.0590  0.5416
 5951TIP3   OH239343   1.169   1.034  13.891  0.3550 -0.7137  0.1090
 5951TIP3    H139344   1.083   1.072  13.908 -0.5748 -0.9624 -3.3356
 5951TIP3    H239345   1.152   0.943  13.867  1.9969 -1.7763  2.5405
 5952TIP3   OH239346   1.257   5.151  16.817 -0.0839 -0.1501  0.1049
 5952TIP3    H139347   1.228   5.074  16.866  2.2001 -1.4842 -0.5123
 5952TIP3    H239348   1.279   5.118  16.730 -0.5338  1.5248 -0.6859
 5953TIP3   OH239349   0.004   5.745  12.981  0.0979 -0.1075 -1.0041
 5953TIP3    H139350  -0.059   5.701  12.923 -1.2005  1.2853 -0.7048
 5953TIP3    H239351   0.049   5.807  12.924 -0.9189  0.9970 -0.6581
 5954TIP3   OH239352   1.966   4.683  12.594 -0.1039  0.5768  0.0449
 5954TIP3    H139353   1.981   4.777  12.594  0.6510  0.4681 -0.8010
 5954TIP3    H239354   1.874   4.673  12.570 -1.0651  1.1763  3.0359
 5955TIP3   OH239355   3.454   5.046  16.290 -0.3564  0.3979  0.1557
 5955TIP3    H139356   3.448   5.056  16.385  0.2206  1.2348  0.1154
 5955TIP3    H239357   3.419   4.959  16.273 -0.3958  0.2060  1.1428
 5956TIP3   OH239358   4.318   4.562  13.694  0.1503 -0.5957  0.0762
 5956TIP3    H139359   4.329   4.479  13.740  3.2465  1.2294  3.1470
 5956TIP3    H239360   4.280   4.621  13.759  0.6407  1.0781 -1.0609
 5957TIP3   OH239361   0.888   1.581   2.011  0.0385 -0.1687  0.3944
 5957TIP3    H139362   0.864   1.502   2.060  1.2197  0.4422  2.0725
 5957TIP3    H239363   0.816   1.642   2.027  0.7722  0.3073  2.1419
 5958TIP3   OH239364   5.409   6.016   3.342  0.1408  0.2713 -1.6714
 5958TIP3    H139365   5.390   5.923   3.359 -1.5077  0.7639 -0.6346
 5958TIP3    H239366   5.325   6.060   3.353  1.4189  2.3208  0.9146
 5959TIP3   OH239367   5.469   1.624  14.714 -0.4781 -0.1060  0.6365
 5959TIP3    H139368   5.564   1.617  14.716 -0.0820  2.6739 -1.4508
 5959TIP3    H239369   5.439   1.539  14.682  1.0562 -1.6971  3.0939
 5960TIP3   OH239370   6.423   5.717   0.514 -0.2655  0.7343 -0.3762
 5960TIP3    H139371   6.407   5.622   0.510 -0.5313  0.7910 -0.6954
 5960TIP3    H239372   6.361   5.754   0.452  0.2955  1.0631 -0.7456
 5961TIP3   OH239373   3.017   6.030  16.217  0.1463 -0.4749  0.5248
 5961TIP3    H139374   2.968   5.972  16.159 -0.4254  0.4362  0.0782
 5961TIP3    H239375   2.984   6.011  16.305 -3.4406  2.3250 -0.0149
 5962TIP3   OH239376   6.021   3.075   0.823  0.3871  0.7692  0.9274
 5962TIP3    H139377   6.010   2.999   0.765  2.4780  1.4785 -0.5469
 5962TIP3    H239378   5.974   3.051   0.903  0.1644 -1.6651  0.1754
 5963TIP3   OH239379   5.305   6.728  16.900 -0.4401 -0.3689 -0.0986
 5963TIP3    H139380   5.329   6.760  16.813 -2.1149 -1.8215 -1.1550
 5963TIP3    H239381   5.382   6.678  16.929  1.2216  2.3124  0.5185
 5964TIP3   OH239382   6.833   1.738   3.251 -0.5946 -0.1127 -0.4795
 5964TIP3    H139383   6.779   1.817   3.250 -0.0512  0.2594 -1.3679
 5964TIP3    H239384   6.903   1.758   3.314 -2.1148 -1.0643  1.6389
 5965TIP3   OH239385   4.406   3.400  13.610 -0.5508 -0.4120  0.3030
 5965TIP3    H139386   4.422   3.330  13.547  0.1631  0.5323 -0.6030
 5965TIP3    H239387   4.313   3.420  13.601 -0.7804 -1.2841  0.6349
 5966TIP3   OH239388   5.796   1.406  15.589  0.2714  0.0047  0.3379
 5966TIP3    H139389   5.827   1.359  15.511  1.3420  0.8668  0.2233
 5966TIP3    H239390   5.705   1.425  15.571 -0.2260 -2.0596  0.4063
 5967TIP3   OH239391   6.580   6.677   3.687 -0.5094  0.5251 -0.1169
 5967TIP3    H139392   6.662   6.651   3.646 -0.0693  0.1825  0.9449
 5967TIP3    H239393   6.607   6.727   3.764 -1.2539 -0.5875  0.9075
 5968TIP3   OH239394   4.601   3.896   1.666  0.3768 -0.1842 -0.0685
 5968TIP3    H139395   4.678   3.899   1.723  0.0897  0.0234  0.3190
 5968TIP3    H239396   4.608   3.812   1.621 -0.0232 -0.9271  1.1994
 5969TIP3   OH239397   0.647   5.178   3.125  0.2342  0.1553 -0.7684
 5969TIP3    H139398   0.708   5.116   3.166 -1.8351 -0.9977  0.7778
 5969TIP3    H239399   0.648   5.254   3.183  0.2341  0.1448 -0.7548
 5970TIP3   OH239400   5.757   1.183   0.680 -0.0163 -0.4900  0.3216
 5970TIP3    H139401   5.746   1.246   0.751  1.4457 -0.4608  0.5626
 5970TIP3    H239402   5.793   1.235   0.608  3.0838 -1.2940  1.1451
 5971TIP3   OH239403   4.215   3.200  15.230  0.0924 -0.3747 -0.5466
 5971TIP3    H139404   4.264   3.119  15.221  1.5192  0.3074  0.6002
 5971TIP3    H239405   4.165   3.189  15.311 -0.0811 -0.3098 -0.6453
 5972TIP3   OH239406   6.466   1.194   4.144  0.8403 -0.2325 -0.1578
 5972TIP3    H139407   6.482   1.157   4.057 -2.3109  1.5828 -1.7316
 5972TIP3    H239408   6.373   1.175   4.161  0.6889  1.6706  1.6163
 5973TIP3   OH239409   1.518   1.064   0.478 -0.1634 -0.4262  0.4795
 5973TIP3    H139410   1.593   1.109   0.437 -1.3248 -1.6988 -3.5274
 5973TIP3    H239411   1.450   1.131   0.483 -0.0380 -0.2750  0.1801
 5974TIP3   OH239412   0.243   0.311   0.538 -0.7000  0.2216  0.4017
 5974TIP3    H139413   0.247   0.402   0.507 -1.0939 -0.2820 -1.2303
 5974TIP3    H239414   0.245   0.318   0.634  0.2304  1.8949  0.3042
 5975TIP3   OH239415   4.509   2.271   4.187 -0.1647  0.6964  0.1637
 5975TIP3    H139416   4.597   2.255   4.153  0.4059  0.3154  1.7161
 5975TIP3    H239417   4.523   2.298   4.278 -1.6639  0.2784  0.5524
 5976TIP3   OH239418   0.269   1.688   4.886  0.8907  0.5956 -0.2225
 5976TIP3    H139419   0.349   1.693   4.835  0.4302 -0.3030 -1.0603
 5976TIP3    H239420   0.223   1.611   4.851  0.1639  0.4724  0.9596
 5977TIP3   OH239421   5.172   5.980  16.143 -0.1886 -0.2895 -0.0092
 5977TIP3    H139422   5.130   5.993  16.228 -1.4075 -0.4454 -0.5678
 5977TIP3    H239423   5.146   6.056  16.091  1.0499  0.1176 -0.0768
 5978TIP3   OH239424   6.216   1.727  16.536  0.3194 -0.3353  0.0764
 5978TIP3    H139425   6.145   1.784  16.506 -0.4895 -1.1760  0.3448
 5978TIP3    H239426   6.208   1.648  16.482  1.2144 -0.3307 -0.0677
 5979TIP3   OH239427   6.857   0.625   5.896 -0.0328 -0.0229 -0.3762
 5979TIP3    H139428   6.921   0.606   5.827  0.0127  1.8020 -0.8976
 5979TIP3    H239429   6.853   0.721   5.898  0.1811 -0.0095  2.3834
 5980TIP3   OH239430   5.514   6.821   0.407  0.3470  0.3160  0.1223
 5980TIP3    H139431   5.608   6.821   0.425  0.4857 -2.9693  0.0599
 5980TIP3    H239432   5.482   6.741   0.449 -2.8664  2.2756  1.9092
 5981TIP3   OH239433   2.533   2.265   3.613 -0.5387  0.1455  0.1494
 5981TIP3    H139434   2.500   2.175   3.617  0.6783 -0.4295 -1.3695
 5981TIP3    H239435   2.455   2.320   3.607 -1.3432 -1.1166 -3.0832
 5982TIP3   OH239436   5.353   4.818   2.868  0.0079 -0.2050  0.4234
 5982TIP3    H139437   5.356   4.914   2.874 -1.0663 -0.1781  0.6814
 5982TIP3    H239438   5.260   4.796   2.876  0.4045 -1.4088  2.4858
 5983TIP3   OH239439   0.771   4.876   1.662 -0.3232 -0.0999  0.1619
 5983TIP3    H139440   0.802   4.870   1.752  3.5843 -1.9162 -1.1097
 5983TIP3    H239441   0.822   4.948   1.624 -0.9682 -0.2215 -0.9582
 5984TIP3   OH239442   4.289   5.758   4.014  0.2772  0.2642 -0.4191
 5984TIP3    H139443   4.251   5.709   4.086  1.3895 -0.2445 -0.1529
 5984TIP3    H239444   4.217   5.812   3.981  0.0220  1.3971  1.7997
 5985TIP3   OH239445   0.708   1.008   3.850 -0.4493 -0.4610 -0.3610
 5985TIP3    H139446   0.778   0.969   3.798  1.1011  2.8270 -1.0231
 5985TIP3    H239447   0.654   1.055   3.786  0.1036  1.6969  0.6778
 5986TIP3   OH239448   2.621   0.598  14.328  0.7700 -0.1023 -0.5433
 5986TIP3    H139449   2.565   0.523  14.309  0.0359  0.4928 -0.8124
 5986TIP3    H239450   2.565   0.658  14.377  0.8360  0.9360 -1.6748
 5987TIP3   OH239451   6.525   3.326  14.738 -0.0341  0.5186  0.4285
 5987TIP3    H139452   6.539   3.361  14.826 -0.4047 -0.0925  0.7379
 5987TIP3    H239453   6.613   3.318  14.701  0.3316 -1.2649  1.5580
 5988TIP3   OH239454   0.709   0.518   0.734  0.6253  0.5812 -0.7330
 5988TIP3    H139455   0.757   0.548   0.657 -1.4178  1.6596 -1.6741
 5988TIP3    H239456   0.628   0.480   0.699  0.3304 -0.3110  0.8177
 5989TIP3   OH239457   0.766   4.090   0.643  0.1701  0.2537 -0.2814
 5989TIP3    H139458   0.686   4.037   0.639 -2.2447  3.5309 -0.2020
 5989TIP3    H239459   0.810   4.073   0.560 -1.9689  0.1993 -1.4743
 5990TIP3   OH239460   3.107   2.562   0.078 -0.0184  0.0004 -0.6902
 5990TIP3    H139461   3.056   2.591   0.003 -0.9825 -0.6629 -0.3044
 5990TIP3    H239462   3.043   2.523   0.138  0.7102  0.6585  0.5510
 5991TIP3   OH239463   1.244   1.036  16.236 -0.0464 -0.2517  0.1189
 5991TIP3    H139464   1.224   1.047  16.143  0.6218 -0.2998 -0.0323
 5991TIP3    H239465   1.185   0.966  16.264  0.7505 -1.2468 -0.6187
 5992TIP3   OH239466   0.343   4.698   3.733  0.0665 -0.2076  0.2124
 5992TIP3    H139467   0.437   4.710   3.746  0.3251 -0.9336 -0.9159
 5992TIP3    H239468   0.333   4.608   3.703 -0.9928 -0.1349  0.2917
 5993TIP3   OH239469   3.609   5.058  15.430 -0.3622  0.9435  0.1274
 5993TIP3    H139470   3.647   5.093  15.349 -0.1545  1.9196  0.6286
 5993TIP3    H239471   3.514   5.064  15.417 -0.3974 -1.0692 -0.9429
 5994TIP3   OH239472   3.568   0.183   0.455  0.2527 -0.3132 -0.1971
 5994TIP3    H139473   3.481   0.143   0.450  0.2197 -0.6525  2.1921
 5994TIP3    H239474   3.583   0.218   0.367 -2.5440  0.2949 -0.5210
 5995TIP3   OH239475   1.745   0.679  15.590  0.5227  0.2167 -0.0086
 5995TIP3    H139476   1.745   0.595  15.544  1.5653  0.3473 -0.2858
 5995TIP3    H239477   1.837   0.706  15.589  1.0368 -0.7959  4.0681
 5996TIP3   OH239478   4.642   0.964   5.415  0.3891 -0.1197  0.0592
 5996TIP3    H139479   4.677   0.952   5.503 -0.4846  1.1374  0.6060
 5996TIP3    H239480   4.557   0.921   5.417  0.8281 -1.0580 -0.5334
 5997TIP3   OH239481   1.787   2.708  16.736 -0.1426 -0.3180 -0.5343
 5997TIP3    H139482   1.697   2.696  16.705 -0.3740  0.3611 -0.1613
 5997TIP3    H239483   1.785   2.792  16.782  0.6415 -0.3892 -0.3568
 5998TIP3   OH239484   4.321   4.490  16.079 -0.2934 -0.3556 -0.3949
 5998TIP3    H139485   4.322   4.554  16.007 -0.1881  0.4961  0.3450
 5998TIP3    H239486   4.236   4.502  16.120 -0.5087 -1.1197 -0.6129
 5999TIP3   OH239487   2.601   5.471  12.155  0.5465 -0.5019 -0.2232
 5999TIP3    H139488   2.687   5.488  12.193  1.1112 -2.6157 -0.3977
 5999TIP3    H239489   2.589   5.538  12.089  0.9255  1.3527  1.4985
 6000TIP3   OH239490   5.863   3.407  11.273  0.1575  0.7136 -0.0586
 6000TIP3    H139491   5.769   3.422  11.264 -0.2253 -0.4967  1.5254
 6000TIP3    H239492   5.883   3.431  11.363  1.0757 -0.4194  0.0670
 6001TIP3   OH239493   1.999   0.108   2.482  0.5083  0.5273  0.2021
 6001TIP3    H139494   1.905   0.100   2.495  0.7294 -0.7315  1.3747
 6001TIP3    H239495   2.018   0.049   2.409  0.3625  0.8983 -0.1333
 6002TIP3   OH239496   4.002   5.246   5.039  0.3833  0.3286 -0.1958
 6002TIP3    H139497   3.924   5.195   5.061  0.4999 -0.3909 -1.3897
 6002TIP3    H239498   4.068   5.217   5.102  0.2360 -0.4670 -0.3962
 6003TIP3   OH239499   6.807   2.538   4.761  0.4309  0.0250  0.3420
 6003TIP3    H139500   6.859   2.477   4.814 -0.6529 -1.6582 -0.4522
 6003TIP3    H239501   6.737   2.485   4.724  0.3518  1.4110 -1.7053
 6004TIP3   OH239502   3.996   0.232   4.185  0.5632  1.1919  0.0442
 6004TIP3    H139503   3.923   0.294   4.177 -1.1543 -0.7764 -0.4162
 6004TIP3    H239504   4.058   0.259   4.117 -0.9561  1.3689 -1.3305
 6005TIP3   OH239505   4.778   0.825   3.287 -0.7496  0.4636  0.0691
 6005TIP3    H139506   4.807   0.913   3.262  0.3252 -0.7125 -3.3960
 6005TIP3    H239507   4.846   0.794   3.348 -1.3553  2.0798  1.6672
 6006TIP3   OH239508   1.420   3.863  13.598  0.0125  0.7840 -0.6186
 6006TIP3    H139509   1.493   3.925  13.592  0.9919 -0.3067 -0.4334
 6006TIP3    H239510   1.375   3.871  13.514 -0.0277  1.9109 -0.4980
 6007TIP3   OH239511   3.485   6.529  16.699  0.0932 -0.1686 -0.1534
 6007TIP3    H139512   3.506   6.498  16.611  0.1573 -1.7553  0.3915
 6007TIP3    H239513   3.394   6.560  16.692 -0.9136 -2.8549 -0.2202
 6008TIP3   OH239514   0.888   3.504   5.867  0.5594  0.5767  0.5566
 6008TIP3    H139515   0.901   3.599   5.861  1.1247  0.4233 -1.0685
 6008TIP3    H239516   0.891   3.486   5.961  1.5737  2.0251  0.8444
 6009TIP3   OH239517   6.329   3.815   2.988 -0.3711  0.3335 -0.6881
 6009TIP3    H139518   6.271   3.809   3.064  0.4628  0.3442 -0.0256
 6009TIP3    H239519   6.289   3.881   2.932 -0.2368  1.4211  0.4562
 6010TIP3   OH239520   1.301   6.775  14.722 -0.0775  0.5521 -0.0434
 6010TIP3    H139521   1.383   6.809  14.687 -0.0193 -0.5836 -1.0759
 6010TIP3    H239522   1.272   6.841  14.785  1.6068  0.9730  0.3220
 6011TIP3   OH239523   5.911   1.336  14.523 -0.3887  0.1124 -0.2451
 6011TIP3    H139524   6.001   1.368  14.535 -0.5878  1.0277 -1.0850
 6011TIP3    H239525   5.902   1.266  14.587  1.2916 -0.7445 -0.8808
 6012TIP3   OH239526   4.600   3.290   0.083 -0.1424 -0.3006 -0.2042
 6012TIP3    H139527   4.509   3.294   0.057 -0.2693  1.8051  0.3603
 6012TIP3    H239528   4.598   3.276   0.178  0.1074 -0.4797 -0.2242
 6013TIP3   OH239529   3.227   4.049   3.008 -0.0660  0.6571  0.1587
 6013TIP3    H139530   3.229   3.987   3.081  2.1586  1.2370  0.6652
 6013TIP3    H239531   3.208   3.995   2.932 -1.1572 -0.1583  0.9798
 6014TIP3   OH239532   5.570   4.811   0.425 -0.1660  0.1617 -0.1315
 6014TIP3    H139533   5.508   4.738   0.418 -0.0902  0.1214 -0.4265
 6014TIP3    H239534   5.654   4.768   0.442  0.5606 -0.1441 -3.6354
 6015TIP3   OH239535   2.901   4.825   2.092 -0.2220 -0.0733 -0.5405
 6015TIP3    H139536   2.877   4.911   2.128  0.8428 -0.6965  1.8876
 6015TIP3    H239537   2.876   4.763   2.160  0.9625 -1.4709 -1.3298
 6016TIP3   OH239538   3.116   2.584   1.685 -0.2437 -0.0467  0.0937
 6016TIP3    H139539   3.188   2.528   1.654  0.3793  0.0446  1.3002
 6016TIP3    H239540   3.076   2.618   1.606  1.9945  1.0905 -0.6328
 6017TIP3   OH239541   1.350   3.750   1.677  0.1691 -0.3901 -0.3788
 6017TIP3    H139542   1.292   3.674   1.667  0.9092 -1.0844  0.3767
 6017TIP3    H239543   1.437   3.715   1.662  0.6886 -0.0711  1.6572
 6018TIP3   OH239544   0.190   2.510   1.520  0.1203 -0.0957 -1.3642
 6018TIP3    H139545   0.189   2.592   1.471 -0.7153  0.7083 -0.0671
 6018TIP3    H239546   0.109   2.512   1.572  0.9707 -0.8846  0.0516
 6019TIP3   OH239547   1.046   2.196   6.099  0.4164  0.2827  0.2106
 6019TIP3    H139548   1.017   2.111   6.131  1.2372 -0.3834 -0.7160
 6019TIP3    H239549   1.078   2.178   6.010 -0.5208  1.7911 -0.4635
 6020TIP3   OH239550   5.460   2.110  10.405 -0.0125 -0.4578 -0.7028
 6020TIP3    H139551   5.472   2.015  10.404  0.0841 -0.4686  0.4453
 6020TIP3    H239552   5.541   2.144  10.443 -1.2111 -0.1474  1.7411
 6021TIP3   OH239553   1.813   1.586  12.583  0.5963  0.0300 -0.4276
 6021TIP3    H139554   1.889   1.633  12.618  0.7008 -0.6324  0.2815
 6021TIP3    H239555   1.764   1.559  12.661  0.9645 -1.7028 -0.7528
 6022TIP3   OH239556   1.161   5.566  16.703  0.1539 -0.4290  0.2207
 6022TIP3    H139557   1.223   5.551  16.774 -0.2508 -0.4872  0.5636
 6022TIP3    H239558   1.182   5.498  16.638  0.4594 -0.4376  0.3287
 6023TIP3   OH239559   1.284   0.870  10.860 -0.0998  0.2220  0.4455
 6023TIP3    H139560   1.278   0.848  10.953 -0.8250  0.2314  0.4132
 6023TIP3    H239561   1.365   0.920  10.851 -0.3624  0.7920  1.1922
 6024TIP3   OH239562   6.119   1.574   5.539  0.1799 -0.0018 -0.3692
 6024TIP3    H139563   6.111   1.610   5.627 -0.2399  2.1872 -1.2442
 6024TIP3    H239564   6.210   1.589   5.515  0.4364 -1.0956 -0.1284
 6025TIP3   OH239565   3.088   5.699  11.421  0.5110  0.3045  0.0303
 6025TIP3    H139566   3.127   5.775  11.379  1.1810 -0.7473 -1.3220
 6025TIP3    H239567   3.113   5.625  11.366 -2.3242 -0.6105 -0.2234
 6026TIP3   OH239568   5.261   0.380   0.609 -0.0786  0.3488  0.6476
 6026TIP3    H139569   5.199   0.452   0.604 -1.2844 -0.7345 -1.1901
 6026TIP3    H239570   5.255   0.350   0.700 -1.7771  0.6998  0.6914
 6027TIP3   OH239571   4.377   5.403  15.152 -0.4823 -0.1345 -0.2294
 6027TIP3    H139572   4.334   5.374  15.071 -0.0902 -2.5288  0.3444
 6027TIP3    H239573   4.307   5.444  15.203 -1.1978 -0.4593 -0.9313
 6028TIP3   OH239574   2.945   6.712  15.590  0.4541  0.2347 -0.0008
 6028TIP3    H139575   3.015   6.712  15.655 -0.9242 -0.0505  1.5685
 6028TIP3    H239576   2.927   6.805  15.576  0.2562  0.3057  0.6462
 6029TIP3   OH239577   3.318   2.827  12.743 -0.7285 -0.6043  0.2217
 6029TIP3    H139578   3.258   2.755  12.724 -1.6436  0.5487 -1.5155
 6029TIP3    H239579   3.400   2.801  12.700 -0.8740 -0.8597  0.0934
 6030TIP3   OH239580   0.507   1.679  14.847 -0.2008 -0.2495  0.8750
 6030TIP3    H139581   0.582   1.647  14.796 -0.0271  1.1600  0.2070
 6030TIP3    H239582   0.493   1.611  14.913  0.4924 -1.4221 -0.1403
 6031TIP3   OH239583   0.212   3.245  11.239  0.2519 -0.1044 -0.9701
 6031TIP3    H139584   0.235   3.254  11.331  1.2057 -2.9943 -0.8319
 6031TIP3    H239585   0.263   3.313  11.195  0.9098  0.3764  0.4721
 6032TIP3   OH239586   3.549   3.578   4.036 -0.0730  0.1323 -0.2877
 6032TIP3    H139587   3.611   3.574   3.963  0.5287 -0.9604  0.2554
 6032TIP3    H239588   3.591   3.634   4.101  0.4911 -0.8217  0.1901
 6033TIP3   OH239589   2.690   6.358  15.356 -0.1531 -0.0409  0.1567
 6033TIP3    H139590   2.624   6.410  15.402  0.6153  0.0999  1.1683
 6033TIP3    H239591   2.770   6.412  15.362  0.1041 -0.2951 -0.8498
 6034TIP3   OH239592   2.036   1.586   2.371 -0.1595  0.0473  0.1994
 6034TIP3    H139593   1.975   1.656   2.347 -1.1266 -0.5090  1.0037
 6034TIP3    H239594   2.011   1.512   2.315 -0.1028 -0.1250  0.4013
 6035TIP3   OH239595   3.640   3.718   5.199 -0.4927 -0.6084  0.5129
 6035TIP3    H139596   3.656   3.635   5.244 -1.1667 -2.0481 -1.7220
 6035TIP3    H239597   3.721   3.736   5.151 -1.0653 -1.1327 -0.6865
 6036TIP3   OH239598   5.421   2.894  12.319  0.5398  0.1813 -0.2077
 6036TIP3    H139599   5.334   2.874  12.285  0.1245  0.6353  0.5578
 6036TIP3    H239600   5.419   2.988  12.338  0.6679 -0.0962  1.2815
 6037TIP3   OH239601   2.646   6.634  13.599 -0.2181 -0.1111  0.3216
 6037TIP3    H139602   2.642   6.730  13.604 -0.2836 -0.1622  1.2766
 6037TIP3    H239603   2.729   6.616  13.554 -0.1686  0.3907  0.2060
 6038TIP3   OH239604   4.869   0.281   6.964  0.2661 -0.3677  0.0441
 6038TIP3    H139605   4.861   0.376   6.966  1.4915 -0.2193 -0.8100
 6038TIP3    H239606   4.955   0.265   6.924  0.5524 -1.8186  1.1641
 6039TIP3   OH239607   3.778   1.645   3.651 -0.1445  0.2615  0.2150
 6039TIP3    H139608   3.870   1.646   3.677  0.1608 -1.1477 -0.6607
 6039TIP3    H239609   3.743   1.564   3.689 -1.0293  0.7773  0.5329
 6040TIP3   OH239610   4.305   0.657   3.652  0.4085  0.3859 -0.2260
 6040TIP3    H139611   4.235   0.646   3.717  0.8011  0.9318  0.3081
 6040TIP3    H239612   4.296   0.582   3.594  0.0218 -0.1024  0.4444
 6041TIP3   OH239613   3.413   2.679  11.480 -0.1789  0.3392  0.0121
 6041TIP3    H139614   3.479   2.746  11.461  1.2044 -1.0024 -0.1566
 6041TIP3    H239615   3.376   2.657  11.395  1.2106 -0.8935 -0.3143
 6042TIP3   OH239616   3.322   0.505  14.561 -0.0627  0.1383  0.0816
 6042TIP3    H139617   3.389   0.571  14.541  1.0529 -0.5728  1.3800
 6042TIP3    H239618   3.252   0.523  14.497  0.1515  2.6418  0.4421
 6043TIP3   OH239619   0.177   2.405  12.922 -0.2074  0.0293  0.1937
 6043TIP3    H139620   0.253   2.373  12.971 -0.0679  0.8778  0.5495
 6043TIP3    H239621   0.208   2.413  12.832 -0.0496 -0.1798  0.2259
 6044TIP3   OH239622   5.697   6.280   4.758  0.4612 -0.7187 -0.3824
 6044TIP3    H139623   5.708   6.185   4.757 -0.0954 -0.7911 -1.2217
 6044TIP3    H239624   5.763   6.312   4.696 -1.8265 -0.9209 -3.1706
 6045TIP3   OH239625   4.929   3.877   1.460 -0.5336  0.3487 -0.4965
 6045TIP3    H139626   4.896   3.950   1.408 -0.6920 -0.4310 -1.5379
 6045TIP3    H239627   4.883   3.800   1.425 -1.8394 -0.0393  1.8714
 6046TIP3   OH239628   4.557   0.202   2.217  0.0661  0.1464 -0.1509
 6046TIP3    H139629   4.601   0.119   2.233 -1.6295 -0.8040 -0.1640
 6046TIP3    H239630   4.583   0.258   2.290  3.3566  0.5861 -1.5059
 6047TIP3   OH239631   6.704   6.360  15.761 -0.0251 -0.0494 -0.7301
 6047TIP3    H139632   6.776   6.409  15.801 -0.5097  0.0298  0.0785
 6047TIP3    H239633   6.742   6.321  15.683  0.1460  2.3986 -1.9718
 6048TIP3   OH239634   5.387   5.433  12.598  0.5427  0.3143 -0.5062
 6048TIP3    H139635   5.409   5.403  12.510 -1.1933  0.0749 -0.8775
 6048TIP3    H239636   5.343   5.517  12.584  0.3313  0.3145  0.1523
 6049TIP3   OH239637   3.834   6.441   1.638 -0.2821 -0.5424  0.1806
 6049TIP3    H139638   3.791   6.477   1.561 -1.2398  0.4896  1.1472
 6049TIP3    H239639   3.923   6.421   1.610 -0.4196  0.4502 -1.0064
 6050TIP3   OH239640   4.123   5.665   4.818 -0.5057 -0.0154  0.4745
 6050TIP3    H139641   4.051   5.605   4.840 -0.1388 -1.1664 -1.2480
 6050TIP3    H239642   4.083   5.733   4.764 -0.4673 -0.1585  0.2643
 6051TIP3   OH239643   0.410   1.728  15.361  0.0280 -0.5177 -0.3210
 6051TIP3    H139644   0.478   1.719  15.295  1.0172 -0.4291  0.6614
 6051TIP3    H239645   0.456   1.718  15.444 -0.9171  0.9704  0.4167
 6052TIP3   OH239646   0.553   2.687  16.952 -0.0020 -0.0218 -0.2359
 6052TIP3    H139647   0.557   2.623  16.881 -0.1483 -0.3127  0.0183
 6052TIP3    H239648   0.644   2.706  16.972  0.0754  1.4709 -1.7677
 6053TIP3   OH239649   6.360   0.320   4.127 -0.2034  0.2556 -0.3301
 6053TIP3    H139650   6.381   0.347   4.038 -0.8066  0.0714 -0.5309
 6053TIP3    H239651   6.298   0.249   4.117 -1.7403  1.4603  0.2464
 6054TIP3   OH239652   4.187   0.050   4.546 -0.0112  0.2325  0.5271
 6054TIP3    H139653   4.123   0.077   4.611 -1.1333  0.3849 -0.5982
 6054TIP3    H239654   4.203  -0.043   4.566 -0.3510  0.2726  1.0084
 6055TIP3   OH239655   6.376   6.683  13.953  0.0568 -0.9269  0.0032
 6055TIP3    H139656   6.285   6.704  13.974  0.7708  0.9733  1.4285
 6055TIP3    H239657   6.387   6.593  13.984 -1.3112 -1.1938 -0.2028
 6056TIP3   OH239658   0.849   6.204  17.107  0.4732  0.2933 -0.0361
 6056TIP3    H139659   0.857   6.160  17.022  1.5438 -0.2386  0.3108
 6056TIP3    H239660   0.855   6.134  17.171  2.6750  0.9303  0.5471
 6057TIP3   OH239661   4.052   4.668  15.985  0.1857 -0.3072  0.0326
 6057TIP3    H139662   4.078   4.759  16.000 -2.8330  0.4400  1.5793
 6057TIP3    H239663   4.031   4.664  15.892  0.3707  0.5940 -0.0618
 6058TIP3   OH239664   0.369   2.713   0.017  0.0658 -0.4173 -0.3371
 6058TIP3    H139665   0.307   2.784   0.001  2.0445  2.1604  2.4019
 6058TIP3    H239666   0.442   2.731  -0.043 -0.1169 -1.1136 -0.7732
 6059TIP3   OH239667   3.899   0.559  16.464 -0.0429  0.2681 -0.2898
 6059TIP3    H139668   3.866   0.548  16.375  0.3729 -1.7253 -0.2497
 6059TIP3    H239669   3.992   0.536  16.459 -0.2711 -1.0416  0.8474
 6060TIP3   OH239670   2.378   4.845  11.709  0.6871 -0.8051 -0.1002
 6060TIP3    H139671   2.380   4.753  11.736 -2.6030 -1.2517 -0.9325
 6060TIP3    H239672   2.352   4.892  11.789  1.9304 -0.6168  0.2114
 6061TIP3   OH239673   3.597   4.390  16.493  0.0037  0.2607  0.1751
 6061TIP3    H139674   3.540   4.324  16.531  0.1986  0.4330  0.7784
 6061TIP3    H239675   3.588   4.466  16.550  0.9600  0.2329  0.3755
 6062TIP3   OH239676   2.151   4.031  11.136  0.1815  0.1414 -0.0057
 6062TIP3    H139677   2.115   4.117  11.116  1.0905  1.1062  2.1259
 6062TIP3    H239678   2.121   4.013  11.225  1.1884 -1.0820  0.1209
 6063TIP3   OH239679   4.368   5.773   4.655  0.4198  0.2133  0.2206
 6063TIP3    H139680   4.409   5.696   4.695 -0.4348  0.5491  1.8024
 6063TIP3    H239681   4.286   5.785   4.702 -1.3000 -0.0922 -2.4832
 6064TIP3   OH239682   0.591   3.776   1.968  0.5041  0.2701 -0.0457
 6064TIP3    H139683   0.640   3.768   2.050  1.9388  2.1278 -0.6531
 6064TIP3    H239684   0.637   3.718   1.907 -0.7119 -1.3081  0.4408
 6065TIP3   OH239685   5.188   4.067   1.896  0.0855 -0.3441 -0.5495
 6065TIP3    H139686   5.226   3.992   1.942  0.7528  0.9630  1.1156
 6065TIP3    H239687   5.152   4.122   1.965 -1.4690  0.3217 -1.8201
 6066TIP3   OH239688   2.714   1.385   1.162  0.2342  0.0260 -0.2228
 6066TIP3    H139689   2.729   1.345   1.248  2.6980  0.1493 -0.5379
 6066TIP3    H239690   2.643   1.448   1.177 -0.1562 -0.7502  1.4385
 6067TIP3   OH239691   3.139   2.254  16.395  0.8425 -0.4369  0.1702
 6067TIP3    H139692   3.151   2.275  16.302  1.0884 -0.0561  0.2835
 6067TIP3    H239693   3.173   2.165  16.404  0.2008 -0.7273 -0.2373
 6068TIP3   OH239694   2.601   1.365  15.368  0.1673 -0.1306  0.6183
 6068TIP3    H139695   2.676   1.335  15.420 -1.0682 -0.9059  2.0594
 6068TIP3    H239696   2.527   1.313  15.401 -1.2857  1.6125  0.2819
 6069TIP3   OH239697   2.646   3.149  13.762 -0.1891 -0.0764  0.4948
 6069TIP3    H139698   2.713   3.108  13.708 -1.8313 -0.7045 -1.1513
 6069TIP3    H239699   2.678   3.138  13.852  1.0309 -1.9893 -0.1150
 6070TIP3   OH239700   4.818   6.298   5.881  0.0264  0.1188  0.3863
 6070TIP3    H139701   4.791   6.224   5.935 -0.5577 -0.4276 -0.6102
 6070TIP3    H239702   4.909   6.314   5.906  0.4080 -1.4282  0.1314
 6071TIP3   OH239703   3.186   0.919   2.055  0.0750  0.2950 -0.2370
 6071TIP3    H139704   3.156   0.999   2.099  0.0740 -0.1404  0.5827
 6071TIP3    H239705   3.260   0.947   2.002  0.3393  0.7696  0.3720
 6072TIP3   OH239706   2.413   2.802   1.163 -0.0201 -0.5321  0.0447
 6072TIP3    H139707   2.454   2.886   1.184  0.9129 -0.6427 -1.2565
 6072TIP3    H239708   2.339   2.825   1.108  1.0932 -0.6166 -1.5545
 6073TIP3   OH239709   4.689   4.508  13.877 -0.3802 -0.2450 -0.6056
 6073TIP3    H139710   4.650   4.555  13.804 -0.7304 -0.1477 -0.3572
 6073TIP3    H239711   4.615   4.487  13.934  0.2822  4.2662  2.4381
 6074TIP3   OH239712   1.568   0.072  16.167 -0.0424 -0.0003  0.9265
 6074TIP3    H139713   1.599   0.117  16.089  2.3198 -0.4493  1.5216
 6074TIP3    H239714   1.506   0.134  16.208 -0.9687  0.4137 -0.9954
 6075TIP3   OH239715   2.493   3.525  14.924 -0.1459  0.0982  0.3917
 6075TIP3    H139716   2.435   3.449  14.921  0.8555 -0.7203  0.9075
 6075TIP3    H239717   2.458   3.578  14.995 -0.4965 -0.1903  0.4397
 6076TIP3   OH239718   3.340   2.132   1.224 -0.2030 -0.1052 -0.4887
 6076TIP3    H139719   3.388   2.193   1.281  0.6582 -0.9026 -0.3419
 6076TIP3    H239720   3.386   2.138   1.140  0.7876 -1.5749 -0.0876
 6077TIP3   OH239721   4.638   4.586  13.063 -0.4814 -0.6034 -0.7754
 6077TIP3    H139722   4.632   4.633  12.980 -0.4922 -0.9633 -0.9816
 6077TIP3    H239723   4.714   4.625  13.107 -0.4073 -0.4877 -1.0046
 6078TIP3   OH239724   4.469   1.052  13.270  0.3030 -0.3097  0.2805
 6078TIP3    H139725   4.392   1.035  13.324 -0.1499 -0.5413 -0.4184
 6078TIP3    H239726   4.540   1.006  13.314 -0.4828 -2.3622 -0.4551
 6079TIP3   OH239727   1.007   0.385  15.495 -0.9814  0.3171  0.0199
 6079TIP3    H139728   0.986   0.429  15.578  1.2712  1.3908  0.1045
 6079TIP3    H239729   1.103   0.379  15.495 -1.0075 -0.8849 -1.9219
 6080TIP3   OH239730   0.002   0.342   1.493 -0.1160 -0.0066  0.5211
 6080TIP3    H139731   0.024   0.397   1.569  0.6602 -0.1251  0.3892
 6080TIP3    H239732   0.069   0.363   1.428  0.2358 -1.1310  0.4845
 6081TIP3   OH239733   2.047   3.913   1.145 -0.0883 -0.2491  0.1756
 6081TIP3    H139734   2.081   3.823   1.138 -0.0464 -0.4663  2.3783
 6081TIP3    H239735   2.094   3.950   1.220 -0.0403  1.6670 -0.7538
 6082TIP3   OH239736   5.246   1.534   0.595 -0.2904 -0.4431  0.4875
 6082TIP3    H139737   5.208   1.600   0.537  0.9416  1.1400  1.4090
 6082TIP3    H239738   5.205   1.548   0.679 -0.9309 -1.7138  0.4133
 6083TIP3   OH239739   5.866   2.278   4.090 -0.3608  0.3814  0.4076
 6083TIP3    H139740   5.906   2.211   4.146 -0.9725 -1.3653 -1.1432
 6083TIP3    H239741   5.820   2.336   4.150  1.4003  0.3055  1.9279
 6084TIP3   OH239742   6.430   2.263   2.224  0.2288 -0.1367 -0.2591
 6084TIP3    H139743   6.504   2.317   2.197  0.6576  0.7338  2.3762
 6084TIP3    H239744   6.364   2.326   2.254  0.1588 -1.0063  1.4978
 6085TIP3   OH239745   0.788   6.568   1.929 -0.5262 -0.9855 -0.0021
 6085TIP3    H139746   0.784   6.517   2.010  0.4141 -1.2184 -0.0922
 6085TIP3    H239747   0.700   6.560   1.892 -1.0128 -0.7319  1.0725
 6086TIP3   OH239748   5.394   1.806   0.425 -0.4867  0.4690  0.4185
 6086TIP3    H139749   5.302   1.785   0.412 -0.2440 -1.6850  1.7464
 6086TIP3    H239750   5.393   1.889   0.473 -1.7797  0.0789  1.1178
 6087TIP3   OH239751   5.253   0.176   4.920 -0.3927 -0.0017  0.3550
 6087TIP3    H139752   5.199   0.187   4.841  1.7345  0.1754 -1.1524
 6087TIP3    H239753   5.276   0.265   4.945 -0.9262 -0.0674  1.0989
 6088TIP3   OH239754   1.970   5.928   4.899  0.0093  0.1216  0.0186
 6088TIP3    H139755   1.931   5.933   4.986  1.3733 -0.2522  0.6906
 6088TIP3    H239756   1.989   5.835   4.887  0.1067  0.2140 -0.5426
 6089TIP3   OH239757   5.810   5.560  15.951 -0.1432 -0.0259 -0.3999
 6089TIP3    H139758   5.833   5.650  15.930  0.2962  0.1178  0.6370
 6089TIP3    H239759   5.793   5.561  16.045 -0.2276 -1.0066 -0.3930
 6090TIP3   OH239760   2.970   1.461  12.853  0.4025 -0.1164  0.4834
 6090TIP3    H139761   2.893   1.413  12.884  0.6941 -0.1986  1.0786
 6090TIP3    H239762   2.954   1.551  12.880  1.4822 -0.4777  2.5178
 6091TIP3   OH239763   5.943   0.779  12.109  0.2355 -0.0531  0.2179
 6091TIP3    H139764   5.971   0.688  12.097  0.9024  0.0659  0.8203
 6091TIP3    H239765   5.934   0.789  12.204 -0.9838  0.1783  0.0896
 6092TIP3   OH239766   6.609   4.393  16.897 -0.1186  0.0947 -0.0950
 6092TIP3    H139767   6.655   4.348  16.826  1.5964 -0.2844  1.1734
 6092TIP3    H239768   6.656   4.476  16.908 -0.1687  0.0198  0.7783
 6093TIP3   OH239769   4.308   3.274  10.440  0.2047 -0.2667  0.6577
 6093TIP3    H139770   4.337   3.224  10.363  0.5205  1.3443 -0.3123
 6093TIP3    H239771   4.255   3.212  10.490  0.0640 -1.3902 -0.8166
 6094TIP3   OH239772   3.986   5.582  11.692  0.4240 -0.0408 -0.2853
 6094TIP3    H139773   4.063   5.612  11.741 -0.4689  1.5988  0.1926
 6094TIP3    H239774   3.957   5.660  11.644 -1.1037 -0.5527 -0.2269
 6095TIP3   OH239775   6.826   5.733  15.401  0.0364 -0.2145  0.0821
 6095TIP3    H139776   6.872   5.796  15.457  2.1377  0.7711 -2.5133
 6095TIP3    H239777   6.757   5.783  15.358  1.3673  0.2960 -1.5780
 6096TIP3   OH239778   1.137   1.457  10.562  0.1653  0.4243 -0.2176
 6096TIP3    H139779   1.158   1.550  10.553  1.9151  0.0411 -0.4451
 6096TIP3    H239780   1.221   1.415  10.582  0.1335 -1.5606 -3.5697
 6097TIP3   OH239781   3.541   3.164   3.398  0.2326 -0.0444  0.1870
 6097TIP3    H139782   3.456   3.122   3.385 -1.5301  2.1697  3.1829
 6097TIP3    H239783   3.545   3.232   3.331 -0.2795 -0.2517 -0.0559
 6098TIP3   OH239784   5.557   5.756  14.482  0.3762  0.2282  0.0207
 6098TIP3    H139785   5.572   5.767  14.576 -1.7739 -0.8954  0.5734
 6098TIP3    H239786   5.496   5.826  14.459  0.7162  0.3593 -0.4918
 6099TIP3   OH239787   5.639   0.827  16.549  0.0198  0.7213  0.3464
 6099TIP3    H139788   5.718   0.869  16.584 -0.3533  0.0307  2.1138
 6099TIP3    H239789   5.589   0.899  16.510  2.2982  0.9309 -2.5417
 6100TIP3   OH239790   4.708   5.716  11.382  0.7267  0.2160 -0.0245
 6100TIP3    H139791   4.747   5.801  11.361  1.0642  0.2718  0.8000
 6100TIP3    H239792   4.768   5.678  11.446  0.0085 -0.1835  0.4155
 6101TIP3   OH239793   6.330   5.576  13.155 -0.2706  0.2266 -0.2493
 6101TIP3    H139794   6.320   5.643  13.087  1.0018 -1.6945 -2.4563
 6101TIP3    H239795   6.424   5.569  13.169 -0.4373 -0.4721  0.5987
 6102TIP3   OH239796   1.547   3.841  16.170  0.0061  0.0323  0.4973
 6102TIP3    H139797   1.640   3.838  16.195  0.0157  2.6238  1.0715
 6102TIP3    H239798   1.505   3.891  16.241 -1.7247 -0.5941 -0.0494
 6103TIP3   OH239799   4.574   2.200  13.864  0.4088  0.5143  0.5377
 6103TIP3    H139800   4.498   2.147  13.887  0.7593 -1.0244 -1.5014
 6103TIP3    H239801   4.645   2.136  13.852  1.1471  1.5309 -0.8630
 6104TIP3   OH239802   3.832   2.969  13.822  0.0841 -0.7349  0.2339
 6104TIP3    H139803   3.804   3.059  13.803 -0.1837 -1.1009 -1.2344
 6104TIP3    H239804   3.890   2.978  13.897  0.7254  0.7877 -0.3900
 6105TIP3   OH239805   4.884   6.830   4.879 -0.3604 -0.5338  0.0601
 6105TIP3    H139806   4.935   6.877   4.813  1.8842 -3.2769 -0.3615
 6105TIP3    H239807   4.810   6.794   4.830  0.5923 -1.4784 -0.7343
 6106TIP3   OH239808   0.159   4.629  16.938  0.5917  0.1669 -0.0259
 6106TIP3    H139809   0.156   4.647  16.844 -3.1576  1.2393  0.1381
 6106TIP3    H239810   0.171   4.534  16.944  1.6014  0.1627 -1.5057
 6107TIP3   OH239811   2.946   2.775  15.842  0.4660 -0.0683 -0.2215
 6107TIP3    H139812   2.952   2.861  15.884  1.8601  0.1884 -0.8983
 6107TIP3    H239813   2.860   2.741  15.870  0.5745  0.8402  1.3532
 6108TIP3   OH239814   5.907   3.036  12.436 -0.3916 -0.0601 -0.4172
 6108TIP3    H139815   5.822   3.030  12.393  0.0820  0.9760 -1.5416
 6108TIP3    H239816   5.910   3.124  12.474  0.8473  0.6016 -1.9309
 6109TIP3   OH239817   0.389   6.006   1.322  0.0788  0.1544  0.3304
 6109TIP3    H139818   0.405   5.980   1.231 -0.0992 -0.9557  0.6057
 6109TIP3    H239819   0.476   6.023   1.357  0.0869  1.5943 -0.3218
 6110TIP3   OH239820   6.225   3.818   4.775 -0.2526  0.0053  0.0795
 6110TIP3    H139821   6.210   3.912   4.783  0.6142 -0.0051  2.5110
 6110TIP3    H239822   6.308   3.811   4.727 -1.4345  0.3575 -2.1377
 6111TIP3   OH239823   3.525   1.623   0.490 -0.1648  0.0550  0.2350
 6111TIP3    H139824   3.486   1.674   0.419 -0.1870  0.2507  0.3859
 6111TIP3    H239825   3.602   1.582   0.451  0.8719  1.6042  0.5517
 6112TIP3   OH239826   3.217   0.777  13.693  0.0191 -0.5935 -0.3769
 6112TIP3    H139827   3.284   0.759  13.759 -0.3435 -0.7179 -0.0326
 6112TIP3    H239828   3.162   0.845  13.734  0.1179 -0.2668 -0.7818
 6113TIP3   OH239829   5.603   2.113  15.609  0.2797  0.4190 -0.5423
 6113TIP3    H139830   5.634   2.203  15.597  1.0841  0.0973 -0.9067
 6113TIP3    H239831   5.682   2.061  15.618 -0.1898 -0.1534  0.4825
 6114TIP3   OH239832   6.143   2.916   4.868  0.5159  0.7144 -0.7427
 6114TIP3    H139833   6.223   2.896   4.916 -0.4585  0.6220  0.9444
 6114TIP3    H239834   6.106   2.830   4.846  0.6689  0.7534 -1.1602
 6115TIP3   OH239835   1.824   3.361  12.917  0.2477  0.1826 -0.4163
 6115TIP3    H139836   1.751   3.415  12.950 -0.4041 -0.5726 -0.5935
 6115TIP3    H239837   1.900   3.418  12.923 -0.2672  0.8186  0.2600
 6116TIP3   OH239838   0.115   3.973  15.029 -0.8861 -0.7052  0.3120
 6116TIP3    H139839   0.098   4.066  15.016 -0.2794 -0.6249  0.0415
 6116TIP3    H239840   0.052   3.929  14.971  0.2502 -0.4007 -1.2400
 6117TIP3   OH239841   5.051   2.168  14.486  0.5038 -0.2430  0.8109
 6117TIP3    H139842   5.136   2.153  14.528  0.5568 -1.0839  0.4274
 6117TIP3    H239843   5.047   2.103  14.416 -0.4054 -0.1292  0.7429
 6118TIP3   OH239844   5.681   4.485   0.580  0.1228 -0.2626 -0.5530
 6118TIP3    H139845   5.732   4.522   0.507 -2.7820 -0.0960 -2.6424
 6118TIP3    H239846   5.590   4.499   0.555 -1.0522 -3.2082  1.5942
 6119TIP3   OH239847   0.946   0.617  16.013 -0.0816 -0.1036 -0.2143
 6119TIP3    H139848   0.876   0.604  16.076  0.7141 -1.1767  0.4884
 6119TIP3    H239849   1.026   0.614  16.065  0.5056  0.9277 -1.0222
 6120TIP3   OH239850   4.924   3.132   0.198  0.0683  0.3985  0.1246
 6120TIP3    H139851   4.842   3.130   0.246  0.4732  2.1519  0.9534
 6120TIP3    H239852   4.899   3.151   0.108 -0.4309  0.9406  0.3733
 6121TIP3   OH239853   3.473   4.422  15.862  0.0439  0.0594 -0.0031
 6121TIP3    H139854   3.561   4.433  15.897 -0.4643 -2.9552  2.8391
 6121TIP3    H239855   3.485   4.386  15.774  1.5581  1.3148 -0.3411
 6122TIP3   OH239856   0.449   3.956  12.367  0.0929  0.1997  0.2930
 6122TIP3    H139857   0.539   3.960  12.336  0.7520  1.7066  2.1923
 6122TIP3    H239858   0.455   3.921  12.456 -1.1948  0.2913  0.4392
 6123TIP3   OH239859   1.286   5.909   1.688  0.0362 -0.0762  1.0128
 6123TIP3    H139860   1.285   5.839   1.754  0.5335 -0.1116  0.9897
 6123TIP3    H239861   1.360   5.964   1.713  0.0437  0.0795  0.6556
 6124TIP3   OH239862   5.949   3.857  12.972  0.3561 -0.0907  0.4144
 6124TIP3    H139863   5.917   3.768  12.984 -0.3577  0.0488 -0.3396
 6124TIP3    H239864   5.886   3.897  12.912  1.3459  0.5445 -0.2310
 6125TIP3   OH239865   6.602   4.839  13.836  0.1250  0.2674 -0.2660
 6125TIP3    H139866   6.603   4.813  13.928  1.0989  0.0389 -0.3310
 6125TIP3    H239867   6.511   4.865  13.820  0.5467  3.2832  1.5767
 6126TIP3   OH239868   3.255   6.263   1.916 -0.2400 -0.4876 -0.1032
 6126TIP3    H139869   3.306   6.294   1.991  0.2705 -0.6423 -0.3806
 6126TIP3    H239870   3.317   6.266   1.842 -1.1005  0.9210 -0.7958
 6127TIP3   OH239871   2.743   0.060  13.559 -0.4733 -0.5996 -1.3425
 6127TIP3    H139872   2.768   0.091  13.472  0.0372  0.3377 -0.8871
 6127TIP3    H239873   2.824   0.025  13.596 -1.0036 -2.3180 -1.7666
 6128TIP3   OH239874   5.189   6.318   4.352  0.0556 -0.2213  0.1795
 6128TIP3    H139875   5.240   6.362   4.284 -0.3299 -0.5601 -0.3404
 6128TIP3    H239876   5.192   6.226   4.328 -0.2906 -0.3153  0.4877
 6129TIP3   OH239877   2.638   5.376   4.508  0.2301  0.4522 -0.0158
 6129TIP3    H139878   2.553   5.419   4.519 -0.1622 -0.7127  1.8240
 6129TIP3    H239879   2.621   5.304   4.447 -0.3790 -0.4232  1.1542
 6130TIP3   OH239880   2.517   3.215  16.243 -0.0273  0.3023 -0.3970
 6130TIP3    H139881   2.467   3.279  16.193  2.5050  1.8703 -1.1251
 6130TIP3    H239882   2.475   3.213  16.329 -2.8129 -0.4272 -1.6693
 6131TIP3   OH239883   3.986   2.584  13.058  0.2453  0.9382  0.1584
 6131TIP3    H139884   4.077   2.595  13.030 -0.1391  2.1959 -0.7247
 6131TIP3    H239885   3.955   2.508  13.009  0.9386  0.2252  0.8090
 6132TIP3   OH239886   2.629   3.313  12.690 -0.1815 -0.0532  0.0258
 6132TIP3    H139887   2.573   3.238  12.712  0.3090 -0.1830  0.8888
 6132TIP3    H239888   2.711   3.274  12.661 -1.1999  0.0633 -3.4572
 6133TIP3   OH239889   2.437   0.241   1.462  0.0625 -0.2196  0.6793
 6133TIP3    H139890   2.375   0.299   1.418 -1.5524 -2.1662  0.2236
 6133TIP3    H239891   2.490   0.299   1.517 -0.2205  1.8637 -1.1217
 6134TIP3   OH239892   1.498   6.654  12.391 -0.4970  0.5000  0.0702
 6134TIP3    H139893   1.439   6.591  12.433  1.3055 -1.0809  0.3477
 6134TIP3    H239894   1.440   6.724  12.360 -2.3869 -0.4896  1.1927
 6135TIP3   OH239895   3.287   6.626  16.263 -0.0690 -0.0690  0.0678
 6135TIP3    H139896   3.364   6.665  16.222 -1.2823  0.9252 -1.3609
 6135TIP3    H239897   3.223   6.697  16.268 -0.2203 -0.2891  3.2412
 6136TIP3   OH239898   2.330   3.467   1.721  0.3898 -0.7440  0.1586
 6136TIP3    H139899   2.304   3.490   1.810  0.8082 -3.2270  0.9850
 6136TIP3    H239900   2.250   3.480   1.669  0.8317  3.5222  0.1805
 6137TIP3   OH239901   0.023   0.297  16.429  1.0659  0.5296  0.2108
 6137TIP3    H139902  -0.019   0.344  16.501  0.4099  0.4431 -0.1002
 6137TIP3    H239903  -0.041   0.230  16.405  1.9438 -0.4611  0.5816
 6138TIP3   OH239904   0.990   4.272   4.075 -0.3515  0.7242 -0.2714
 6138TIP3    H139905   0.923   4.270   4.007 -2.2942  1.6851  1.4915
 6138TIP3    H239906   1.054   4.207   4.048 -2.0097 -0.2781 -2.0400
 6139TIP3   OH239907   3.782   3.387  12.231 -0.1312 -0.4016 -0.0289
 6139TIP3    H139908   3.696   3.354  12.259  0.3096 -3.4387 -1.7658
 6139TIP3    H239909   3.839   3.371  12.306 -0.8175  0.6198  0.7403
 6140TIP3   OH239910   0.960   3.629   1.386 -0.4641 -0.4642  0.1656
 6140TIP3    H139911   1.048   3.602   1.413 -1.1701 -1.7844  1.2476
 6140TIP3    H239912   0.907   3.550   1.395 -0.9733 -0.9015 -4.4608
 6141TIP3   OH239913   1.720   3.014  11.804 -0.5575 -0.1428 -0.4121
 6141TIP3    H139914   1.626   3.020  11.788 -0.3811  1.0061 -1.2329
 6141TIP3    H239915   1.733   2.928  11.843 -2.0148 -0.0994  0.2299
 6142TIP3   OH239916   4.612   6.180  17.088 -0.5165 -0.4729 -0.0447
 6142TIP3    H139917   4.583   6.236  17.016  0.9548  2.9600  1.8044
 6142TIP3    H239918   4.532   6.164  17.139 -0.7521  1.3784  0.2374
 6143TIP3   OH239919   0.762   2.854  13.174 -0.6364  0.3227  0.4160
 6143TIP3    H139920   0.714   2.771  13.169 -0.5557  0.2317  1.0012
 6143TIP3    H239921   0.766   2.885  13.084  1.8158 -1.7106 -0.2827
 6144TIP3   OH239922   5.675   4.974   3.584 -0.0142  0.3550 -0.8755
 6144TIP3    H139923   5.739   4.903   3.581 -0.5627 -0.1942  0.1822
 6144TIP3    H239924   5.693   5.019   3.666 -1.6807 -0.4754 -0.0082
 6145TIP3   OH239925   0.124   4.336  11.169  0.4227  0.4296  0.3397
 6145TIP3    H139926   0.164   4.410  11.215  2.1159 -0.2588  0.0640
 6145TIP3    H239927   0.092   4.279  11.239  0.4326  0.7323  0.5932
 6146TIP3   OH239928   6.125   0.349   1.642 -0.0070 -1.0045  0.7151
 6146TIP3    H139929   6.157   0.290   1.574 -2.8168 -0.3994 -1.2850
 6146TIP3    H239930   6.051   0.303   1.682 -0.9661  0.2969  0.5063
 6147TIP3   OH239931   5.541   5.770  14.747  0.3617 -0.0119  0.7921
 6147TIP3    H139932   5.474   5.702  14.744  2.2462 -1.9756 -0.5593
 6147TIP3    H239933   5.493   5.851  14.765 -1.9912 -1.6623  2.5975
 6148TIP3   OH239934   0.197   5.802  12.359  0.2229  0.2606 -0.2041
 6148TIP3    H139935   0.170   5.894  12.360  2.4428  1.0353  2.7730
 6148TIP3    H239936   0.125   5.756  12.402 -0.1402  0.8895 -0.1168
 6149TIP3   OH239937   3.448   5.731  14.650  0.0388  0.0315  0.0882
 6149TIP3    H139938   3.491   5.646  14.648 -1.1584 -0.5799  0.0101
 6149TIP3    H239939   3.512   5.788  14.694 -0.0119 -1.4069  2.1832
 6150TIP3   OH239940   2.056   6.305   2.270 -0.3689 -0.2882 -0.3686
 6150TIP3    H139941   1.984   6.301   2.334  1.0295  0.9590  1.4172
 6150TIP3    H239942   2.060   6.397   2.245  1.9857  0.1872  1.3775
 6151TIP3   OH239943   5.669   4.952  15.725  0.0401  0.4337  0.3712
 6151TIP3    H139944   5.597   4.900  15.688 -0.2269 -0.4816  2.0980
 6151TIP3    H239945   5.631   5.038  15.741 -0.6686 -0.0108  1.1680
 6152TIP3   OH239946   1.461   0.980  11.508 -1.2174 -0.8688 -0.1657
 6152TIP3    H139947   1.372   1.015  11.506 -0.6160  0.9111  0.8124
 6152TIP3    H239948   1.507   1.027  11.439 -0.4829  0.0850  0.9147
 6153TIP3   OH239949   2.762   4.826  15.237  0.3221  0.4028 -0.5267
 6153TIP3    H139950   2.848   4.831  15.196  0.4130  0.1355 -0.3705
 6153TIP3    H239951   2.701   4.816  15.164  0.4238  0.5656 -0.6363
 6154TIP3   OH239952   2.343   0.182   2.993 -0.2746  0.0514  0.5034
 6154TIP3    H139953   2.247   0.181   2.990 -0.3078 -1.6862 -2.6532
 6154TIP3    H239954   2.368   0.269   2.962 -0.7963  0.3686  0.9523
 6155TIP3   OH239955   1.475   1.755  14.475  0.0451 -0.4876 -0.4698
 6155TIP3    H139956   1.531   1.681  14.501 -0.2572 -0.6257 -0.2130
 6155TIP3    H239957   1.410   1.716  14.417 -0.3986 -0.5145  0.0331
 6156TIP3   OH239958   5.054   0.897  16.671  0.1540 -0.1163 -0.0198
 6156TIP3    H139959   5.005   0.901  16.589 -1.1350 -0.0262  0.7202
 6156TIP3    H239960   5.144   0.880  16.645  0.1237  1.7520 -1.5741
 6157TIP3   OH239961   3.989   0.556  12.734  0.0855 -0.0286  0.2730
 6157TIP3    H139962   3.904   0.527  12.701  1.4009 -2.2287 -1.4521
 6157TIP3    H239963   3.987   0.535  12.827 -1.1832 -0.1898  0.2317
 6158TIP3   OH239964   2.973   3.807  15.281 -0.4861 -0.0153 -0.1795
 6158TIP3    H139965   2.890   3.791  15.236 -1.4110  0.3813  1.3056
 6158TIP3    H239966   3.009   3.720  15.298  0.0332 -0.1725 -1.8661
 6159TIP3   OH239967   4.949   1.767  12.556  0.2656 -0.0638  0.3750
 6159TIP3    H139968   4.900   1.846  12.534 -0.3981 -0.2939  1.0057
 6159TIP3    H239969   4.882   1.702  12.578  0.8381 -0.2041  1.8371
 6160TIP3   OH239970   5.288   2.499   1.835  0.1949 -0.8043  0.1364
 6160TIP3    H139971   5.200   2.500   1.872  0.5779 -0.8854  1.1009
 6160TIP3    H239972   5.343   2.465   1.906  1.0542 -0.4138 -0.3239
 6161TIP3   OH239973   5.629   5.738   4.377 -0.7315 -0.0918 -0.6300
 6161TIP3    H139974   5.623   5.686   4.297  0.0858 -0.1508 -0.6639
 6161TIP3    H239975   5.702   5.698   4.426 -0.0131  1.0786 -0.7119
 6162TIP3   OH239976   1.709   4.364  12.339 -0.3858  0.0846 -0.4947
 6162TIP3    H139977   1.722   4.287  12.284 -0.2157 -0.1173 -0.1733
 6162TIP3    H239978   1.744   4.339  12.425 -0.4653  0.4662 -0.3481
 6163TIP3   OH239979   5.293   2.959   3.367  0.0211  0.1283  0.5692
 6163TIP3    H139980   5.315   2.868   3.385  1.3376  0.6956  2.0192
 6163TIP3    H239981   5.248   2.956   3.282  1.0988 -1.7365 -0.0045
 6164TIP3   OH239982   5.355   6.769  15.552 -0.0440 -0.1357  0.0864
 6164TIP3    H139983   5.365   6.861  15.579 -2.1764  0.7631 -1.8756
 6164TIP3    H239984   5.418   6.758  15.481  1.7128 -0.9153  1.6522
 6165TIP3   OH239985   4.888   2.350   1.117 -0.1778  0.3180  0.5328
 6165TIP3    H139986   4.943   2.381   1.045  0.5712  0.3745  1.1146
 6165TIP3    H239987   4.799   2.366   1.088  0.0547 -0.9335 -0.9625
 6166TIP3   OH239988   1.808   3.088   6.218  0.2118  0.6036  0.6201
 6166TIP3    H139989   1.847   3.173   6.197 -0.0299  1.4754  3.2664
 6166TIP3    H239990   1.725   3.110   6.260  0.4266 -0.8967  1.9342
 6167TIP3   OH239991   3.797   1.559  14.338  0.2355  0.0228 -0.0418
 6167TIP3    H139992   3.722   1.618  14.347  0.0514 -0.1479 -0.4527
 6167TIP3    H239993   3.768   1.492  14.276  0.2055 -0.8897  0.9369
 6168TIP3   OH239994   2.161   2.149   2.232  0.2094  0.3205  0.2480
 6168TIP3    H139995   2.239   2.102   2.261  0.0639 -0.7062 -0.9464
 6168TIP3    H239996   2.192   2.238   2.216  0.0019  1.4524  4.8343
 6169TIP3   OH239997   5.570   6.244  12.220 -0.4525  0.4127  0.2570
 6169TIP3    H139998   5.487   6.206  12.248  0.4873 -0.6999  1.7383
 6169TIP3    H239999   5.578   6.324  12.272  0.4060 -0.6692  1.8959
 6170TIP3   OH240000   4.943   0.277   5.386 -0.0326  0.5457  0.0086
 6170TIP3    H140001   4.905   0.192   5.409  0.3022  0.8397  1.8108
 6170TIP3    H240002   4.868   0.337   5.388  0.2632  0.9531  2.6314
 6171TIP3   OH240003   1.621   5.283   2.031  0.3145  0.0430 -0.2553
 6171TIP3    H140004   1.680   5.358   2.033 -1.4135  1.4552  0.4736
 6171TIP3    H240005   1.657   5.222   2.095  1.7923  0.1873 -0.9191
 6172TIP3   OH240006   3.872   3.655   1.757 -0.3242 -0.2682  0.8590
 6172TIP3    H140007   3.895   3.567   1.727 -1.6362  0.6838 -3.8798
 6172TIP3    H240008   3.783   3.646   1.790 -0.0984 -0.8647  1.3226
 6173TIP3   OH240009   0.331   6.573   5.638 -1.3162  0.2814  0.2914
 6173TIP3    H140010   0.270   6.584   5.565 -1.1790 -0.3471  0.0781
 6173TIP3    H240011   0.387   6.651   5.635 -0.8889 -0.0555 -0.6796
 6174TIP3   OH240012   3.237   5.802   4.828  0.3241 -0.5056  0.0480
 6174TIP3    H140013   3.202   5.740   4.892  0.5373  0.2791  0.9560
 6174TIP3    H240014   3.178   5.796   4.753 -1.1507  0.0109  1.1146
 6175TIP3   OH240015   6.800   1.937   2.404 -0.4404  0.5922 -0.3682
 6175TIP3    H140016   6.789   1.921   2.498  0.9537 -1.2895 -0.4669
 6175TIP3    H240017   6.711   1.948   2.371 -1.1363 -1.0168  0.8293
 6176TIP3   OH240018   4.416   1.137  15.307 -0.1456  0.5092 -0.5266
 6176TIP3    H140019   4.410   1.100  15.395 -0.4940 -2.3548 -1.6511
 6176TIP3    H240020   4.506   1.169  15.300  0.3567 -0.6558  0.3673
 6177TIP3   OH240021   3.667   5.171   5.829  0.6935  0.0058 -0.0552
 6177TIP3    H140022   3.622   5.222   5.762 -0.2845  1.1005  1.3660
 6177TIP3    H240023   3.760   5.190   5.816  0.3356  2.7725  0.8240
 6178TIP3   OH240024   2.094   3.735   5.752 -0.2368 -0.6168  0.9567
 6178TIP3    H140025   2.096   3.648   5.793  2.4941 -1.8230 -1.3624
 6178TIP3    H240026   2.064   3.718   5.662 -1.1238  1.1153  0.8913
 6179TIP3   OH240027   6.268   5.216  14.640  0.2636 -0.0359  0.1099
 6179TIP3    H140028   6.175   5.224  14.619  0.4301 -0.1700 -0.7155
 6179TIP3    H240029   6.295   5.136  14.595  1.0883  0.7446 -0.8271
 6180TIP3   OH240030   3.475   2.075  15.162  0.8359  0.3562  0.1996
 6180TIP3    H140031   3.541   2.005  15.162  0.0474 -0.4171 -0.7639
 6180TIP3    H240032   3.435   2.070  15.248  0.5444 -0.6440  0.0245
 6181TIP3   OH240033   3.201   2.359  15.147  0.2741  0.5991  0.1410
 6181TIP3    H140034   3.271   2.394  15.202  0.8086 -0.4936  0.1861
 6181TIP3    H240035   3.175   2.278  15.190  0.1246  0.1503 -0.7574
 6182TIP3   OH240036   3.310   1.170  11.080 -0.1039  0.1916  0.5081
 6182TIP3    H140037   3.253   1.219  11.139  0.0649  1.1001 -0.0681
 6182TIP3    H240038   3.272   1.082  11.077 -3.1909  1.4088 -1.9857
 6183TIP3   OH240039   6.584   0.868   1.709  0.3750 -0.2860  0.0801
 6183TIP3    H140040   6.496   0.831   1.705  0.2078  0.1685 -0.5155
 6183TIP3    H240041   6.571   0.963   1.705  0.8870 -0.2112  0.0839
 6184TIP3   OH240042   1.710   0.481  14.873  0.0411  0.0292 -0.3876
 6184TIP3    H140043   1.666   0.542  14.815 -2.8882 -0.9192  0.6477
 6184TIP3    H240044   1.641   0.421  14.902  2.0200 -1.5127  1.5098
 6185TIP3   OH240045   5.352   1.980  12.130 -0.3411 -0.1971  0.4428
 6185TIP3    H140046   5.427   1.981  12.189 -1.0354  0.1298  1.3481
 6185TIP3    H240047   5.389   1.961  12.044  0.5823 -1.6664  1.1348
 6186TIP3   OH240048   4.895   1.727   4.493 -0.0170 -0.9704  0.0665
 6186TIP3    H140049   4.804   1.732   4.522 -0.2271  0.3947 -0.7541
 6186TIP3    H240050   4.916   1.816   4.466  0.7761 -1.7514 -2.0646
 6187TIP3   OH240051   4.090   1.341  15.356  0.5516 -0.1383  0.1812
 6187TIP3    H140052   4.124   1.406  15.295 -1.5151  0.9502  0.1270
 6187TIP3    H240053   4.168   1.296  15.389  2.0595  2.2800  0.1482
 6188TIP3   OH240054   5.960   3.306  12.092 -0.4862  0.0438  0.1345
 6188TIP3    H140055   5.940   3.212  12.090  1.5077 -0.4483  1.1049
 6188TIP3    H240056   5.952   3.333  12.000  0.0635 -1.3428 -0.3543
 6189TIP3   OH240057   2.418   5.207   6.416  0.2266 -0.5513 -0.9292
 6189TIP3    H140058   2.374   5.265   6.477 -1.8621 -2.1335 -0.8444
 6189TIP3    H240059   2.505   5.194   6.453  0.3051  1.4852 -0.3140
 6190TIP3   OH240060   5.597   6.647  15.374 -0.6994  0.0110  0.1521
 6190TIP3    H140061   5.586   6.557  15.344 -0.2387  0.0213 -0.0548
 6190TIP3    H240062   5.667   6.643  15.439 -1.1842  0.1072  0.6945
 6191TIP3   OH240063   3.109   6.092   0.087 -0.4891 -0.8033  0.4102
 6191TIP3    H140064   3.083   6.181   0.110  0.5104 -0.2970 -0.3314
 6191TIP3    H240065   3.032   6.039   0.106 -1.4544  0.3705 -0.1047
 6192TIP3   OH240066   1.084   0.652   3.225  0.5512 -0.4577 -0.4894
 6192TIP3    H140067   1.051   0.731   3.267  0.0378  0.1148 -1.9237
 6192TIP3    H240068   1.020   0.585   3.246  0.0168 -0.0487 -0.7739
 6193TIP3   OH240069   3.850   5.826  12.304  0.3140  0.1292 -0.1328
 6193TIP3    H140070   3.772   5.860  12.260 -0.0408  1.5280  1.4532
 6193TIP3    H240071   3.904   5.790  12.234 -1.3584 -0.0843 -1.3686
 6194TIP3   OH240072   0.201   4.643  15.424 -0.1253  0.0853  0.4619
 6194TIP3    H140073   0.209   4.731  15.459  0.3096  0.3057 -0.1862
 6194TIP3    H240074   0.124   4.607  15.468 -1.3717  1.4012 -0.5487
 6195TIP3   OH240075   3.506   6.459  14.296 -0.2438  0.7195  0.4543
 6195TIP3    H140076   3.424   6.419  14.267 -0.3900  1.0262  0.4354
 6195TIP3    H240077   3.492   6.478  14.388  0.5248 -1.0214  0.9653
 6196TIP3   OH240078   2.506   3.300   1.863 -0.4100  0.3942  0.8080
 6196TIP3    H140079   2.456   3.355   1.803 -1.4735 -2.7846 -1.4662
 6196TIP3    H240080   2.593   3.296   1.824 -0.2257  0.7425  1.1796
 6197TIP3   OH240081   3.467   5.456  13.115  0.8544 -0.6003 -0.4505
 6197TIP3    H140082   3.533   5.464  13.184 -0.2221 -1.6039  0.7677
 6197TIP3    H240083   3.480   5.532  13.059  1.9971  0.0674  0.6820
 6198TIP3   OH240084   2.467   5.046  14.548  0.4757  0.2694  0.0545
 6198TIP3    H140085   2.539   4.991  14.578  1.9149  1.1495 -1.5502
 6198TIP3    H240086   2.407   4.986  14.504  0.8440 -0.3199  0.3397
 6199TIP3   OH240087   0.605   6.621  14.402 -0.7049  0.7318 -0.0956
 6199TIP3    H140088   0.650   6.581  14.327  1.0562 -0.5029  1.5332
 6199TIP3    H240089   0.556   6.549  14.441  1.6716  0.2124  2.2574
 6200TIP3   OH240090   3.616   5.225  14.684  0.0078 -0.1313 -0.6806
 6200TIP3    H140091   3.586   5.219  14.775  0.5725  2.0548 -0.2992
 6200TIP3    H240092   3.575   5.150  14.641 -1.9218 -0.0963  0.9230
 6201TIP3   OH240093   4.895   0.210   3.111  0.2301 -0.2775 -0.4741
 6201TIP3    H140094   4.963   0.147   3.132  0.7098  0.3453 -0.1336
 6201TIP3    H240095   4.887   0.206   3.015 -0.7251 -1.8405 -0.3740
 6202TIP3   OH240096   6.709   6.461  12.683 -0.2632  0.9677 -0.2716
 6202TIP3    H140097   6.748   6.459  12.770 -2.3137  0.6882  0.7157
 6202TIP3    H240098   6.716   6.552  12.655  1.6896  0.7950 -0.4854
 6203TIP3   OH240099   1.970   4.550   5.517  0.1371  0.3914 -0.0202
 6203TIP3    H140100   2.014   4.617   5.465  1.8514 -0.3062  0.4588
 6203TIP3    H240101   1.878   4.575   5.517  0.5234  1.8845 -1.1183
 6204TIP3   OH240102   5.960   6.727   1.116  0.5194 -0.2870  0.5865
 6204TIP3    H140103   6.042   6.695   1.153  0.7749 -0.0663  0.2150
 6204TIP3    H240104   5.985   6.769   1.034 -0.1578 -1.6470 -0.3521
 6205TIP3   OH240105   5.302   1.454  15.660  0.2192 -0.0961 -0.3448
 6205TIP3    H140106   5.258   1.537  15.676  3.8695  1.9896  0.1590
 6205TIP3    H240107   5.294   1.405  15.742 -1.7410 -0.2005 -0.5593
 6206TIP3   OH240108   0.787   2.845  12.837  0.5373  0.2983 -0.8789
 6206TIP3    H140109   0.791   2.877  12.746 -0.8884  0.4761 -0.9080
 6206TIP3    H240110   0.813   2.753  12.831  0.2321  0.2454 -1.5157
 6207TIP3   OH240111   5.942   5.358   5.634  0.3666  0.0731 -0.2882
 6207TIP3    H140112   5.905   5.375   5.721  0.9802  0.8623 -0.1700
 6207TIP3    H240113   5.951   5.263   5.631 -1.5821 -0.1525 -0.3034
 6208TIP3   OH240114   5.964   2.636  15.350  0.6930  0.3349 -0.0336
 6208TIP3    H140115   5.914   2.555  15.356 -0.9848  1.3293 -0.2079
 6208TIP3    H240116   6.006   2.645  15.436 -1.1020  0.5063  0.8632
 6209TIP3   OH240117   5.590   3.210  14.302  0.2315 -0.4936 -0.1060
 6209TIP3    H140118   5.502   3.186  14.273 -0.4843  0.8279  0.8517
 6209TIP3    H240119   5.645   3.199  14.225 -1.0474  0.0242 -1.1222
 6210TIP3   OH240120   2.076   5.661  11.751 -0.2288  0.0722 -0.2180
 6210TIP3    H140121   2.042   5.599  11.688  0.6711 -0.4244 -0.2243
 6210TIP3    H240122   2.074   5.614  11.835  0.2586  0.1073 -0.1870
 6211TIP3   OH240123   0.771   0.281   1.403  0.0662  0.0951 -0.3886
 6211TIP3    H140124   0.789   0.190   1.382 -2.3555 -0.8852  1.3467
 6211TIP3    H240125   0.703   0.308   1.342 -0.1987  0.2914 -0.0149
 6212TIP3   OH240126   5.144   4.402   3.271 -0.2025  0.6587 -0.0281
 6212TIP3    H140127   5.234   4.398   3.306 -0.1969 -0.0377 -0.1118
 6212TIP3    H240128   5.155   4.436   3.183  0.2116 -1.2563 -0.7686
 6213TIP3   OH240129   5.129   2.825  12.236 -0.1042  0.2277 -0.5528
 6213TIP3    H140130   5.107   2.892  12.301  0.6844 -0.0476  0.0060
 6213TIP3    H240131   5.111   2.867  12.151  0.5199  1.1964 -0.2192
 6214TIP3   OH240132   5.877   6.179   1.305 -0.4192 -0.1634 -0.3790
 6214TIP3    H140133   5.914   6.102   1.261 -1.6325 -1.2755  0.4732
 6214TIP3    H240134   5.855   6.149   1.393 -0.2329  1.3730  0.2258
 6215TIP3   OH240135   6.130   1.444  14.067  0.1180 -0.3577  0.4386
 6215TIP3    H140136   6.191   1.371  14.057 -0.2151 -0.7173  0.9979
 6215TIP3    H240137   6.171   1.500  14.133  0.2195 -0.1981  0.2412
 6216TIP3   OH240138   1.384   3.373  17.001  0.2189  0.6497 -0.1756
 6216TIP3    H140139   1.467   3.341  17.037 -0.0044 -0.0484 -0.2484
 6216TIP3    H240140   1.317   3.322  17.048 -0.2103  1.8070  0.4909
 6217TIP3   OH240141   1.634   4.532  16.080 -0.2787 -0.0565  0.1633
 6217TIP3    H140142   1.595   4.580  16.153 -0.4018  0.3891 -0.1866
 6217TIP3    H240143   1.560   4.512  16.022 -0.3919 -1.6197  0.8168
 6218TIP3   OH240144   6.360   2.803   2.920  0.0316  0.1718  0.1119
 6218TIP3    H140145   6.280   2.831   2.876  0.8425  0.3010 -1.3251
 6218TIP3    H240146   6.384   2.721   2.876 -0.7743 -1.3831  2.3698
 6219TIP3   OH240147   0.470   1.473  13.968  0.1784 -0.0466  0.1305
 6219TIP3    H140148   0.387   1.435  13.942 -1.5226  1.7520  2.4650
 6219TIP3    H240149   0.525   1.469  13.890 -2.6428  0.1605 -1.9933
 6220TIP3   OH240150   0.655   4.126  12.270 -0.8569 -0.0597  0.6127
 6220TIP3    H140151   0.729   4.104  12.327 -1.6760 -1.2942  1.2466
 6220TIP3    H240152   0.689   4.114  12.181 -0.5750 -1.7343  0.9090
 6221TIP3   OH240153   1.250   2.780  15.321 -0.1676 -0.0618 -0.3659
 6221TIP3    H140154   1.220   2.700  15.365  0.8137 -0.4223 -0.3208
 6221TIP3    H240155   1.191   2.848  15.352 -0.7653 -0.6961 -0.0833
 6222TIP3   OH240156   3.678   6.392   0.337 -0.7942  0.5189  0.3399
 6222TIP3    H140157   3.583   6.379   0.343 -0.9767  1.0734 -1.0233
 6222TIP3    H240158   3.715   6.315   0.380 -1.8596 -1.0011 -1.3202
 6223TIP3   OH240159   0.255   2.366  14.384  0.4686 -0.6740  0.1375
 6223TIP3    H140160   0.251   2.457  14.415  1.6303 -0.4942 -0.1835
 6223TIP3    H240161   0.233   2.313  14.460 -2.0641 -0.0890 -0.1281
 6224TIP3   OH240162   4.277   3.887   4.625 -0.3439  0.3890  0.1060
 6224TIP3    H140163   4.315   3.973   4.607 -0.7838  0.5604 -0.0122
 6224TIP3    H240164   4.228   3.898   4.706  0.4196 -0.0096  0.6387
 6225TIP3   OH240165   4.189   4.795   1.510  0.0180 -0.3756 -0.0709
 6225TIP3    H140166   4.174   4.711   1.467  0.6586 -0.1210 -0.8290
 6225TIP3    H240167   4.113   4.848   1.487 -0.7458 -0.9668  1.0166
 6226TIP3   OH240168   1.925   6.221   3.261 -0.0319 -0.6011 -0.3914
 6226TIP3    H140169   1.834   6.242   3.280 -0.4228 -1.5565 -1.1244
 6226TIP3    H240170   1.936   6.130   3.290  0.7263 -0.4579 -0.1941
 6227TIP3   OH240171   5.858   6.571   3.133  0.6946  0.0963 -0.4126
 6227TIP3    H140172   5.948   6.540   3.123  1.1201  0.4982  1.6526
 6227TIP3    H240173   5.843   6.570   3.228 -0.6896  2.2225 -0.5472
 6228TIP3   OH240174   2.232   6.390  16.421 -0.0274  0.6935  0.0046
 6228TIP3    H140175   2.313   6.425  16.459 -0.2124  1.8862 -0.6608
 6228TIP3    H240176   2.166   6.457  16.440 -0.5870  0.2984 -0.5306
 6229TIP3   OH240177   0.856   4.502  14.202  0.1725 -0.4201  0.4048
 6229TIP3    H140178   0.916   4.468  14.136  2.0229  1.3356  1.0893
 6229TIP3    H240179   0.856   4.435  14.271  0.6666 -0.8161  0.0244
 6230TIP3   OH240180   1.660   1.618   1.537 -0.1111  0.1367 -0.3175
 6230TIP3    H140181   1.656   1.597   1.444  2.6298  1.1737 -0.7998
 6230TIP3    H240182   1.603   1.694   1.547 -0.7165 -0.2091 -1.0752
 6231TIP3   OH240183   1.312   6.723  14.351 -0.3082  0.3727 -0.1737
 6231TIP3    H140184   1.375   6.679  14.409 -1.1537  0.5966  0.9265
 6231TIP3    H240185   1.265   6.783  14.408 -2.9015 -1.2004 -0.5168
 6232TIP3   OH240186   3.366   4.739   5.842 -0.4159  0.1174  0.1315
 6232TIP3    H140187   3.354   4.701   5.929 -2.9747 -0.4979 -0.4059
 6232TIP3    H240188   3.420   4.676   5.795  0.9953  0.4562  1.2361
 6233TIP3   OH240189   2.329   5.588   0.648 -0.1649  0.6565  0.6420
 6233TIP3    H140190   2.322   5.493   0.662  0.9638  0.6916  1.6170
 6233TIP3    H240191   2.264   5.626   0.708 -0.7271  0.5042  0.1377
 6234TIP3   OH240192   6.767   0.939   3.108 -0.8935  0.0330 -0.4039
 6234TIP3    H140193   6.708   0.891   3.165  0.9533 -0.8058  0.8922
 6234TIP3    H240194   6.812   0.872   3.057  0.0560  0.5113 -0.2275
 6235TIP3   OH240195   2.097   6.557   5.655  0.4144  0.4000  0.2324
 6235TIP3    H140196   2.152   6.585   5.729  0.2264 -1.9821  1.3770
 6235TIP3    H240197   2.096   6.461   5.661 -0.0980  0.1559 -2.5494
 6236TIP3   OH240198   5.652   1.342  13.152  0.3055 -0.2231 -0.1323
 6236TIP3    H140199   5.616   1.416  13.202  0.4161  0.7651 -1.4583
 6236TIP3    H240200   5.741   1.332  13.186  0.5229  0.7141 -0.3920
 6237TIP3   OH240201   3.406   0.652   2.739  0.4881  0.1047  0.5866
 6237TIP3    H140202   3.397   0.654   2.643 -1.6971 -1.8721  0.6625
 6237TIP3    H240203   3.411   0.559   2.760  1.8821  0.5459  2.3681
 6238TIP3   OH240204   4.672   0.976  11.926  0.1825 -0.6368 -0.3989
 6238TIP3    H140205   4.732   1.016  11.864 -0.7429 -0.5426 -1.2683
 6238TIP3    H240206   4.585   0.992  11.889 -0.3460 -1.2727  0.5179
 6239TIP3   OH240207   5.335   1.141  16.044  0.6343  0.2918  0.2498
 6239TIP3    H140208   5.265   1.080  16.020 -0.7927  1.7225  0.6565
 6239TIP3    H240209   5.408   1.084  16.067 -0.1032 -1.2377 -0.9500
 6240TIP3   OH240210   3.477   1.562   5.154  0.0317  0.4707 -0.0931
 6240TIP3    H140211   3.394   1.541   5.111 -0.0760  0.7158 -0.0094
 6240TIP3    H240212   3.503   1.646   5.116  0.4843  0.1619 -0.4660
 6241TIP3   OH240213   6.450   5.429   3.167 -0.2161 -0.4997  0.3576
 6241TIP3    H140214   6.544   5.418   3.178 -0.2789  0.6490  2.7554
 6241TIP3    H240215   6.436   5.524   3.174 -1.5390 -0.6316 -0.1401
 6242TIP3   OH240216   0.727   0.144   3.572  0.2020 -0.1425 -0.2710
 6242TIP3    H140217   0.753   0.078   3.508  1.9697  1.2286 -1.0668
 6242TIP3    H240218   0.632   0.137   3.577 -0.0971  0.1861 -3.6145
 6243TIP3   OH240219   2.612   2.058   6.124  0.0797 -0.0682  0.2144
 6243TIP3    H140220   2.661   2.017   6.196 -0.6254 -1.6451 -0.1557
 6243TIP3    H240221   2.537   2.099   6.168 -0.5153 -1.2856  0.3942
 6244TIP3   OH240222   6.197   5.207  13.601 -0.1748  0.1659  0.5354
 6244TIP3    H140223   6.146   5.201  13.682  1.6821  0.4974  1.7778
 6244TIP3    H240224   6.268   5.267  13.622 -0.2803  1.1837 -1.7178
 6245TIP3   OH240225   5.632   0.703   0.299  0.4269 -0.1948  0.6516
 6245TIP3    H140226   5.692   0.712   0.225 -0.1940  0.6640  0.2347
 6245TIP3    H240227   5.624   0.608   0.312  2.4896 -0.3462  1.2594
 6246TIP3   OH240228   0.899   6.200   0.793 -0.2171  0.1907  0.0133
 6246TIP3    H140229   0.875   6.109   0.772  0.3241  0.2280 -0.8182
 6246TIP3    H240230   0.872   6.211   0.884 -0.1719 -0.8524  0.1736
 6247TIP3   OH240231   3.744   0.877   2.838 -0.0686  0.2911 -0.0132
 6247TIP3    H140232   3.681   0.817   2.797  1.5483 -0.2965 -1.7519
 6247TIP3    H240233   3.777   0.930   2.766  1.7466  0.2780  0.7685
 6248TIP3   OH240234   2.519   2.212   0.081 -0.1678  0.2498 -0.5007
 6248TIP3    H140235   2.470   2.167   0.012  0.6148 -0.2135 -0.7641
 6248TIP3    H240236   2.452   2.260   0.130 -0.7825  0.2945 -1.3558
 6249TIP3   OH240237   1.621   1.602  13.651 -0.4633  0.1871  0.0193
 6249TIP3    H140238   1.683   1.632  13.585 -0.7283 -0.7865 -0.6837
 6249TIP3    H240239   1.671   1.540  13.705 -0.3755  0.6365  0.4652
 6250TIP3   OH240240   4.377   6.744   1.250  0.2770  0.1480 -0.4257
 6250TIP3    H140241   4.324   6.789   1.316 -0.8429 -1.5987 -0.0872
 6250TIP3    H240242   4.393   6.657   1.287  1.3772 -0.1706 -1.5743
 6251TIP3   OH240243   3.365   1.571   2.022  0.1055  0.1282 -0.1869
 6251TIP3    H140244   3.318   1.536   2.098  0.4901 -0.7461 -0.3415
 6251TIP3    H240245   3.298   1.618   1.972 -0.4865 -0.6198 -0.1144
 6252TIP3   OH240246   5.551   6.468  16.660  0.5111  0.1473 -0.0022
 6252TIP3    H140247   5.504   6.551  16.662  1.2295  0.5557  0.9759
 6252TIP3    H240248   5.519   6.424  16.582  0.5749  1.6192 -0.8958
 6253TIP3   OH240249   3.409   3.176  15.268  0.3224  0.0243 -0.0448
 6253TIP3    H140250   3.437   3.136  15.186  0.1038  1.4201 -0.8419
 6253TIP3    H240251   3.490   3.206  15.309  0.3267  0.6476 -0.4907
 6254TIP3   OH240252   0.681   3.238   3.920 -0.5533 -0.0475 -0.4691
 6254TIP3    H140253   0.740   3.242   3.995 -0.1824  1.7635 -0.8185
 6254TIP3    H240254   0.616   3.172   3.944  0.9296 -1.2367  0.4149
 6255TIP3   OH240255   3.856   3.447  15.416 -0.2397 -0.3275 -0.5932
 6255TIP3    H140256   3.875   3.539  15.399  2.6421 -0.8307 -0.5241
 6255TIP3    H240257   3.847   3.441  15.511 -1.3470 -0.0184 -0.6585
 6256TIP3   OH240258   2.227   5.356   2.868  0.3999 -0.7353  0.2663
 6256TIP3    H140259   2.291   5.315   2.924  1.0121 -0.5881 -0.3120
 6256TIP3    H240260   2.194   5.430   2.919  0.0798 -1.3005  0.8839
 6257TIP3   OH240261   5.652   2.955   4.837  0.2111 -0.1053 -0.1510
 6257TIP3    H140262   5.635   2.975   4.929 -0.0798  1.3370 -0.4855
 6257TIP3    H240263   5.603   3.022   4.789 -2.3943 -2.7277 -1.4784
 6258TIP3   OH240264   3.778   3.123  16.776 -0.2276  0.1834 -0.5023
 6258TIP3    H140265   3.733   3.042  16.748  0.8766 -1.0627  1.1523
 6258TIP3    H240266   3.716   3.193  16.755 -1.2655 -1.0802 -1.9063
 6259TIP3   OH240267   0.283   5.309   6.361 -0.2422 -0.3057 -0.2492
 6259TIP3    H140268   0.333   5.388   6.339  0.6112 -0.9639 -0.7263
 6259TIP3    H240269   0.192   5.333   6.344 -0.4252  1.6317  2.6644
 6260TIP3   OH240270   3.101   3.856   5.863 -0.0384 -0.6068  0.1291
 6260TIP3    H140271   3.136   3.865   5.952 -0.6703 -0.6344  0.3851
 6260TIP3    H240272   3.022   3.909   5.863  0.7813  0.6736 -0.8935
 6261TIP3   OH240273   1.811   2.323   5.711 -0.1832  0.4158  0.0899
 6261TIP3    H140274   1.755   2.295   5.783 -1.5118  0.3596 -0.9411
 6261TIP3    H240275   1.828   2.416   5.728 -0.2924  0.3459  0.5931
 6262TIP3   OH240276   1.698   2.765  15.864  0.6904 -0.1312  0.4254
 6262TIP3    H140277   1.759   2.700  15.831 -0.8836 -1.4133 -0.1174
 6262TIP3    H240278   1.625   2.763  15.802 -0.9870 -0.4144  2.3030
 6263TIP3   OH240279   0.906   0.367  12.438 -0.0030 -0.0226 -0.0408
 6263TIP3    H140280   0.812   0.372  12.421 -0.4180  0.4371  2.0231
 6263TIP3    H240281   0.937   0.457  12.430  0.2636 -0.1601 -0.6292
 6264TIP3   OH240282   5.877   0.950   1.076 -0.8146  0.8026 -0.0008
 6264TIP3    H140283   5.817   1.024   1.083 -0.9793  0.6232  0.5408
 6264TIP3    H240284   5.960   0.988   1.047 -0.6535  1.3260  1.1158
 6265TIP3   OH240285   3.741   4.570  15.567  0.0369 -0.0619 -0.2782
 6265TIP3    H140286   3.824   4.540  15.531 -0.0367  0.8577 -1.2787
 6265TIP3    H240287   3.761   4.594  15.658  0.4020 -1.7126  0.1033
 6266TIP3   OH240288   5.298   0.137  13.330  0.0557  0.0221  0.9779
 6266TIP3    H140289   5.301   0.193  13.252  0.3581 -1.9490 -0.4905
 6266TIP3    H240290   5.385   0.146  13.369  0.4316 -0.1570  0.2053
 6267TIP3   OH240291   0.921   0.671   1.565 -0.0494 -0.0967  0.5831
 6267TIP3    H140292   0.922   0.648   1.658  1.1446  1.1886  0.9247
 6267TIP3    H240293   0.960   0.596   1.521  0.3607 -0.2776  1.2434
 6268TIP3   OH240294   2.443   0.545  16.122  0.2925  0.9204 -0.0983
 6268TIP3    H140295   2.487   0.621  16.160  0.0580  1.2623 -0.5016
 6268TIP3    H240296   2.381   0.582  16.060 -3.2274  0.7483  2.9194
 6269TIP3   OH240297   1.295   6.248  15.640 -0.3122 -0.6849  0.0970
 6269TIP3    H140298   1.219   6.191  15.629 -0.5443 -0.1993 -0.9015
 6269TIP3    H240299   1.341   6.244  15.556 -0.8531  1.3291 -0.3447
 6270TIP3   OH240300   4.078   3.785  15.194 -0.4469  0.6549  0.3470
 6270TIP3    H140301   4.081   3.847  15.122 -0.5532  2.1565  1.5826
 6270TIP3    H240302   4.169   3.756  15.205 -0.6807 -0.9944 -1.4960
 6271TIP3   OH240303   3.809   0.459  11.656 -0.3628 -0.0276  0.3669
 6271TIP3    H140304   3.860   0.393  11.701  4.1128  1.9926 -1.1845
 6271TIP3    H240305   3.798   0.530  11.720 -3.4732 -1.2650  1.4029
 6272TIP3   OH240306   6.585   2.597   3.769 -0.3010 -0.1224 -0.6699
 6272TIP3    H140307   6.618   2.619   3.682 -0.0372  0.8644 -0.3239
 6272TIP3    H240308   6.493   2.572   3.754 -0.2142 -0.1083 -1.2477
 6273TIP3   OH240309   3.093   0.817   1.410  0.4197 -0.3694 -0.0974
 6273TIP3    H140310   3.122   0.799   1.320  1.4757 -0.0314  0.1583
 6273TIP3    H240311   3.006   0.779   1.415 -0.2656  0.8935 -1.7209
 6274TIP3   OH240312   3.730   2.612   3.657  0.7487  0.2465  0.0593
 6274TIP3    H140313   3.775   2.595   3.740  0.5456  1.4239  0.4364
 6274TIP3    H240314   3.712   2.526   3.621  0.1630 -0.3174  1.6011
 6275TIP3   OH240315   2.102   3.012   1.118  0.1990  0.1285 -0.0571
 6275TIP3    H140316   2.077   3.011   1.211 -1.8032 -0.3858 -0.5391
 6275TIP3    H240317   2.115   2.920   1.097  1.1835  0.2888 -0.1728
 6276TIP3   OH240318   1.843   6.692  14.691  0.1425  0.3600 -0.0597
 6276TIP3    H140319   1.844   6.687  14.786  0.5981  0.3239 -0.0661
 6276TIP3    H240320   1.762   6.738  14.670 -1.6355 -2.4268  0.2248
 6277TIP3   OH240321   3.821   5.872  10.933  0.6041  0.2975  0.1273
 6277TIP3    H140322   3.773   5.891  10.852  0.4471  0.8299  0.3454
 6277TIP3    H240323   3.907   5.911  10.919  0.6386  0.2288  0.1469
 6278TIP3   OH240324   5.997   2.146  16.141  0.3739  0.1811  0.4953
 6278TIP3    H140325   6.037   2.110  16.062 -0.9395 -2.3125  0.8551
 6278TIP3    H240326   6.065   2.201  16.180  2.0047 -0.7306 -0.9270
 6279TIP3   OH240327   1.517   2.916   4.111 -0.3895  0.1692  0.3300
 6279TIP3    H140328   1.581   2.982   4.138  0.1373 -0.8182  1.5892
 6279TIP3    H240329   1.473   2.955   4.036  0.9472  1.3189  0.1052
 6280TIP3   OH240330   5.444   6.568  16.194 -0.3922 -0.4523 -0.3854
 6280TIP3    H140331   5.378   6.499  16.181 -0.8303 -0.1478  0.1565
 6280TIP3    H240332   5.461   6.602  16.106 -2.4834  0.8295 -0.3705
 6281TIP3   OH240333   0.795   6.361   1.021 -0.0393 -0.5371  0.2400
 6281TIP3    H140334   0.771   6.339   1.111 -2.0033  0.3829  0.0031
 6281TIP3    H240335   0.888   6.382   1.025 -0.4141  1.0603  2.4213
 6282TIP3   OH240336   6.486   6.448   5.294 -0.5596  0.2342 -0.0128
 6282TIP3    H140337   6.492   6.417   5.384 -1.7090 -0.9012 -0.3069
 6282TIP3    H240338   6.515   6.539   5.299 -2.5534  0.8629  1.9041
 6283TIP3   OH240339   4.606   1.801  12.567 -0.1170  0.1137 -0.2245
 6283TIP3    H140340   4.526   1.789  12.515 -0.9234  0.9284  0.7794
 6283TIP3    H240341   4.651   1.716  12.563 -0.7333 -0.1704 -1.2945
 6284TIP3   OH240342   4.394   6.300   0.421  0.2477  0.1243  0.3023
 6284TIP3    H140343   4.465   6.323   0.361  0.0862  0.5784  0.2780
 6284TIP3    H240344   4.347   6.383   0.435 -0.5940 -0.2754 -0.0993
 6285TIP3   OH240345   5.247   3.194   0.993  0.4751  0.1112  0.0873
 6285TIP3    H140346   5.326   3.219   1.043 -0.1766 -0.2796  1.3552
 6285TIP3    H240347   5.193   3.146   1.056 -1.0778  0.9371 -0.5651
 6286TIP3   OH240348   0.113   4.380   2.821 -0.8016  0.1393 -0.1848
 6286TIP3    H140349   0.024   4.402   2.795 -0.9964 -0.4456 -0.0322
 6286TIP3    H240350   0.103   4.336   2.906 -0.8907 -4.2204 -2.1928
 6287TIP3   OH240351   5.640   6.176  15.509 -0.4939 -0.1881 -0.0316
 6287TIP3    H140352   5.684   6.223  15.580 -0.3585 -0.7060  0.2259
 6287TIP3    H240353   5.612   6.093  15.547 -0.2386 -0.5604 -0.6318
 6288TIP3   OH240354   2.470   0.753   0.220 -0.0105  0.0715 -0.1030
 6288TIP3    H140355   2.475   0.660   0.242 -0.3007  0.0395 -0.1693
 6288TIP3    H240356   2.503   0.758   0.130  1.0945  0.1916  0.2976
 6289TIP3   OH240357   0.936   3.521   2.904 -0.2735 -0.5974 -0.2883
 6289TIP3    H140358   0.980   3.458   2.961  0.5949 -0.5861 -0.9445
 6289TIP3    H240359   0.918   3.596   2.961  3.0785  0.5859 -0.6164
 6290TIP3   OH240360   5.103   5.722  15.359 -0.7019  0.2064  0.8140
 6290TIP3    H140361   5.114   5.765  15.275 -0.6028 -1.5332 -0.0967
 6290TIP3    H240362   5.008   5.712  15.369 -0.7575  1.0722  1.2846
 6291TIP3   OH240363   5.773   0.836   4.548  0.2118  0.1267  0.3543
 6291TIP3    H140364   5.718   0.835   4.470  0.8376 -0.5336 -0.0893
 6291TIP3    H240365   5.847   0.780   4.526  0.5874  0.2387  1.2888
 6292TIP3   OH240366   6.710   4.481   2.777 -0.3539 -0.1579 -0.5881
 6292TIP3    H140367   6.633   4.438   2.814  0.2130 -1.0456 -0.3933
 6292TIP3    H240368   6.710   4.456   2.685 -0.0519 -0.5329 -0.4869
 6293TIP3   OH240369   3.922   1.023   5.120 -0.3252 -0.4136 -0.4755
 6293TIP3    H140370   3.965   0.943   5.091 -0.9072 -1.1075  0.5090
 6293TIP3    H240371   3.851   1.036   5.058  0.6533  0.1877 -1.5168
 6294TIP3   OH240372   3.016   0.482  11.428  0.1352 -0.2579  0.2535
 6294TIP3    H140373   3.025   0.448  11.340 -0.3973  0.0521  0.0744
 6294TIP3    H240374   2.982   0.571  11.417  3.5781  1.2507  0.5923
 6295TIP3   OH240375   2.701   2.528   2.305  0.3926 -0.1833  0.1465
 6295TIP3    H140376   2.795   2.516   2.292  0.4786 -0.7620  1.2234
 6295TIP3    H240377   2.688   2.622   2.300  0.5832 -0.2028 -2.7700
 6296TIP3   OH240378   4.405   2.119   1.029 -0.3398  1.1932  0.3345
 6296TIP3    H140379   4.384   2.062   0.955  1.3979  0.3085  0.4567
 6296TIP3    H240380   4.321   2.137   1.070 -0.9722 -1.3653  0.3269
 6297TIP3   OH240381   2.643   4.387   6.302 -0.0426 -0.4361  0.2008
 6297TIP3    H140382   2.596   4.336   6.235 -0.2531  1.1505 -0.9145
 6297TIP3    H240383   2.719   4.333   6.324 -0.1242 -1.1268 -1.1103
 6298TIP3   OH240384   0.289   5.072   2.392  0.2646  0.9058 -0.6393
 6298TIP3    H140385   0.290   5.112   2.305  1.9217  0.7333 -0.7363
 6298TIP3    H240386   0.250   4.986   2.378 -0.0456  1.1173 -1.1012
 6299TIP3   OH240387   4.069   6.070  12.214 -0.7411  0.0042 -0.0535
 6299TIP3    H140388   3.975   6.064  12.229 -0.7847 -0.4508 -0.4824
 6299TIP3    H240389   4.081   6.046  12.122 -0.2372  0.3522 -0.0853
 6300TIP3   OH240390   0.303   6.611  16.839  0.2754  0.3402  0.2625
 6300TIP3    H140391   0.305   6.516  16.856 -1.4911  0.1398 -0.4339
 6300TIP3    H240392   0.323   6.651  16.924  0.3320 -0.6462  0.7329
 6301TIP3   OH240393   0.949   6.187  13.363  0.4206  0.0280 -0.9121
 6301TIP3    H140394   0.904   6.184  13.279  0.4161 -1.5646 -0.8923
 6301TIP3    H240395   0.895   6.133  13.421  0.8446  0.4468 -0.1038
 6302TIP3   OH240396   3.520   1.891  12.294 -0.0134  0.1398 -0.1363
 6302TIP3    H140397   3.473   1.951  12.238 -2.0162 -0.4167  0.8464
 6302TIP3    H240398   3.516   1.807  12.248  0.4093  0.1630 -0.2278
 6303TIP3   OH240399   5.612   5.376  11.491 -0.7953 -0.2717  0.1553
 6303TIP3    H140400   5.674   5.441  11.523 -1.5031 -0.3948  1.8573
 6303TIP3    H240401   5.636   5.363  11.399  1.2680  0.1397  0.5951
 6304TIP3   OH240402   3.518   4.749  11.979 -0.0719  0.3094 -0.1570
 6304TIP3    H140403   3.509   4.655  11.964  0.6612  0.3336 -0.8082
 6304TIP3    H240404   3.444   4.788  11.932 -0.9720  0.0008  0.9670
 6305TIP3   OH240405   1.232   2.220  12.078 -0.5653 -0.0205 -0.0483
 6305TIP3    H140406   1.234   2.147  12.139  0.9281  0.1346  0.1158
 6305TIP3    H240407   1.170   2.282  12.117  1.1638  0.5825  1.9445
 6306TIP3   OH240408   6.784   1.430  15.420 -0.7703  0.0241  0.2371
 6306TIP3    H140409   6.731   1.351  15.433 -0.9345  0.3290  1.5311
 6306TIP3    H240410   6.874   1.401  15.430 -0.8836  0.2041  1.9404
 6307TIP3   OH240411   5.795   2.619  11.946  0.5791  0.0980  0.4282
 6307TIP3    H140412   5.876   2.569  11.956 -0.0153 -0.7383  1.1613
 6307TIP3    H240413   5.739   2.563  11.892  0.2676  0.4186  0.4129
 6308TIP3   OH240414   2.888   5.097   1.445 -0.2136  0.1700 -0.1672
 6308TIP3    H140415   2.947   5.043   1.498 -0.5542 -0.9111 -0.8677
 6308TIP3    H240416   2.904   5.069   1.355 -1.8467 -0.1912 -0.3620
 6309TIP3   OH240417   5.386   3.300  11.568 -0.5845 -0.3175  0.2407
 6309TIP3    H140418   5.406   3.366  11.502  3.3975 -1.2549  0.2633
 6309TIP3    H240419   5.393   3.347  11.652  1.0823 -0.4441  0.2046
 6310TIP3   OH240420   1.830   2.408   2.104 -0.4849 -0.3653 -0.2503
 6310TIP3    H140421   1.890   2.463   2.154 -0.9554 -0.3491  0.3111
 6310TIP3    H240422   1.743   2.430   2.138 -0.5642 -2.9871  1.5650
 6311TIP3   OH240423   1.640   6.281  14.456  0.1942  0.3550  0.0763
 6311TIP3    H140424   1.734   6.300  14.444  0.0897  0.3027 -0.9786
 6311TIP3    H240425   1.609   6.350  14.513  0.8073  0.5996  0.1291
 6312TIP3   OH240426   5.972   3.017  16.949 -0.2022  0.0987 -0.1703
 6312TIP3    H140427   5.902   3.012  16.884 -1.3634  1.1967  0.9134
 6312TIP3    H240428   6.026   3.090  16.920 -0.1885 -0.0007 -0.3939
 6313TIP3   OH240429   5.558   3.574   4.655  0.0037 -0.1124 -0.3220
 6313TIP3    H140430   5.568   3.494   4.605  0.8173  0.1715 -0.6155
 6313TIP3    H240431   5.613   3.638   4.611 -0.2851  0.4899  0.1714
 6314TIP3   OH240432   5.760   3.877   2.219  0.7434 -0.3186 -0.0034
 6314TIP3    H140433   5.744   3.858   2.127 -1.8082  0.4530  0.2015
 6314TIP3    H240434   5.679   3.920   2.249  2.0586  0.7789  2.2265
 6315TIP3   OH240435   6.434   3.736   0.717 -0.3514 -0.0746 -0.4093
 6315TIP3    H140436   6.444   3.797   0.791 -0.7242 -1.9982  1.3423
 6315TIP3    H240437   6.345   3.701   0.728 -0.5191 -0.1818 -1.9887
 6316TIP3   OH240438   2.221   6.400   0.654  0.3012 -0.2333  0.9618
 6316TIP3    H140439   2.232   6.486   0.613  3.1423 -0.5560  0.8093
 6316TIP3    H240440   2.131   6.376   0.635  0.2605  1.4474 -1.5445
 6317TIP3   OH240441   2.322   0.960   4.928 -0.0367 -0.5669  0.5016
 6317TIP3    H140442   2.351   0.953   4.837 -1.0181  0.1988  0.1166
 6317TIP3    H240443   2.395   1.003   4.973  0.4837 -1.0151  0.1013
 6318TIP3   OH240444   4.339   6.355   3.260  0.1979 -0.2008 -0.0030
 6318TIP3    H140445   4.291   6.433   3.287 -0.4275 -0.1478 -1.1761
 6318TIP3    H240446   4.431   6.378   3.271 -0.0190 -0.0319  1.5617
 6319TIP3   OH240447   0.233   0.757   0.229  0.6308  0.1224  0.3216
 6319TIP3    H140448   0.212   0.820   0.160 -0.8827  2.6402  2.8389
 6319TIP3    H240449   0.149   0.717   0.252  1.2881 -1.5124  0.0335
 6320TIP3   OH240450   2.202   5.355  16.752  0.4229 -0.4865 -0.0172
 6320TIP3    H140451   2.192   5.260  16.755 -1.1774 -0.3500 -0.1543
 6320TIP3    H240452   2.236   5.373  16.664  0.6433 -0.9132 -0.0220
 6321TIP3   OH240453   5.505   2.803  15.189  0.1406  0.1602  0.0675
 6321TIP3    H140454   5.584   2.826  15.140 -0.1938  1.9744  0.3140
 6321TIP3    H240455   5.477   2.885  15.230 -1.3269 -0.6542  0.7844
 6322TIP3   OH240456   1.710   0.900  12.902 -0.5181 -0.1379 -0.7385
 6322TIP3    H140457   1.655   0.947  12.965  1.0395  0.0181  0.6032
 6322TIP3    H240458   1.650   0.870  12.834 -2.1352  0.5124  0.3414
 6323TIP3   OH240459   3.624   6.846   0.642  0.4030 -0.2308 -0.7748
 6323TIP3    H140460   3.567   6.771   0.625  2.1464 -1.6058 -0.8844
 6323TIP3    H240461   3.602   6.909   0.573  0.4263 -1.5773 -2.0513
 6324TIP3   OH240462   0.797   4.147  14.050  0.0894  0.8624  0.2175
 6324TIP3    H140463   0.765   4.177  13.965 -0.3112 -0.0247  0.0496
 6324TIP3    H240464   0.842   4.065  14.031  0.2691  0.8179  0.8269
 6325TIP3   OH240465   3.474   0.311   5.334 -0.2861 -0.0573 -0.6656
 6325TIP3    H140466   3.442   0.290   5.422 -1.2800  0.8929 -0.7709
 6325TIP3    H240467   3.561   0.271   5.330 -0.6643 -1.0582  0.3495
 6326TIP3   OH240468   1.501   4.181   4.125  0.7786 -0.1652 -0.3317
 6326TIP3    H140469   1.557   4.206   4.198  0.2718  0.9647 -0.3171
 6326TIP3    H240470   1.555   4.121   4.073  1.1489 -0.9715  0.9412
 6327TIP3   OH240471   1.711   1.171   4.048 -0.4405 -0.2125  0.6122
 6327TIP3    H140472   1.691   1.217   3.967  1.8691 -1.3196 -0.6941
 6327TIP3    H240473   1.625   1.147   4.083 -1.5291  0.2737 -1.5112
 6328TIP3   OH240474   1.362   4.480  16.618 -0.6496  0.5481 -0.2721
 6328TIP3    H140475   1.364   4.507  16.710  0.0734 -0.1093 -0.0817
 6328TIP3    H240476   1.274   4.445  16.605 -0.8425  0.8954  0.0963
 6329TIP3   OH240477   6.515   5.163   2.596  0.0010 -0.3705 -0.1073
 6329TIP3    H140478   6.423   5.150   2.620  0.3633  0.0967  1.6554
 6329TIP3    H240479   6.559   5.084   2.628  0.0683 -1.1343 -1.9863
 6330TIP3   OH240480   3.494   1.019  16.129  0.0284  0.2912  0.0787
 6330TIP3    H140481   3.574   1.069  16.145  0.8379 -1.3333  1.3875
 6330TIP3    H240482   3.524   0.932  16.103 -1.2275 -0.8357  2.1000
 6331TIP3   OH240483   6.054   2.056   4.695 -0.4024  0.2130 -0.2782
 6331TIP3    H140484   5.963   2.030   4.703 -0.8075  1.9410  1.8837
 6331TIP3    H240485   6.061   2.136   4.748  2.3275  0.2122 -0.4668
 6332TIP3   OH240486   4.460   5.834  16.567 -0.2452  0.4507  0.0882
 6332TIP3    H140487   4.492   5.831  16.657  2.4596 -0.3965 -0.7993
 6332TIP3    H240488   4.431   5.925  16.554 -1.2513  0.4280  1.9425
 6333TIP3   OH240489   6.616   2.668  12.965 -0.0629 -0.7492 -0.0775
 6333TIP3    H140490   6.626   2.736  13.032 -1.2886 -0.1204 -0.4840
 6333TIP3    H240491   6.533   2.690  12.922  0.6900 -1.1417 -1.7925
 6334TIP3   OH240492   2.205   6.668  10.773  0.1060  0.4945  0.2869
 6334TIP3    H140493   2.181   6.587  10.817  0.8308 -1.1260 -2.1467
 6334TIP3    H240494   2.141   6.678  10.703  2.9064 -0.9116 -2.7452
 6335TIP3   OH240495   1.340   4.147  15.288 -0.2997  0.0649  0.8585
 6335TIP3    H140496   1.421   4.097  15.294 -0.2901  0.0159  0.3101
 6335TIP3    H240497   1.271   4.081  15.284 -0.1744 -0.0247 -2.1223
 6336TIP3   OH240498   6.855   2.533   1.710 -0.5469  0.0891  0.4799
 6336TIP3    H140499   6.771   2.575   1.690  0.5230  1.5506 -1.3503
 6336TIP3    H240500   6.843   2.442   1.685 -1.2437  0.5645 -1.0869
 6337TIP3   OH240501   2.035   3.940  15.187  0.5921 -0.5964 -0.1900
 6337TIP3    H140502   2.088   3.865  15.212  0.4924 -0.3399  0.8417
 6337TIP3    H240503   1.967   3.904  15.129 -0.0416 -1.4799  1.0589
 6338TIP3   OH240504   5.814   2.160   3.146 -0.0443 -0.6205 -0.0263
 6338TIP3    H140505   5.849   2.170   3.057  0.5816 -2.2878 -0.0071
 6338TIP3    H240506   5.743   2.097   3.137 -0.3190 -0.4078  0.5917
 6339TIP3   OH240507   1.292   3.022   4.329 -0.2248 -0.6116 -0.4135
 6339TIP3    H140508   1.341   2.968   4.266 -0.5882 -0.0061 -1.2449
 6339TIP3    H240509   1.336   3.107   4.327 -1.0391 -0.1804 -0.8778
 6340TIP3   OH240510   1.829   1.034   3.506 -0.5862 -0.0418 -0.0244
 6340TIP3    H140511   1.833   1.130   3.512  1.3607 -0.0845 -0.0473
 6340TIP3    H240512   1.916   1.008   3.475 -0.6458 -1.8977  1.1911
 6341TIP3   OH240513   4.583   6.502   2.520 -0.4554  0.6364 -0.2372
 6341TIP3    H140514   4.636   6.446   2.577 -0.9108  0.5277  0.0832
 6341TIP3    H240515   4.581   6.587   2.564  1.1261  1.2514 -1.2437
 6342TIP3   OH240516   5.328   2.893  14.786  0.2179 -0.5796 -0.6883
 6342TIP3    H140517   5.256   2.912  14.726 -0.3786 -1.8963 -0.4274
 6342TIP3    H240518   5.351   2.802  14.767  1.3676 -0.3902 -0.2904
 6343TIP3   OH240519   0.047   0.704   1.172 -0.5850 -0.0340  0.1114
 6343TIP3    H140520  -0.008   0.778   1.146 -1.5362 -0.2726  1.3245
 6343TIP3    H240521   0.069   0.659   1.090 -3.6181 -0.9155 -0.3427
 6344TIP3   OH240522   3.951   1.429   5.942 -0.3188  0.2613  0.0590
 6344TIP3    H140523   4.026   1.488   5.953  0.9788 -1.1652 -0.8225
 6344TIP3    H240524   3.955   1.372   6.019  0.2364 -0.5668 -0.5655
 6345TIP3   OH240525   2.673   6.760  14.992 -0.2022  0.1185 -0.6903
 6345TIP3    H140526   2.633   6.813  15.062 -0.3977 -0.2986 -0.4858
 6345TIP3    H240527   2.756   6.730  15.029 -0.8304 -1.0791 -0.1833
 6346TIP3   OH240528   2.019   3.847   2.393 -0.2246  0.1222  0.5271
 6346TIP3    H140529   2.092   3.905   2.417  0.3203 -0.6611  0.7975
 6346TIP3    H240530   1.977   3.827   2.477  0.6064 -1.1950  0.6571
 6347TIP3   OH240531   5.803   4.817  15.918  0.3197 -0.1331 -0.4547
 6347TIP3    H140532   5.860   4.892  15.932 -0.1599  0.0506  0.7097
 6347TIP3    H240533   5.745   4.842  15.846  0.5353  0.3884 -0.4448
 6348TIP3   OH240534   4.024   4.755   2.116 -0.0879 -0.4426  0.7318
 6348TIP3    H140535   4.047   4.702   2.192  0.2723  0.8567  1.5647
 6348TIP3    H240536   3.931   4.737   2.102  0.0007 -1.1986  1.0615
 6349TIP3   OH240537   3.167   4.958  13.663  0.2248  0.0232 -0.6341
 6349TIP3    H140538   3.150   4.893  13.596  1.2196  0.9786 -1.8593
 6349TIP3    H240539   3.081   4.980  13.698 -0.2732 -0.7538 -1.3356
 6350TIP3   OH240540   3.326   6.281   5.022  0.9364 -0.1551  0.5263
 6350TIP3    H140541   3.365   6.284   4.934 -1.4085  0.6813 -0.5591
 6350TIP3    H240542   3.269   6.204   5.020  0.6814  0.0145  1.2331
 6351TIP3   OH240543   3.310   5.569  15.623  0.2632 -0.0360  0.5419
 6351TIP3    H140544   3.296   5.600  15.533  0.3788  2.3651  1.2907
 6351TIP3    H240545   3.228   5.525  15.646  0.3321 -0.9298 -0.7928
 6352TIP3   OH240546   1.243   6.294   1.329 -0.0598  0.1253 -0.0525
 6352TIP3    H140547   1.300   6.303   1.405 -1.0295  2.5882  0.4951
 6352TIP3    H240548   1.274   6.360   1.267 -0.4619 -0.5439 -0.9966
 6353TIP3   OH240549   6.399   4.417   5.338 -0.3375 -0.2526 -0.1975
 6353TIP3    H140550   6.356   4.427   5.423 -0.0238  0.6930 -0.1391
 6353TIP3    H240551   6.440   4.502   5.322  2.1158 -1.3110  0.0803
 6354TIP3   OH240552   2.024   5.954  11.752 -0.0936  0.0953  0.6720
 6354TIP3    H140553   1.939   5.998  11.746 -0.7760 -1.3508 -1.0368
 6354TIP3    H240554   2.011   5.869  11.710  2.5174  0.3220 -0.8143
 6355TIP3   OH240555   1.043   1.254  15.923  0.1001 -0.5759  0.5583
 6355TIP3    H140556   0.954   1.235  15.893  0.0021  0.8879 -0.1769
 6355TIP3    H240557   1.098   1.194  15.874 -0.1658  1.0202 -1.8908
 6356TIP3   OH240558   1.237   2.459   2.083 -0.2709  0.5574 -0.3026
 6356TIP3    H140559   1.227   2.365   2.068  2.4676  0.3168 -1.2639
 6356TIP3    H240560   1.226   2.470   2.178  2.5798 -1.3308  0.3621
 6357TIP3   OH240561   6.771   3.414  14.680 -0.1937  0.1047 -0.2749
 6357TIP3    H140562   6.850   3.408  14.627  0.1067  2.1057 -0.1206
 6357TIP3    H240563   6.802   3.426  14.770 -0.6942 -0.8984  0.0467
 6358TIP3   OH240564   5.539   4.828  13.993 -0.2300  0.2001 -0.1240
 6358TIP3    H140565   5.571   4.917  14.006  2.0542 -0.5238 -0.3574
 6358TIP3    H240566   5.477   4.814  14.065  2.6672  0.5293  2.6534
 6359TIP3   OH240567   2.407   0.554  14.622 -0.3378 -0.3632  0.3188
 6359TIP3    H140568   2.330   0.521  14.667  0.4863 -2.4280  0.3073
 6359TIP3    H240569   2.373   0.607  14.550 -1.6889  0.5256  1.5663
 6360TIP3   OH240570   6.496   4.157   4.996 -0.2561 -0.3288  0.0200
 6360TIP3    H140571   6.457   4.195   4.918 -0.3445 -0.7796 -0.1583
 6360TIP3    H240572   6.434   4.176   5.066  0.5091  1.3705  0.2911
 6361TIP3   OH240573   6.797   5.587   2.516 -0.0388  0.1058  0.2585
 6361TIP3    H140574   6.804   5.681   2.496  0.1203  0.4350  1.6958
 6361TIP3    H240575   6.717   5.559   2.472 -1.2767  1.4441  1.5337
 6362TIP3   OH240576   5.688   3.885  16.900 -0.4041  0.4687  0.0503
 6362TIP3    H140577   5.646   3.827  16.964  1.1423  2.3341  2.9783
 6362TIP3    H240578   5.748   3.829  16.851  1.8029 -0.4328  3.4582
 6363TIP3   OH240579   1.993   4.584   4.576  0.2019  0.0674  0.5264
 6363TIP3    H140580   1.941   4.504   4.578 -1.6480  1.1909 -0.0899
 6363TIP3    H240581   2.053   4.573   4.503 -0.2218 -0.6549  0.2807
 6364TIP3   OH240582   1.792   3.777   2.562  0.1005  0.0155  0.0607
 6364TIP3    H140583   1.757   3.715   2.499 -0.2457  2.2757 -2.1086
 6364TIP3    H240584   1.715   3.816   2.603  0.3117 -0.7323  1.2248
 6365TIP3   OH240585   6.720   5.754  14.686  0.7415 -0.5159 -0.1367
 6365TIP3    H140586   6.631   5.729  14.710  1.0497 -0.8449  0.7084
 6365TIP3    H240587   6.713   5.846  14.659  0.1784 -0.4761  0.1328
 6366TIP3   OH240588   6.485   3.597   2.913 -0.0014 -0.0231 -0.1151
 6366TIP3    H140589   6.538   3.575   2.990  1.1186  1.8237 -0.2920
 6366TIP3    H240590   6.448   3.683   2.933 -0.3947  0.1034 -1.2875
 6367TIP3   OH240591   1.421   2.986   3.215  0.1269 -0.4804 -0.1877
 6367TIP3    H140592   1.358   3.053   3.188 -1.5637 -2.2704 -0.8989
 6367TIP3    H240593   1.475   3.030   3.281 -0.0716  1.9448 -1.5106
 6368TIP3   OH240594   5.817   0.741   0.879  0.4883  0.0579 -0.5091
 6368TIP3    H140595   5.781   0.778   0.798 -2.0033  0.0596  0.4904
 6368TIP3    H240596   5.838   0.818   0.932  0.5000  0.0566 -0.5120
 6369TIP3   OH240597   1.443   1.820  13.553 -0.2311 -0.3781 -0.4124
 6369TIP3    H140598   1.509   1.753  13.570  0.0877 -0.2239 -1.0154
 6369TIP3    H240599   1.415   1.805  13.462 -1.7905 -1.0975  0.1498
 6370TIP3   OH240600   1.862   5.583  11.544 -0.0556  0.0056  0.5246
 6370TIP3    H140601   1.816   5.667  11.552  0.2901  0.1455  1.1306
 6370TIP3    H240602   1.795   5.517  11.560 -0.7137  0.0890 -1.6462
 6371TIP3   OH240603   2.875   0.473  13.814 -0.0010  0.2452  0.2665
 6371TIP3    H140604   2.827   0.488  13.895 -1.1456  0.7468 -0.4827
 6371TIP3    H240605   2.815   0.420  13.760  0.6098  0.2013 -0.3835
 6372TIP3   OH240606   0.558   6.245   0.181  0.3043  0.2025 -0.3150
 6372TIP3    H140607   0.651   6.225   0.166  0.8985  1.2638  1.6375
 6372TIP3    H240608   0.553   6.340   0.174 -0.6834  0.1402 -0.5789
 6373TIP3   OH240609   6.355   6.677  13.660  0.3285  0.1786  0.7981
 6373TIP3    H140610   6.293   6.750  13.652  1.1871  0.9769  1.2708
 6373TIP3    H240611   6.402   6.695  13.741  1.3203 -0.3148  0.3412
 6374TIP3   OH240612   3.596   5.727   1.634  0.1942  0.5290  0.0065
 6374TIP3    H140613   3.627   5.697   1.719  0.1842  2.9726  0.9547
 6374TIP3    H240614   3.521   5.783   1.654  0.0953  1.0356 -1.6258
 6375TIP3   OH240615   3.596   5.690  16.228 -0.2125 -0.2432 -0.1066
 6375TIP3    H140616   3.671   5.685  16.288 -0.9882 -2.2793  0.7658
 6375TIP3    H240617   3.636   5.693  16.141  0.9087 -0.5292  0.3779
 6376TIP3   OH240618   5.535   6.561  15.661  0.1562 -0.1206  0.1495
 6376TIP3    H140619   5.486   6.565  15.579 -0.5926 -1.1980  0.5088
 6376TIP3    H240620   5.626   6.554  15.635 -0.1185 -1.1875 -0.6357
 6377TIP3   OH240621   4.028   3.010   3.664  0.4627 -0.2451  0.2663
 6377TIP3    H140622   4.080   3.073   3.714  2.8838 -1.7233 -0.1897
 6377TIP3    H240623   4.002   2.945   3.729  1.0918 -0.6332  0.1410
 6378TIP3   OH240624   0.988   3.217  15.115 -0.2012  0.2881  0.7422
 6378TIP3    H140625   0.902   3.176  15.104 -0.2452  0.4462  0.4969
 6378TIP3    H240626   1.020   3.231  15.026 -0.6321  1.7020  0.7785
 6379TIP3   OH240627   5.799   0.485  13.708 -0.1228 -0.2486 -0.4059
 6379TIP3    H140628   5.815   0.452  13.619  1.1232  0.3310 -0.4272
 6379TIP3    H240629   5.740   0.559  13.695  1.0618  0.6455 -0.9294
 6380TIP3   OH240630   5.195   6.027   4.354  0.1090  0.2827 -0.7108
 6380TIP3    H140631   5.127   5.959   4.358  0.7006 -0.2960  2.6168
 6380TIP3    H240632   5.277   5.979   4.351  0.4746  0.8695 -0.3741
 6381TIP3   OH240633   0.558   3.559   0.269 -0.5079  0.4376  0.2976
 6381TIP3    H140634   0.547   3.648   0.236 -0.3504  0.6078  0.6933
 6381TIP3    H240635   0.613   3.516   0.203  2.6843  1.7497  1.8796
 6382TIP3   OH240636   0.797   4.678  14.660  0.2309  0.5959 -0.3844
 6382TIP3    H140637   0.891   4.661  14.661  0.4226  1.5941 -0.4663
 6382TIP3    H240638   0.789   4.766  14.623 -0.7658  0.3407 -0.8183
 6383TIP3   OH240639   0.020   1.170  15.274  0.1166  0.0874  0.2797
 6383TIP3    H140640   0.086   1.226  15.233 -1.5329  1.2597 -0.9152
 6383TIP3    H240641  -0.027   1.130  15.201 -1.4145  0.4176  1.0377
 6384TIP3   OH240642   1.474   1.848  12.432  0.3004 -0.0637 -0.0127
 6384TIP3    H140643   1.394   1.846  12.380  0.8154  1.7918 -0.9464
 6384TIP3    H240644   1.519   1.928  12.406  1.8657 -0.3993  1.4117
 6385TIP3   OH240645   0.187   3.740  10.344 -1.1887  0.4794 -0.2231
 6385TIP3    H140646   0.126   3.802  10.304 -0.7606  1.1870  0.1927
 6385TIP3    H240647   0.266   3.792  10.362 -0.4349 -0.4257 -0.8134
 6386TIP3   OH240648   0.940   1.780   3.460  0.0447  0.5637 -0.2087
 6386TIP3    H140649   0.962   1.793   3.367 -1.8545  1.7406 -0.5396
 6386TIP3    H240650   0.900   1.693   3.463 -2.5365  1.6202 -1.0944
 6387TIP3   OH240651   0.621   0.041   4.451 -0.0304  0.1746 -0.2645
 6387TIP3    H140652   0.560  -0.025   4.486 -1.3010  0.5710 -1.6039
 6387TIP3    H240653   0.702   0.026   4.498 -1.0786 -0.5764  1.4065
 6388TIP3   OH240654   3.257   1.759   1.815 -0.6749 -0.2149  1.0300
 6388TIP3    H140655   3.164   1.740   1.825 -1.0156  0.9127  0.1834
 6388TIP3    H240656   3.266   1.850   1.843  0.0816 -0.1513  0.5915
 6389TIP3   OH240657   5.587   5.413  15.919  0.3235 -0.0244  0.3085
 6389TIP3    H140658   5.671   5.457  15.901 -0.0482  1.0248  1.0209
 6389TIP3    H240659   5.530   5.483  15.950 -0.6144 -0.8566  0.5052
 6390TIP3   OH240660   0.617   4.180   4.155 -0.3889  0.2051 -0.1130
 6390TIP3    H140661   0.657   4.115   4.098 -0.3051  1.0006 -0.9912
 6390TIP3    H240662   0.543   4.213   4.105 -0.8240  0.3271  0.5927
 6391TIP3   OH240663   2.175   3.270   2.044 -0.1544  0.1582  0.0066
 6391TIP3    H140664   2.185   3.211   1.969 -0.9514 -1.6844  1.2704
 6391TIP3    H240665   2.142   3.351   2.006  1.2755 -0.0529 -1.8472
 6392TIP3   OH240666   6.773   2.966   1.326  0.1525 -0.7395 -0.1896
 6392TIP3    H140667   6.758   3.060   1.339  1.0546 -0.7152  0.7902
 6392TIP3    H240668   6.735   2.948   1.240  0.3065  0.6093 -0.5690
 6393TIP3   OH240669   2.351   0.375  15.310  0.1921 -0.0970  0.1546
 6393TIP3    H140670   2.286   0.333  15.367  0.4262  0.1615  0.6185
 6393TIP3    H240671   2.356   0.465  15.343 -2.0541  1.0666 -2.2737
 6394TIP3   OH240672   1.958   3.567   4.909  0.7053 -0.0415 -0.3459
 6394TIP3    H140673   1.908   3.486   4.907  1.8905 -0.8092 -0.4185
 6394TIP3    H240674   2.028   3.550   4.973 -0.6248  1.9386  1.7860
 6395TIP3   OH240675   0.982   0.975  15.313 -0.2762 -0.0246  0.2435
 6395TIP3    H140676   1.046   0.923  15.361 -0.0881 -0.1295 -0.1203
 6395TIP3    H240677   1.019   0.985  15.225 -0.9815 -0.4992 -0.1130
 6396TIP3   OH240678   4.091   0.048  15.881  0.2869 -0.6516 -0.1308
 6396TIP3    H140679   4.027   0.037  15.811  1.0342 -0.6147 -0.8288
 6396TIP3    H240680   4.119   0.139  15.875  0.5155 -0.7062  0.0731
 6397TIP3   OH240681   5.676   6.435  15.131  0.2750  0.2287  0.0863
 6397TIP3    H140682   5.721   6.351  15.141 -0.1403 -0.2750 -1.8425
 6397TIP3    H240683   5.599   6.428  15.187  0.2970 -0.6513  0.0198
 6398TIP3   OH240684   3.886   3.193  11.001  0.3783 -0.1223 -0.1952
 6398TIP3    H140685   3.925   3.273  10.967  1.0528 -0.1836  0.4126
 6398TIP3    H240686   3.796   3.217  11.022  0.6342  0.5315  0.1770
 6399TIP3   OH240687   6.813   4.816   6.294  0.2433  0.0853 -0.2534
 6399TIP3    H140688   6.896   4.767   6.288  0.4955  0.1952  1.6286
 6399TIP3    H240689   6.761   4.766   6.358 -0.4754  0.9348 -0.1608
 6400TIP3   OH240690   3.236   6.172  16.248  0.8059  0.2460  0.1663
 6400TIP3    H140691   3.159   6.118  16.229  1.5244 -0.3083 -1.2956
 6400TIP3    H240692   3.239   6.176  16.344 -2.6795  2.6943  0.3916
 6401TIP3   OH240693   0.149   4.205  12.200 -0.0552 -0.4072 -0.4136
 6401TIP3    H140694   0.107   4.291  12.204 -1.7288 -1.1637 -0.7628
 6401TIP3    H240695   0.237   4.220  12.235 -1.6879  0.5973  3.9640
 6402TIP3   OH240696   6.551   6.142  13.846  0.3115  0.5893  0.1426
 6402TIP3    H140697   6.607   6.069  13.871 -1.4904 -0.8095  0.3268
 6402TIP3    H240698   6.609   6.203  13.801  1.5070 -1.9591 -2.0241
 6403TIP3   OH240699   4.645   1.928   5.773  0.6649 -0.0561 -0.5766
 6403TIP3    H140700   4.730   1.942   5.732  0.5254 -0.0755 -0.8772
 6403TIP3    H240701   4.665   1.907   5.864  0.9495  0.4615 -0.5214
 6404TIP3   OH240702   4.446   0.009  15.400  0.8427 -0.2755  0.1556
 6404TIP3    H140703   4.425  -0.066  15.344 -0.2351 -2.0948  2.7961
 6404TIP3    H240704   4.380   0.074  15.379  1.6621 -0.0701 -2.0370
 6405TIP3   OH240705   2.911   2.149  15.951  0.1009 -0.2985 -0.3077
 6405TIP3    H140706   2.945   2.099  15.877  0.0454 -0.2813 -0.3443
 6405TIP3    H240707   2.817   2.132  15.951  0.1854 -0.8295  0.1505
 6406TIP3   OH240708   3.245   0.643   1.992  0.6373 -0.2921 -0.6756
 6406TIP3    H140709   3.216   0.583   2.062 -0.8519 -0.5757 -1.4951
 6406TIP3    H240710   3.209   0.728   2.017  0.7617 -0.2282 -0.7115
 6407TIP3   OH240711   2.232   5.703  12.816 -0.0622 -0.3454 -0.1229
 6407TIP3    H140712   2.325   5.682  12.813 -0.1949 -1.4887  2.1538
 6407TIP3    H240713   2.224   5.768  12.886 -0.9685 -0.0818 -0.4588
 6408TIP3   OH240714   0.163   6.219  14.046 -0.0527 -0.1487 -0.4246
 6408TIP3    H140715   0.179   6.187  14.135 -1.7715 -1.0100 -0.3754
 6408TIP3    H240716   0.237   6.277  14.027 -0.1636  0.8676  1.9544
 6409TIP3   OH240717   2.831   5.251   0.921  0.0829 -0.1018 -0.2477
 6409TIP3    H140718   2.924   5.249   0.895 -0.0638  0.3070 -0.8169
 6409TIP3    H240719   2.832   5.278   1.012  0.4612  1.2309 -0.6271
 6410TIP3   OH240720   2.304   2.038  15.558  0.1368 -0.3855 -0.0610
 6410TIP3    H140721   2.307   1.951  15.518 -0.4011  0.4059 -1.9214
 6410TIP3    H240722   2.243   2.088  15.503  0.5218  1.2042  0.8928
 6411TIP3   OH240723   5.440   6.126  15.812  0.4250 -0.2911 -0.3162
 6411TIP3    H140724   5.506   6.095  15.750  0.1865  0.1343 -0.7964
 6411TIP3    H240725   5.439   6.061  15.882  0.2057 -1.1510 -1.1038
 6412TIP3   OH240726   5.758   6.632  11.301  0.7664  0.4392  0.3892
 6412TIP3    H140727   5.843   6.655  11.338  0.8393 -0.7148  0.9594
 6412TIP3    H240728   5.701   6.620  11.377  0.5388 -0.4928  0.0819
 6413TIP3   OH240729   2.045   5.801   3.550 -0.1534  0.1115 -0.0313
 6413TIP3    H140730   1.996   5.815   3.631 -0.7263 -0.5629 -0.2568
 6413TIP3    H240731   2.109   5.873   3.548  1.5773 -1.2165  2.2887
 6414TIP3   OH240732   2.065   1.275   5.814 -0.5275  0.0351  0.3485
 6414TIP3    H140733   1.999   1.238   5.756 -1.0660  0.3418  0.7594
 6414TIP3    H240734   2.034   1.255   5.902  1.2056 -2.0606  0.5595
 6415TIP3   OH240735   0.920   2.695   2.709  0.4996  0.9150  0.4838
 6415TIP3    H140736   0.874   2.625   2.756 -1.0269  1.9190  0.5579
 6415TIP3    H240737   0.940   2.658   2.624  0.0846  0.2447  0.6708
 6416TIP3   OH240738   2.333   4.792  14.231  0.6267  0.2628  0.5575
 6416TIP3    H140739   2.285   4.739  14.295  1.4909 -0.5340  0.5616
 6416TIP3    H240740   2.301   4.881  14.245  0.4431  0.0248  1.7783
 6417TIP3   OH240741   5.627   5.232  16.886  0.5365 -0.2487  0.1736
 6417TIP3    H140742   5.535   5.245  16.911  0.3841  2.7956 -1.4305
 6417TIP3    H240743   5.623   5.175  16.809 -0.0710  0.1329 -0.0869
 6418TIP3   OH240744   1.249   1.941  10.926 -0.4112 -0.3250 -0.1352
 6418TIP3    H140745   1.170   1.933  10.873 -0.5699 -0.3627  0.1064
 6418TIP3    H240746   1.279   1.850  10.938  0.9092 -0.2114 -2.0743
 6419TIP3   OH240747   5.072   5.789  13.485  0.6172 -0.5433 -0.3104
 6419TIP3    H140748   5.034   5.875  13.500  2.4364  0.1464  0.4982
 6419TIP3    H240749   5.160   5.806  13.453  1.1664 -2.1069  0.2725
 6420TIP3   OH240750   5.613   5.046  14.539 -0.4310 -0.1665 -0.5360
 6420TIP3    H140751   5.690   5.005  14.499  0.6291  1.3290 -0.1214
 6420TIP3    H240752   5.558   5.069  14.465  0.5700  0.7506 -1.0254
 6421TIP3   OH240753   5.213   2.792   0.003  0.0265 -0.0209 -0.1942
 6421TIP3    H140754   5.140   2.854   0.012 -0.5152 -0.6292 -0.3075
 6421TIP3    H240755   5.243   2.804  -0.087 -0.1929 -0.0404 -0.2720
 6422TIP3   OH240756   2.944   6.449   2.526 -0.0332 -0.3742  0.2357
 6422TIP3    H140757   2.859   6.483   2.498  0.5691  1.5076  0.5314
 6422TIP3    H240758   3.003   6.471   2.454  0.5628  0.1178  0.8586
 6423TIP3   OH240759   1.296   5.074  13.332  0.3148 -0.4089  0.0975
 6423TIP3    H140760   1.296   5.091  13.427 -0.1406  0.9813 -0.1361
 6423TIP3    H240761   1.296   4.978  13.326 -0.2045 -0.5373  1.5123
 6424TIP3   OH240762   5.391   4.175  13.861 -0.0958 -0.0585 -0.3795
 6424TIP3    H140763   5.395   4.130  13.945 -1.9337 -0.6405 -0.5607
 6424TIP3    H240764   5.384   4.105  13.796  0.0058  0.4148 -0.9147
 6425TIP3   OH240765   3.908   5.297  12.137 -0.0815  0.1740 -0.2844
 6425TIP3    H140766   3.947   5.382  12.117  0.7580 -0.5352 -1.8956
 6425TIP3    H240767   3.947   5.271  12.220 -0.2350  1.2890  0.1424
 6426TIP3   OH240768   2.308   6.586   5.454 -0.3096 -0.5202  0.2268
 6426TIP3    H140769   2.311   6.491   5.447 -1.5271 -0.5308 -0.3540
 6426TIP3    H240770   2.221   6.605   5.489  0.0491  0.3698  0.6702
 6427TIP3   OH240771   3.274   6.712   4.777 -0.4841  0.2497  0.2517
 6427TIP3    H140772   3.192   6.739   4.819 -0.5716  0.7646 -0.2304
 6427TIP3    H240773   3.324   6.793   4.767  0.0986 -0.0608  0.5539
 6428TIP3   OH240774   3.377   5.741   3.862 -0.3348  0.3192  0.1130
 6428TIP3    H140775   3.320   5.789   3.923 -1.2059  0.1427 -0.5379
 6428TIP3    H240776   3.353   5.775   3.776  2.5681  2.3500 -0.0206
 6429TIP3   OH240777   2.558   4.012  10.852 -0.1409 -0.3613  0.0165
 6429TIP3    H140778   2.497   3.965  10.908  0.8145 -1.5408  0.1239
 6429TIP3    H240779   2.635   3.955  10.847 -0.1445 -0.2867 -2.4221
 6430TIP3   OH240780   3.115   5.168   1.963  0.2524  0.3131 -0.4782
 6430TIP3    H140781   3.020   5.159   1.965  0.0785  1.7081 -1.3387
 6430TIP3    H240782   3.140   5.150   1.873  0.6573  1.1340 -0.5413
 6431TIP3   OH240783   3.182   3.536  15.907 -0.0730  0.3623 -0.2480
 6431TIP3    H140784   3.223   3.461  15.950  0.5984  0.9665  0.1729
 6431TIP3    H240785   3.202   3.524  15.814  0.3588  0.2314 -0.1368
 6432TIP3   OH240786   4.620   6.566  16.836  0.5353  0.4203  0.1215
 6432TIP3    H140787   4.561   6.619  16.783 -0.0282  0.3579  0.6645
 6432TIP3    H240788   4.603   6.595  16.926 -0.7296 -1.5321  0.5808
 6433TIP3   OH240789   3.097   4.689  13.126 -0.5048  0.3622 -0.2221
 6433TIP3    H140790   3.096   4.642  13.209 -2.3618  0.6791 -0.0037
 6433TIP3    H240791   3.114   4.780  13.151  1.5407  0.1065 -0.4935
 6434TIP3   OH240792   3.952   6.569  15.587 -0.8985  0.7454  0.5767
 6434TIP3    H140793   4.029   6.598  15.637  0.4520 -0.0639 -0.9311
 6434TIP3    H240794   3.936   6.639  15.524  0.2500 -0.1772 -0.8082
 6435TIP3   OH240795   4.621   2.554  14.385 -0.1720  0.1689  0.2697
 6435TIP3    H140796   4.698   2.501  14.366 -1.0414 -0.5813 -1.3953
 6435TIP3    H240797   4.655   2.632  14.428  1.6006  0.1638 -1.0407
 6436TIP3   OH240798   3.887   5.189  11.332  0.1662 -0.5154 -0.1331
 6436TIP3    H140799   3.899   5.100  11.366  0.4240  0.7912  3.5954
 6436TIP3    H240800   3.966   5.236  11.359 -0.3080  1.0693 -1.3549
 6437TIP3   OH240801   4.971   4.651   1.742  0.0527  0.2942  0.0289
 6437TIP3    H140802   5.051   4.704   1.745 -0.2649  0.7687  0.5539
 6437TIP3    H240803   5.001   4.561   1.751  0.6328  0.3446 -1.2068
 6438TIP3   OH240804   2.169   1.985  11.659 -0.0665 -0.4185 -0.1569
 6438TIP3    H140805   2.242   2.005  11.600 -0.7566  0.4937 -0.7400
 6438TIP3    H240806   2.176   1.891  11.676  0.5459 -0.5643 -1.1517
 6439TIP3   OH240807   4.602   6.208  13.874 -0.2580  0.1161  0.3206
 6439TIP3    H140808   4.656   6.130  13.887  1.8549  0.9553 -2.4729
 6439TIP3    H240809   4.630   6.268  13.943  3.5685  0.9739 -1.6453
 6440TIP3   OH240810   5.436   2.849   4.094  0.2352 -0.0012 -0.2031
 6440TIP3    H140811   5.427   2.803   4.178 -0.1471 -0.0534 -0.2726
 6440TIP3    H240812   5.347   2.851   4.058  0.3698  0.1767 -0.5255
 6441TIP3   OH240813   0.743   4.638  11.290  0.0864  0.6723  0.5039
 6441TIP3    H140814   0.769   4.575  11.357 -2.6879  0.7344  1.7889
 6441TIP3    H240815   0.722   4.718  11.338  0.8563  1.7085 -0.8036
 6442TIP3   OH240816   1.666   0.759   3.194  0.0586 -0.0287  0.1934
 6442TIP3    H140817   1.594   0.803   3.148 -0.7646 -0.0197  1.4525
 6442TIP3    H240818   1.634   0.749   3.284  2.0562  1.0087  1.0747
 6443TIP3   OH240819   4.210   3.963   1.639 -0.2830 -0.1449  0.3497
 6443TIP3    H140820   4.243   4.048   1.668 -1.3531  0.5021 -0.2412
 6443TIP3    H240821   4.277   3.930   1.579 -0.3412  0.7849 -0.2449
 6444TIP3   OH240822   2.763   4.427  14.223 -0.0969 -0.7419 -0.3297
 6444TIP3    H140823   2.810   4.433  14.306  0.3887 -1.0172 -0.5828
 6444TIP3    H240824   2.787   4.507  14.175  1.9878 -1.9234 -1.4173
 6445TIP3   OH240825   6.091   3.946  11.675  0.3265  0.0955  0.2509
 6445TIP3    H140826   6.042   4.028  11.675 -1.1153 -0.7015  1.4456
 6445TIP3    H240827   6.169   3.964  11.623 -0.4138  1.9293 -0.2970
 6446TIP3   OH240828   4.256   2.100   6.571  0.2078  0.0136  0.3022
 6446TIP3    H140829   4.179   2.140   6.611 -0.1035  0.8204 -1.0686
 6446TIP3    H240830   4.221   2.028   6.518  0.7068 -1.7647  2.2121
 6447TIP3   OH240831   4.353   3.829  11.413 -0.0509  0.5789  1.0593
 6447TIP3    H140832   4.341   3.924  11.404  0.0017  0.4682 -0.4571
 6447TIP3    H240833   4.384   3.801  11.327 -0.5510 -0.8962  1.3366
 6448TIP3   OH240834   2.162   2.253   4.373  0.0929  0.3372  0.6539
 6448TIP3    H140835   2.218   2.183   4.407  0.3718  0.3683  0.2593
 6448TIP3    H240836   2.088   2.207   4.334  1.0070  0.1595 -0.9884
 6449TIP3   OH240837   6.352   3.261   0.284  0.2664 -0.5141 -0.2057
 6449TIP3    H140838   6.415   3.254   0.357 -1.1417 -2.1615  0.9293
 6449TIP3    H240839   6.270   3.288   0.326  0.1552  1.7145 -1.6785
 6450TIP3   OH240840   4.532   3.997   3.534 -0.0211  0.3558  0.0089
 6450TIP3    H140841   4.473   4.000   3.459 -0.5373 -0.0016  0.3910
 6450TIP3    H240842   4.613   4.038   3.503 -0.5966  1.1884 -0.4053
 6451TIP3   OH240843   1.617   4.629   3.288 -0.0798 -0.7573 -0.2987
 6451TIP3    H140844   1.610   4.564   3.358 -3.1901 -1.2281 -0.9173
 6451TIP3    H240845   1.613   4.577   3.207  1.4604 -0.0566 -0.8676
 6452TIP3   OH240846   0.395   4.418   5.518  0.3185  0.3001 -0.2653
 6452TIP3    H140847   0.405   4.427   5.613 -1.9883 -1.8309  0.2973
 6452TIP3    H240848   0.305   4.445   5.500  0.3433 -0.4049 -1.6514
 6453TIP3   OH240849   2.402   6.640  10.432 -1.1666 -0.1042 -0.2826
 6453TIP3    H140850   2.452   6.702  10.379  2.2174 -2.2949  0.0147
 6453TIP3    H240851   2.452   6.632  10.513 -2.2251 -2.1951  0.2361
 6454TIP3   OH240852   3.630   1.733  14.021 -0.0046  0.0490 -0.3423
 6454TIP3    H140853   3.586   1.816  14.040 -2.5794 -1.3677  0.2293
 6454TIP3    H240854   3.583   1.698  13.945  1.2589 -0.7822 -0.7719
 6455TIP3   OH240855   0.876   0.786  15.628  0.4337  0.1276 -0.4557
 6455TIP3    H140856   0.913   0.756  15.711 -0.0012 -0.3296 -0.4235
 6455TIP3    H240857   0.938   0.852  15.597 -0.7569  2.3320  1.5477
 6456TIP3   OH240858   0.812   0.630  15.359 -0.5933  0.3982  0.2669
 6456TIP3    H140859   0.735   0.647  15.414 -0.4179  0.5474  0.4673
 6456TIP3    H240860   0.878   0.597  15.420 -0.6519 -0.2041  0.0205
 6457TIP3   OH240861   4.971   1.459  13.724  0.1148  0.0256  0.5591
 6457TIP3    H140862   5.048   1.407  13.746 -0.9246 -1.0747  1.8177
 6457TIP3    H240863   4.918   1.401  13.669  0.2547  0.8317 -0.4398
 6458TIP3   OH240864   5.791   2.901   1.982 -0.3529 -0.5961 -0.4551
 6458TIP3    H140865   5.881   2.881   2.007 -0.5985 -0.7571  0.3530
 6458TIP3    H240866   5.770   2.836   1.915  0.8566  0.8601 -2.3335
 6459TIP3   OH240867   4.765   1.337   2.388  0.2440 -0.5930 -0.1341
 6459TIP3    H140868   4.799   1.273   2.326 -1.1782  1.0517 -2.7891
 6459TIP3    H240869   4.838   1.396   2.404  0.1966 -0.0953 -1.6138
 6460TIP3   OH240870   2.426   6.111  16.602  0.4869 -0.2057 -0.5611
 6460TIP3    H140871   2.378   6.182  16.645  0.8510 -0.3603  0.1067
 6460TIP3    H240872   2.440   6.046  16.671  2.4297  0.2201 -0.5098
 6461TIP3   OH240873   3.405   0.301   3.055 -0.3505  0.2389 -0.5654
 6461TIP3    H140874   3.337   0.266   3.113  0.8171  0.5546  1.0740
 6461TIP3    H240875   3.451   0.366   3.108  1.2100  0.0684 -1.6278
 6462TIP3   OH240876   3.960   1.723   2.245 -0.5091  0.0410  0.3488
 6462TIP3    H140877   3.953   1.641   2.196  0.4045  0.7326 -1.0190
 6462TIP3    H240878   3.871   1.758   2.248 -0.6415 -0.2182 -0.4687
 6463TIP3   OH240879   5.473   5.916   1.355 -0.2699  0.2058  0.3056
 6463TIP3    H140880   5.422   5.966   1.291  0.7123 -0.8176 -1.3394
 6463TIP3    H240881   5.510   5.844   1.305 -0.3920 -1.3158  2.2961
 6464TIP3   OH240882   3.954   4.811  17.047 -0.2439  0.0235  0.0061
 6464TIP3    H140883   4.000   4.841  17.125  1.7062 -0.8482 -0.7473
 6464TIP3    H240884   3.914   4.890  17.011  0.4934  0.7864  0.8042
 6465TIP3   OH240885   3.309   1.787  15.261  0.0158 -0.9704 -0.6224
 6465TIP3    H140886   3.301   1.872  15.304  0.8468 -1.4083  0.4466
 6465TIP3    H240887   3.243   1.789  15.192 -1.4889 -0.2898  0.7666
 6466TIP3   OH240888   1.772   5.557   5.289  0.4833 -0.3553  0.1319
 6466TIP3    H140889   1.791   5.463   5.284 -1.1142 -0.6717 -0.4299
 6466TIP3    H240890   1.748   5.572   5.380 -3.0511 -1.3378 -0.4856
 6467TIP3   OH240891   3.276   5.874  13.489 -0.0222  0.3937  0.0968
 6467TIP3    H140892   3.298   5.884  13.581 -0.2496 -0.7588  0.2988
 6467TIP3    H240893   3.181   5.856  13.489 -0.1243  0.9170 -0.4001
 6468TIP3   OH240894   4.104   3.785  11.167  0.5124 -0.2038 -0.1038
 6468TIP3    H140895   4.139   3.718  11.225  0.8057 -1.0612 -1.2252
 6468TIP3    H240896   4.077   3.737  11.089  1.3441  1.0618 -1.2165
 6469TIP3   OH240897   3.398   5.655   1.965 -0.6539  0.4288  0.0201
 6469TIP3    H140898   3.315   5.703   1.970 -1.3672 -0.8577  1.5231
 6469TIP3    H240899   3.389   5.585   2.030  0.8126 -1.0177 -1.2439
 6470TIP3   OH240900   3.015   3.084   3.256 -0.4226  0.3564  0.5476
 6470TIP3    H140901   3.082   3.096   3.323  0.2532 -0.4623  0.0409
 6470TIP3    H240902   2.972   3.001   3.279 -1.0142  0.6908  0.6596
 6471TIP3   OH240903   4.753   3.990  16.278 -0.2178 -0.3412  0.6380
 6471TIP3    H140904   4.698   3.959  16.206 -0.6775 -0.3027  0.9714
 6471TIP3    H240905   4.718   4.076  16.300  1.3268  0.6697 -0.5889
 6472TIP3   OH240906   2.050   5.234  11.220  1.1872  0.3927  0.4908
 6472TIP3    H140907   2.106   5.166  11.184  2.0614  2.0448 -1.4694
 6472TIP3    H240908   2.062   5.309  11.162 -1.7802  1.3839  0.9667
 6473TIP3   OH240909   5.798   5.290  14.023 -0.1677 -0.3525 -0.0252
 6473TIP3    H140910   5.824   5.373  13.983 -0.2949  0.2943  1.1632
 6473TIP3    H240911   5.840   5.291  14.109 -0.1507 -1.5421 -0.0001
 6474TIP3   OH240912   4.069   2.933   1.714 -0.5433  0.6069  0.3644
 6474TIP3    H140913   3.973   2.940   1.717 -1.0405 -3.0648 -1.2628
 6474TIP3    H240914   4.096   2.926   1.805 -1.5488  3.3011  0.9564
 6475TIP3   OH240915   0.606   3.068  11.033 -0.3557 -0.1162 -0.0775
 6475TIP3    H140916   0.614   3.163  11.044 -1.5909  0.3187 -2.3090
 6475TIP3    H240917   0.642   3.051  10.946  2.0301 -2.0987  1.1504
 6476TIP3   OH240918   0.268   3.047  15.715 -0.4847  0.1054 -0.6600
 6476TIP3    H140919   0.267   3.084  15.803 -0.6825  0.9405 -1.0100
 6476TIP3    H240920   0.358   3.016  15.703  0.1391  1.9291 -0.9572
 6477TIP3   OH240921   5.442   6.339   2.618  0.5243 -0.1036  0.2972
 6477TIP3    H140922   5.476   6.291   2.693  1.6463 -0.6300 -0.5132
 6477TIP3    H240923   5.482   6.426   2.624 -0.0165  0.1164  0.7387
 6478TIP3   OH240924   2.825   3.321  10.943  0.5552  0.1874 -0.5758
 6478TIP3    H140925   2.799   3.303  10.853  0.5481  3.2094 -1.2709
 6478TIP3    H240926   2.775   3.398  10.968  0.7622 -0.4043  1.9674
 6479TIP3   OH240927   6.497   4.753   1.238  0.6432 -0.0809 -0.5151
 6479TIP3    H140928   6.528   4.789   1.156 -0.8914 -0.1872 -1.1751
 6479TIP3    H240929   6.524   4.661   1.235 -0.8449 -0.5346 -1.7267
 6480TIP3   OH240930   3.167   6.376  16.654  0.6708 -0.3418 -0.5938
 6480TIP3    H140931   3.080   6.336  16.647  0.4898 -0.0464 -0.0923
 6480TIP3    H240932   3.211   6.325  16.723  2.1741 -2.7775 -3.1251
 6481TIP3   OH240933   6.361   1.387   5.676  0.4252  0.1796 -0.1563
 6481TIP3    H140934   6.388   1.295   5.680  1.2262  0.4291  0.9744
 6481TIP3    H240935   6.398   1.419   5.594  0.4013 -0.4380 -0.4123
 6482TIP3   OH240936   3.292   4.316   5.377 -0.0115 -0.8969 -0.0734
 6482TIP3    H140937   3.272   4.323   5.470  0.0765 -2.3011  0.0715
 6482TIP3    H240938   3.388   4.318   5.372 -0.0277  0.4054 -0.2691
 6483TIP3   OH240939   5.598   3.219   2.559 -0.3420 -0.3833 -0.0786
 6483TIP3    H140940   5.657   3.183   2.625  1.2599 -0.6515 -1.5650
 6483TIP3    H240941   5.511   3.213   2.598  0.5432 -0.4785  1.9958
 6484TIP3   OH240942   1.910   0.770   5.352  0.5603  0.0358 -0.6623
 6484TIP3    H140943   1.878   0.853   5.385  0.2094  0.6676 -2.4678
 6484TIP3    H240944   1.889   0.771   5.258  0.1554 -2.2605 -0.6688
 6485TIP3   OH240945   3.311   2.719  10.969 -0.7768  0.1420 -0.0990
 6485TIP3    H140946   3.251   2.792  10.953 -2.1970 -0.6636  1.3059
 6485TIP3    H240947   3.257   2.640  10.959  0.4709 -0.7067 -0.4927
 6486TIP3   OH240948   6.516   6.645  16.573 -0.4913 -0.2623  0.0460
 6486TIP3    H140949   6.471   6.729  16.565 -0.0800 -0.0220  0.2496
 6486TIP3    H240950   6.461   6.594  16.632 -1.0561 -0.3580 -0.5434
 6487TIP3   OH240951   5.095   2.516  12.529  0.2531 -0.3030  0.2253
 6487TIP3    H140952   5.185   2.516  12.495  0.7603 -0.3898  1.4970
 6487TIP3    H240953   5.079   2.426  12.556  0.2650 -0.0471  1.1500
 6488TIP3   OH240954   3.946   3.260  14.379 -0.2288 -0.3208 -0.1011
 6488TIP3    H140955   3.896   3.236  14.301 -0.4468 -0.7905  0.1756
 6488TIP3    H240956   3.901   3.336  14.414 -0.2992 -0.2817 -0.2746
 6489TIP3   OH240957   0.106   0.136  14.126  0.1802  0.1252 -0.2328
 6489TIP3    H140958   0.067   0.067  14.072 -3.1003  2.6632 -1.4017
 6489TIP3    H240959   0.069   0.121  14.213  0.3063 -0.1641 -0.2251
 6490TIP3   OH240960   4.511   1.478   4.571 -0.6027  0.4899 -0.8898
 6490TIP3    H140961   4.504   1.385   4.594  0.4981  0.6910  0.4195
 6490TIP3    H240962   4.429   1.498   4.527 -1.7326 -0.6266  0.5755
 6491TIP3   OH240963   3.681   6.101   6.726 -0.0781  0.0293  0.3981
 6491TIP3    H140964   3.737   6.162   6.774  0.6608 -0.6258  0.3975
 6491TIP3    H240965   3.617   6.072   6.791  0.5262 -0.3634  0.8338
 6492TIP3   OH240966   1.281   5.758  16.453  1.0557 -0.1950 -0.3193
 6492TIP3    H140967   1.202   5.740  16.402  1.1590 -1.3919 -0.0764
 6492TIP3    H240968   1.258   5.736  16.543  2.0920 -2.0233 -0.4629
 6493TIP3   OH240969   6.564   1.590   1.934  0.3414 -0.5994  0.0431
 6493TIP3    H140970   6.565   1.646   1.857  1.0623  1.3810  1.4128
 6493TIP3    H240971   6.602   1.508   1.904 -2.3979 -1.1123 -2.4725
 6494TIP3   OH240972   6.119   4.285   5.922  0.3993 -0.0536  0.5933
 6494TIP3    H140973   6.202   4.242   5.940  0.3963 -0.6658 -0.8086
 6494TIP3    H240974   6.053   4.216   5.928  0.1464  0.1658  0.4095
 6495TIP3   OH240975   0.095   3.716  16.879 -0.4419 -0.3088  0.0926
 6495TIP3    H140976   0.029   3.723  16.811  0.7252  0.8273 -0.9634
 6495TIP3    H240977   0.094   3.624  16.904 -0.0725 -1.0284 -2.3265
 6496TIP3   OH240978   5.486   4.118  12.445  0.0754 -0.6306  0.3929
 6496TIP3    H140979   5.525   4.173  12.377  0.7921 -1.2063  0.3329
 6496TIP3    H240980   5.425   4.061  12.397 -2.6447  1.7522  0.7200
 6497TIP3   OH240981   4.384   1.932  10.304 -0.3380  0.4940  0.1899
 6497TIP3    H140982   4.459   1.905  10.357  0.0220  2.8310  0.9603
 6497TIP3    H240983   4.423   1.957  10.220 -0.2908  1.2282  0.4223
 6498TIP3   OH240984   3.491   0.062   3.338 -0.2915  0.4987 -0.0550
 6498TIP3    H140985   3.516   0.056   3.430  0.2855  1.5632 -0.1194
 6498TIP3    H240986   3.396   0.056   3.337 -0.2150 -1.0452  0.4592
 6499TIP3   OH240987   2.723   4.700  10.973 -0.5059 -0.0301  0.3678
 6499TIP3    H140988   2.817   4.681  10.981 -0.6240 -0.1334  2.0064
 6499TIP3    H240989   2.691   4.697  11.063 -1.8394  1.3169 -0.0260
 6500TIP3   OH240990   2.466   2.967   3.453 -0.1775 -0.0652 -0.4155
 6500TIP3    H140991   2.499   2.912   3.523 -1.2113  0.4043  0.4614
 6500TIP3    H240992   2.541   2.981   3.395  0.9187  0.2556  1.0518
 6501TIP3   OH240993   1.963   5.101   2.609  0.1132  0.0498 -0.3536
 6501TIP3    H140994   1.915   5.158   2.669  0.6857 -0.4442  0.5881
 6501TIP3    H240995   2.052   5.135   2.609  0.3871 -0.6492 -0.0280
 6502TIP3   OH240996   6.587   4.433   6.336 -0.5635 -0.1661  0.3922
 6502TIP3    H140997   6.517   4.445   6.272  1.7903  1.0323 -2.1572
 6502TIP3    H240998   6.599   4.338   6.341 -0.5619 -0.2859 -1.3144
 6503TIP3   OH240999   4.088   2.261  11.249 -0.0891  0.6224 -0.4268
 6503TIP3    H141000   4.070   2.205  11.173  0.5538  0.0801 -0.1843
 6503TIP3    H241001   4.169   2.226  11.287 -0.9500  0.1931  1.1356
 6504TIP3   OH241002   5.320   0.433   3.680 -0.3331  0.4487 -0.7241
 6504TIP3    H141003   5.270   0.352   3.672 -1.5782  1.2836 -1.9008
 6504TIP3    H241004   5.409   0.405   3.704 -0.3864 -1.3573 -2.4261
 6505TIP3   OH241005   3.606   2.070  14.358  0.0585 -0.7055  0.1424
 6505TIP3    H141006   3.683   2.024  14.392 -0.1306 -0.3552  1.0736
 6505TIP3    H241007   3.558   2.098  14.436 -1.9833 -2.4494 -0.4119
 6506TIP3   OH241008   2.384   5.713  13.741  0.3770 -0.7465 -0.0263
 6506TIP3    H141009   2.340   5.797  13.723 -0.6506 -1.1998  0.2957
 6506TIP3    H241010   2.477   5.736  13.746  0.0060  0.6178  1.4593
 6507TIP3   OH241011   1.488   3.171  12.155 -0.2449 -0.2735  0.0931
 6507TIP3    H141012   1.425   3.228  12.199  2.4768  2.3197  0.9272
 6507TIP3    H241013   1.461   3.173  12.063 -0.1964  2.5903  0.0487
 6508TIP3   OH241014   0.100   5.820  16.653 -0.1099  0.0581  0.1394
 6508TIP3    H141015   0.165   5.795  16.587 -1.9627  2.4866 -2.8747
 6508TIP3    H241016   0.016   5.799  16.614 -1.3209  1.7693  1.6619
 6509TIP3   OH241017   6.827   0.661   0.663  0.4784 -0.4993 -0.2927
 6509TIP3    H141018   6.835   0.749   0.699  0.2180  0.0143 -1.4366
 6509TIP3    H241019   6.851   0.603   0.735  2.6250  0.5626 -0.0612
 6510TIP3   OH241020   4.245   1.899  12.872  0.4591  0.4538 -0.0231
 6510TIP3    H141021   4.320   1.850  12.906  0.1980  0.8442  1.1196
 6510TIP3    H241022   4.169   1.848  12.898  0.2697  0.5052 -0.4536
 6511TIP3   OH241023   4.330   6.378   1.694  0.2475  0.3370 -0.3270
 6511TIP3    H141024   4.403   6.427   1.657  2.5479 -2.0592  0.6744
 6511TIP3    H241025   4.372   6.306   1.742 -2.7774 -0.6092  1.1338
 6512TIP3   OH241026   1.234   6.678  13.081  0.4611 -0.3303 -0.5071
 6512TIP3    H141027   1.173   6.703  13.011 -0.0645 -0.7257 -0.1963
 6512TIP3    H241028   1.301   6.626  13.038  1.0121  0.7432 -0.9890
 6513TIP3   OH241029   3.723   4.105  11.424  0.1226  0.4724  0.5289
 6513TIP3    H141030   3.675   4.076  11.501 -1.3697 -1.0150 -0.8500
 6513TIP3    H241031   3.785   4.035  11.406 -0.2719  0.2928 -0.1899
 6514TIP3   OH241032   0.017   5.561  13.404 -0.1692  0.0366 -0.3578
 6514TIP3    H141033   0.099   5.531  13.442  0.8989  0.2824 -2.3076
 6514TIP3    H241034   0.014   5.520  13.317 -1.4999  0.9984 -0.8121
 6515TIP3   OH241035   3.284   3.364  12.523  0.4088 -0.7900  0.5263
 6515TIP3    H141036   3.317   3.440  12.476  0.2838 -0.4887  0.9240
 6515TIP3    H241037   3.207   3.396  12.570  0.5452 -1.0809  0.9534
 6516TIP3   OH241038   1.588   1.692   5.373  0.0093 -0.3225  0.4730
 6516TIP3    H141039   1.589   1.644   5.291 -1.0423  0.4295 -0.0126
 6516TIP3    H241040   1.647   1.766   5.359 -1.7393  0.9890 -0.4108
 6517TIP3   OH241041   3.480   6.617  15.951 -0.1478  0.3031 -0.4661
 6517TIP3    H141042   3.476   6.676  15.876 -1.0719  0.8202 -0.0256
 6517TIP3    H241043   3.408   6.556  15.937 -0.2403  0.3214 -0.0550
 6518TIP3   OH241044   0.216   0.842   5.641  0.1710  0.4240 -0.2339
 6518TIP3    H141045   0.156   0.793   5.584 -0.1492 -0.6671  0.9587
 6518TIP3    H241046   0.240   0.919   5.591 -0.0927 -0.4786 -1.8231
 6519TIP3   OH241047   1.713   2.882   0.429 -0.0864 -0.0762 -0.0198
 6519TIP3    H141048   1.647   2.815   0.414  0.0283 -0.1087 -0.3751
 6519TIP3    H241049   1.753   2.898   0.343  1.3443 -1.0893  0.4254
 6520TIP3   OH241050   0.745   5.928   1.052  0.9199 -0.3101 -0.1245
 6520TIP3    H141051   0.654   5.928   1.081  1.2924 -1.8363  1.1324
 6520TIP3    H241052   0.740   5.950   0.959 -0.6465  0.4464  0.0952
 6521TIP3   OH241053   0.131   1.920   0.227 -0.5231 -0.3928 -0.0738
 6521TIP3    H141054   0.188   1.954   0.158 -0.3585 -1.0488 -0.2695
 6521TIP3    H241055   0.188   1.911   0.304 -1.1748  2.4248  0.8429
 6522TIP3   OH241056   5.596   3.584  12.070  0.4255  0.4704  0.0372
 6522TIP3    H141057   5.506   3.604  12.097  0.9585  0.0209  2.3499
 6522TIP3    H241058   5.589   3.503  12.020 -0.5593  1.0050 -0.7192
 6523TIP3   OH241059   2.520   0.019  13.722 -0.7224  0.3861  0.2361
 6523TIP3    H141060   2.563   0.014  13.807  2.1024 -1.0241 -1.1051
 6523TIP3    H241061   2.592   0.038  13.661 -2.2393 -0.8224 -2.0684
 6524TIP3   OH241062   1.210   1.755   0.451 -0.1584 -0.3634  0.3908
 6524TIP3    H141063   1.139   1.771   0.514 -0.6702  1.1773 -0.5129
 6524TIP3    H241064   1.188   1.672   0.410 -2.0901  0.6109 -0.6664
 6525TIP3   OH241065   0.849   1.670  12.489  0.2418 -0.4348 -0.2074
 6525TIP3    H141066   0.775   1.615  12.513  0.3718 -0.2466  0.6724
 6525TIP3    H241067   0.924   1.629  12.532  0.1038  1.2599  1.7988
 6526TIP3   OH241068   1.834   0.961   2.610 -0.0415  0.1588  0.1839
 6526TIP3    H141069   1.890   0.975   2.687  0.3570  2.1635 -0.4163
 6526TIP3    H241070   1.772   1.033   2.612 -0.2842  0.0149 -1.1507
 6527TIP3   OH241071   2.773   3.113   1.063  0.0765  0.1627 -0.5058
 6527TIP3    H141072   2.854   3.149   1.026  0.3976 -0.3777 -0.3444
 6527TIP3    H241073   2.798   3.027   1.095 -0.4641  0.1683 -0.0533
 6528TIP3   OH241074   1.830   0.082   4.829 -0.2457 -0.5018  0.0012
 6528TIP3    H141075   1.860  -0.007   4.811  2.8960  0.1659  1.1627
 6528TIP3    H241076   1.818   0.121   4.742  0.3051 -1.5015 -0.5476
 6529TIP3   OH241077   6.808   2.160   1.121 -0.1083 -0.1328  0.5846
 6529TIP3    H141078   6.812   2.090   1.186 -1.2155  0.7160  1.6018
 6529TIP3    H241079   6.887   2.212   1.136  0.2798 -0.6472  0.3877
 6530TIP3   OH241080   1.270   0.979  12.610 -0.4030  0.2385  0.1335
 6530TIP3    H141081   1.310   0.975  12.524 -1.4848 -0.3577 -0.3628
 6530TIP3    H241082   1.236   1.068  12.617  0.4408  0.5536  0.3072
 6531TIP3   OH241083   0.111   3.667   5.609 -0.0819 -0.1095 -0.2152
 6531TIP3    H141084   0.035   3.616   5.640 -0.5259  0.6370 -0.0392
 6531TIP3    H241085   0.128   3.634   5.521  1.4458 -2.5663  0.8802
 6532TIP3   OH241086   0.970   0.142   2.317  0.2899  0.1771  0.0352
 6532TIP3    H141087   1.058   0.167   2.291 -0.3129  0.8658 -1.4270
 6532TIP3    H241088   0.915   0.165   2.242 -0.9525 -1.4340  0.3963
 6533TIP3   OH241089   0.425   3.258  15.321 -0.0367 -0.0261  0.0318
 6533TIP3    H141090   0.516   3.257  15.351  0.2490  0.3371 -0.8009
 6533TIP3    H241091   0.377   3.299  15.393  0.6853  1.1228 -0.1047
 6534TIP3   OH241092   0.432   5.880   3.568 -0.2843 -0.8887  0.1768
 6534TIP3    H141093   0.429   5.815   3.498 -0.1284 -1.7189  0.9313
 6534TIP3    H241094   0.525   5.901   3.578  0.0062 -2.8146  1.9676
 6535TIP3   OH241095   6.715   3.304  15.953 -0.2775 -0.4675 -0.1575
 6535TIP3    H141096   6.631   3.274  15.987 -0.3768 -1.1203 -0.9528
 6535TIP3    H241097   6.761   3.340  16.029 -1.2045 -0.2573  0.3082
 6536TIP3   OH241098   2.442   3.597   0.132 -0.3558 -0.0549 -0.4220
 6536TIP3    H141099   2.460   3.505   0.113  1.6125 -0.3442  2.1984
 6536TIP3    H241100   2.392   3.595   0.214 -0.6417  1.1948 -0.5453
 6537TIP3   OH241101   0.708   1.388   5.272 -0.3844  0.1873  0.5112
 6537TIP3    H141102   0.666   1.427   5.195  0.7779  1.5538  0.5162
 6537TIP3    H241103   0.757   1.461   5.311  1.5518 -1.2106  0.7942
 6538TIP3   OH241104   5.090   4.088  14.414 -0.0679  0.1835  0.3355
 6538TIP3    H141105   5.149   4.071  14.488  0.1632  1.0046  0.3509
 6538TIP3    H241106   5.038   4.163  14.442  0.9395  1.3637 -0.8380
 6539TIP3   OH241107   5.901   5.537  14.516  0.2093  0.0088  0.1139
 6539TIP3    H141108   5.991   5.538  14.483  0.1877 -0.5206  0.0204
 6539TIP3    H241109   5.866   5.623  14.494  0.7318  0.2654  0.2631
 6540TIP3   OH241110   3.426   2.116  14.736  0.0374  0.1600  0.0053
 6540TIP3    H141111   3.496   2.165  14.779  2.1366 -1.4484 -1.3869
 6540TIP3    H241112   3.418   2.156  14.649 -0.1810 -0.2004 -0.1427
 6541TIP3   OH241113   4.735   3.104  14.199  0.5088 -0.0128 -0.2291
 6541TIP3    H141114   4.707   3.097  14.108 -0.4556  0.2140  0.0285
 6541TIP3    H241115   4.657   3.078  14.249 -0.0179  2.7854  0.5818
 6542TIP3   OH241116   4.056   2.835  16.684  0.4723  0.1123  0.2326
 6542TIP3    H141117   3.974   2.807  16.723 -0.0037  2.5484  1.1318
 6542TIP3    H241118   4.096   2.754  16.652 -0.1615 -1.7359  3.7056
 6543TIP3   OH241119   5.240   2.347   0.143  0.5692  0.6120 -0.3510
 6543TIP3    H141120   5.335   2.356   0.137  1.0300 -0.2671  3.1243
 6543TIP3    H241121   5.225   2.252   0.145 -0.0524  0.6983  1.4204
 6544TIP3   OH241122   1.403   3.997   4.623 -0.0750 -0.4235 -0.0464
 6544TIP3    H141123   1.446   4.064   4.569  1.1287  0.0260  1.4097
 6544TIP3    H241124   1.454   3.995   4.704 -2.3253 -0.4709  1.4359
 6545TIP3   OH241125   0.533   6.484   5.002  0.1168  0.1578  0.0871
 6545TIP3    H141126   0.477   6.547   4.958  1.0409  0.2627 -0.9836
 6545TIP3    H241127   0.492   6.471   5.088 -2.2486 -0.7169 -1.0811
 6546TIP3   OH241128   1.676   2.539  10.739 -0.2706 -0.4697 -0.2696
 6546TIP3    H141129   1.742   2.603  10.764 -1.9160  1.3248 -0.3128
 6546TIP3    H241130   1.629   2.519  10.820  0.1297 -1.5443 -0.2820
 6547TIP3   OH241131   1.072   3.624  13.677  0.1114  0.5558 -0.2035
 6547TIP3    H141132   1.111   3.538  13.685 -1.7620 -0.2155  1.4809
 6547TIP3    H241133   1.015   3.618  13.600 -2.2941 -0.7849  1.5386
 6548TIP3   OH241134   4.382   3.583   4.967 -0.2347 -0.0651  0.0075
 6548TIP3    H141135   4.380   3.495   5.006 -1.2219 -0.7217 -1.4558
 6548TIP3    H241136   4.318   3.633   5.018  0.0439 -0.2923  0.5912
 6549TIP3   OH241137   1.151   5.846  14.188  0.1637  0.3716  0.3201
 6549TIP3    H141138   1.199   5.824  14.108 -0.7856  1.0841 -0.4717
 6549TIP3    H241139   1.073   5.791  14.186  0.3022  0.1469  0.9373
 6550TIP3   OH241140   4.762   3.054   5.736  0.1867  0.2776 -0.3906
 6550TIP3    H141141   4.676   3.088   5.760  0.7728  1.7066 -0.2325
 6550TIP3    H241142   4.756   2.960   5.754 -0.4350  0.7537  2.3834
 6551TIP3   OH241143   0.065   5.242  15.414 -0.3076 -0.1235 -0.5299
 6551TIP3    H141144   0.091   5.267  15.325  0.7366 -0.2386 -0.2756
 6551TIP3    H241145   0.012   5.315  15.446 -0.1855  0.1864 -1.0347
 6552TIP3   OH241146   0.234   4.624  12.320 -0.0747  0.0458  0.4121
 6552TIP3    H141147   0.178   4.700  12.307  1.1859  0.9518  0.1104
 6552TIP3    H241148   0.283   4.615  12.238  0.5697 -0.4281  0.8313
 6553TIP3   OH241149   4.067   3.176  13.355  0.1924 -0.2533 -0.1862
 6553TIP3    H141150   4.126   3.178  13.430  0.8303  0.3785 -0.6949
 6553TIP3    H241151   3.984   3.143  13.391  0.3059  0.6103  0.9218
 6554TIP3   OH241152   4.611   3.444   5.230 -0.4865 -0.1809 -0.3125
 6554TIP3    H141153   4.570   3.486   5.305 -2.7467  1.4277 -2.3165
 6554TIP3    H241154   4.565   3.360   5.221 -0.9343  0.0859 -0.5107
 6555TIP3   OH241155   5.587   0.653  15.001 -0.1155  0.2380  0.2669
 6555TIP3    H141156   5.682   0.645  15.003 -0.1082  0.0065 -0.7334
 6555TIP3    H241157   5.560   0.637  15.092  0.8169  0.6361  0.6242
 6556TIP3   OH241158   0.021   4.783   4.312  0.2560 -0.1456  0.0906
 6556TIP3    H141159   0.089   4.843   4.342 -0.5825  1.1044 -0.4248
 6556TIP3    H241160  -0.008   4.820   4.229 -0.0741 -1.4497 -0.3954
 6557TIP3   OH241161   6.160   2.755  16.568  0.4812 -0.0273 -0.6962
 6557TIP3    H141162   6.125   2.831  16.522  0.8483 -0.9533 -2.5984
 6557TIP3    H241163   6.211   2.792  16.641 -2.8612  1.4204  1.1622
 6558TIP3   OH241164   2.121   4.083  14.480  0.5711 -0.2340 -0.3302
 6558TIP3    H141165   2.105   4.094  14.574  0.7617  0.9036 -0.4151
 6558TIP3    H241166   2.035   4.092  14.440  0.7615  1.5223 -0.4271
 6559TIP3   OH241167   4.149   2.230  16.686 -0.2638  0.2960 -0.0437
 6559TIP3    H141168   4.215   2.232  16.755  1.7437  0.6556 -1.8647
 6559TIP3    H241169   4.194   2.192  16.611 -2.4084 -0.2326 -1.1472
 6560TIP3   OH241170   6.039   1.882   3.553  0.6769 -0.3591  0.0135
 6560TIP3    H141171   6.100   1.828   3.603  0.5460  0.0360  0.6238
 6560TIP3    H241172   6.028   1.837   3.470  1.8924 -0.3705 -0.1564
 6561TIP3   OH241173   0.020   6.453   2.965  0.1664 -0.5430 -0.2422
 6561TIP3    H141174  -0.030   6.533   2.951  1.9340  1.0499  1.9072
 6561TIP3    H241175  -0.027   6.406   3.033  0.8217  0.3325  0.8580
 6562TIP3   OH241176   0.732   5.258   3.948  0.2749 -0.6876  0.5980
 6562TIP3    H141177   0.780   5.178   3.930 -0.0385 -0.8174  0.3215
 6562TIP3    H241178   0.798   5.319   3.981  0.5440 -1.0027  0.6447
 6563TIP3   OH241179   5.769   3.589  15.018 -0.0026 -0.4256 -0.4079
 6563TIP3    H141180   5.706   3.546  15.076  1.8842 -0.7388  1.5406
 6563TIP3    H241181   5.764   3.540  14.936 -2.2675 -0.4124 -0.3469
 6564TIP3   OH241182   3.078   1.140   5.399  0.1452  0.0819 -0.8156
 6564TIP3    H141183   3.083   1.057   5.447  1.3657  1.0242  0.7902
 6564TIP3    H241184   3.013   1.124   5.331 -0.5312 -1.8209  0.1946
 6565TIP3   OH241185   4.397   4.816  10.611 -0.6989 -0.3868 -0.3561
 6565TIP3    H141186   4.433   4.774  10.689 -3.7376  0.3584  1.6563
 6565TIP3    H241187   4.418   4.756  10.540  1.0706 -1.7868  1.2371
 6566TIP3   OH241188   1.860   4.486   3.648 -0.0151 -0.2195  0.3357
 6566TIP3    H141189   1.953   4.497   3.630 -0.2146  1.4232  0.1458
 6566TIP3    H241190   1.856   4.415   3.712  1.4266  0.1314  0.8588
 6567TIP3   OH241191   2.411   3.261  15.454  0.7106  0.7186 -0.0762
 6567TIP3    H141192   2.390   3.196  15.522 -0.7102  0.9474 -0.2642
 6567TIP3    H241193   2.501   3.288  15.474  0.2102  1.0517  1.9605
 6568TIP3   OH241194   2.927   3.296  17.116  0.2096 -0.0435 -0.0678
 6568TIP3    H141195   2.852   3.248  17.152  0.7283  0.0260  1.1811
 6568TIP3    H241196   2.920   3.285  17.021 -1.5359  0.2081  0.0037
 6569TIP3   OH241197   5.372   5.389  14.224 -0.2596 -0.2865 -0.3085
 6569TIP3    H141198   5.444   5.327  14.216  0.2217  0.3687 -1.3053
 6569TIP3    H241199   5.293   5.335  14.226  0.0913 -0.9268 -2.0118
 6570TIP3   OH241200   3.736   0.559   5.263  0.3254  0.1910 -0.6439
 6570TIP3    H141201   3.829   0.576   5.247  1.0208 -2.7993 -0.4063
 6570TIP3    H241202   3.736   0.484   5.323 -2.2518  2.7017  2.9312
 6571TIP3   OH241203   3.942   3.368   1.744  0.4222  0.2848  0.0794
 6571TIP3    H141204   4.029   3.350   1.708  0.3994  2.0561 -0.9883
 6571TIP3    H241205   3.956   3.373   1.839  1.1251 -1.1264  0.0875
 6572TIP3   OH241206   3.481   6.374   2.367  0.2228 -0.2345  0.6215
 6572TIP3    H141207   3.485   6.280   2.387 -0.0651 -0.6578 -1.1046
 6572TIP3    H241208   3.573   6.402   2.371  0.6512 -1.1805 -1.2074
 6573TIP3   OH241209   2.610   3.219  15.208  0.4795  0.0623 -0.4224
 6573TIP3    H141210   2.678   3.227  15.141 -0.2115  0.9677 -1.0423
 6573TIP3    H241211   2.627   3.291  15.269  1.0167 -0.6704  0.3024
 6574TIP3   OH241212   5.916   2.911   2.908  0.1685 -0.4058  0.2889
 6574TIP3    H141213   5.845   2.848   2.895 -1.5529  1.5078 -0.1687
 6574TIP3    H241214   5.872   2.996   2.917  2.4362  1.0571 -1.1548
 6575TIP3   OH241215   5.964   0.552   3.413  0.3265  0.2675  0.1026
 6575TIP3    H141216   5.955   0.457   3.412  0.4549  0.2517 -0.7393
 6575TIP3    H241217   6.003   0.572   3.497  0.1534 -0.4128  0.3507
 6576TIP3   OH241218   3.998   0.729   3.826  0.3782  0.0149 -0.1532
 6576TIP3    H141219   3.969   0.804   3.774  0.6013  0.2851  0.1119
 6576TIP3    H241220   4.006   0.658   3.763 -0.3118  0.0808 -0.3268
 6577TIP3   OH241221   5.405   4.076  13.201 -0.2024  0.2198  0.1190
 6577TIP3    H141222   5.339   4.103  13.136 -1.5897  0.4997  1.5900
 6577TIP3    H241223   5.394   3.982  13.210  1.4552 -0.1982 -1.5601
 6578TIP3   OH241224   6.615   6.021   2.184 -0.0262 -0.0253  0.2828
 6578TIP3    H141225   6.535   5.989   2.142  0.0580 -0.4884  0.4664
 6578TIP3    H241226   6.587   6.046   2.272  0.1670 -0.8811  0.5948
 6579TIP3   OH241227   1.335   4.325  14.838  0.2211  0.0055 -0.2508
 6579TIP3    H141228   1.304   4.243  14.878  0.0772  0.7044  1.1224
 6579TIP3    H241229   1.419   4.343  14.880 -0.5026  1.3926  0.6831
 6580TIP3   OH241230   1.251   0.415   2.050  0.5164  0.5573  0.3142
 6580TIP3    H141231   1.284   0.490   2.002 -0.1704  0.3895 -0.4320
 6580TIP3    H241232   1.188   0.451   2.112  0.6950  0.6652  0.4344
 6581TIP3   OH241233   0.751   5.455  12.302  0.6005 -0.6266 -0.5653
 6581TIP3    H141234   0.820   5.406  12.257 -0.6757 -4.6459  1.3887
 6581TIP3    H241235   0.670   5.424  12.261 -0.2616  0.3353  0.3629
 6582TIP3   OH241236   0.815   3.957  16.888  0.2467 -0.1051  0.0678
 6582TIP3    H141237   0.882   3.899  16.852  1.3497  0.9744  0.3426
 6582TIP3    H241238   0.782   4.005  16.812  1.1844  0.7677  0.2035
 6583TIP3   OH241239   3.111   0.536   1.641  0.6987 -0.1192 -0.2511
 6583TIP3    H141240   3.127   0.454   1.688  1.6259  0.7498  1.0219
 6583TIP3    H241241   3.137   0.517   1.551  1.0616 -1.1704  0.0574
 6584TIP3   OH241242   2.879   4.675   1.052 -0.1877 -0.5508 -0.1204
 6584TIP3    H141243   2.794   4.639   1.075 -0.7537  1.1211  0.5664
 6584TIP3    H241244   2.911   4.620   0.980 -1.4569 -1.6995  0.1636
 6585TIP3   OH241245   1.199   6.091  14.771  0.1344  0.1844 -0.3988
 6585TIP3    H141246   1.235   6.175  14.798  0.2910 -0.0861  0.2460
 6585TIP3    H241247   1.203   6.036  14.850 -0.2118 -0.3433 -0.7401
 6586TIP3   OH241248   3.393   2.018  16.111 -0.6857  0.2442 -0.1221
 6586TIP3    H141249   3.443   2.041  16.190 -0.1237  0.5923 -0.5672
 6586TIP3    H241250   3.396   2.098  16.057 -2.4414  0.5669  0.1959
 6587TIP3   OH241251   2.931   5.455  15.676  0.0032  0.1086  0.1038
 6587TIP3    H141252   2.937   5.546  15.704  0.8957 -0.4582  1.8820
 6587TIP3    H241253   2.900   5.408  15.753  0.7854 -1.2739 -0.3952
 6588TIP3   OH241254   0.851   5.605   3.762 -0.6488 -0.0206  0.5089
 6588TIP3    H141255   0.847   5.700   3.766 -0.9007 -0.0550  1.3559
 6588TIP3    H241256   0.771   5.579   3.716 -1.0379  0.1466  1.0749
 6589TIP3   OH241257   2.817   6.237   2.679 -0.3087  0.6112 -0.3239
 6589TIP3    H141258   2.867   6.156   2.686 -0.3016  0.4457 -1.8744
 6589TIP3    H241259   2.881   6.302   2.648 -0.1562  1.4016  1.5292
 6590TIP3   OH241260   5.029   6.278  10.492  0.3623  0.1575  0.6320
 6590TIP3    H141261   5.006   6.285  10.400 -0.1672  0.7031  0.7930
 6590TIP3    H241262   4.946   6.292  10.538  1.0478  2.4787  1.2595
 6591TIP3   OH241263   0.507   0.488  12.659  0.2318  0.6560 -0.7088
 6591TIP3    H141264   0.494   0.583  12.658 -1.2445  0.5718  1.8358
 6591TIP3    H241265   0.536   0.468  12.748 -0.1678 -1.3751 -0.9776
 6592TIP3   OH241266   1.097   3.695   3.437 -0.0892 -0.5517  0.5312
 6592TIP3    H141267   1.131   3.688   3.347  1.2659  1.7354  0.7962
 6592TIP3    H241268   1.034   3.766   3.433  0.4262 -0.0234  1.5047
 6593TIP3   OH241269   4.802   5.042  14.909 -0.4776 -0.3051 -0.2112
 6593TIP3    H141270   4.784   4.954  14.941  0.0396  0.0269  1.0802
 6593TIP3    H241271   4.877   5.032  14.850  1.9773 -0.3607  2.6698
 6594TIP3   OH241272   2.990   5.540   0.829 -0.1384  0.2548  0.4062
 6594TIP3    H141273   2.938   5.483   0.772  0.5456 -0.4036  0.4261
 6594TIP3    H241274   3.074   5.495   0.838  0.3564  1.1848  0.5666
 6595TIP3   OH241275   3.122   3.284   5.434  0.0634 -0.1363 -0.8851
 6595TIP3    H141276   3.065   3.221   5.478  0.7250 -0.1188  0.0245
 6595TIP3    H241277   3.064   3.355   5.407 -0.2200  0.3345  0.8730
 6596TIP3   OH241278   6.802   1.951   2.024  0.2567  0.3856  0.4385
 6596TIP3    H141279   6.823   2.021   1.963 -0.7700  0.2055 -0.1461
 6596TIP3    H241280   6.712   1.968   2.051  0.2342 -0.3144  0.8407
 6597TIP3   OH241281   4.776   5.874   3.007 -0.4353  0.9184  0.1304
 6597TIP3    H141282   4.861   5.836   2.982 -1.5414 -1.7643  0.0654
 6597TIP3    H241283   4.741   5.910   2.925  0.2077  1.1397 -0.0497
 6598TIP3   OH241284   0.414   5.267   2.546 -0.2548 -0.2876  0.0951
 6598TIP3    H141285   0.338   5.235   2.497  1.4009 -0.9914 -2.2304
 6598TIP3    H241286   0.489   5.242   2.492  1.4930  3.6743  0.3181
 6599TIP3   OH241287   6.666   6.380  13.725  0.7542  0.8109 -0.0704
 6599TIP3    H141288   6.695   6.471  13.733  1.2171  0.6299  0.3715
 6599TIP3    H241289   6.724   6.331  13.784 -0.4879  0.4336  0.8883
 6600TIP3   OH241290   6.279   0.786  13.607 -0.1055 -0.0305 -0.6636
 6600TIP3    H141291   6.252   0.778  13.516  2.6302 -0.3301 -1.5275
 6600TIP3    H241292   6.343   0.857  13.607  0.6949 -0.7033  0.8251
 6601TIP3   OH241293   5.527   6.507  14.875 -0.4739 -0.2373  0.0513
 6601TIP3    H141294   5.498   6.417  14.864 -0.8389 -0.2852  1.2144
 6601TIP3    H241295   5.592   6.504  14.945  0.3226  0.2655 -0.6402
 6602TIP3   OH241296   5.104   4.732   3.265 -0.1832  0.1303  0.8719
 6602TIP3    H141297   5.158   4.755   3.189 -0.7674  3.5168  1.3340
 6602TIP3    H241298   5.019   4.708   3.227  0.7580 -2.8008  0.3086
 6603TIP3   OH241299   1.213   5.723   3.027 -0.2683  0.1771 -0.2731
 6603TIP3    H141300   1.227   5.700   3.119  0.9967  3.7935  0.5933
 6603TIP3    H241301   1.126   5.762   3.025 -0.4369 -0.2104 -0.7103
 6604TIP3   OH241302   5.441   0.931   5.057  0.3751 -0.0949  0.8446
 6604TIP3    H141303   5.347   0.919   5.046  0.3652 -1.5676  2.1082
 6604TIP3    H241304   5.461   0.888   5.140  2.2104 -0.0669  0.4644
 6605TIP3   OH241305   0.434   6.315   2.998  0.3628 -0.3934  0.2500
 6605TIP3    H141306   0.425   6.338   3.090  0.0175 -0.7767  0.3141
 6605TIP3    H241307   0.528   6.302   2.985  0.6981  1.9714 -0.0217
 6606TIP3   OH241308   1.945   4.474   6.200 -1.2012 -0.9013  0.2164
 6606TIP3    H141309   1.918   4.565   6.189  1.4041 -0.0255  0.3493
 6606TIP3    H241310   1.945   4.460   6.294 -0.0674 -0.4960  0.2872
 6607TIP3   OH241311   0.775   3.142   4.660  0.1655  0.2547 -0.2414
 6607TIP3    H141312   0.825   3.123   4.739 -1.0580  0.0630  0.5284
 6607TIP3    H241313   0.708   3.205   4.688 -1.2400 -0.9477 -0.7265
 6608TIP3   OH241314   1.076   6.419  11.587  0.1066  0.0786  0.4691
 6608TIP3    H141315   1.096   6.442  11.678  1.4901  0.0104  0.2165
 6608TIP3    H241316   1.113   6.331  11.577 -3.0030 -1.3784  0.7597
 6609TIP3   OH241317   1.367   3.719   2.256  0.6850  0.6789 -0.0873
 6609TIP3    H141318   1.318   3.798   2.232  0.7030  0.9254  0.6610
 6609TIP3    H241319   1.301   3.652   2.271  0.4880  1.2113  1.6724
 6610TIP3   OH241320   2.886   4.388   1.453 -0.0308  0.1984 -0.3097
 6610TIP3    H141321   2.978   4.399   1.430 -0.3614  2.5989 -0.8067
 6610TIP3    H241322   2.865   4.465   1.506 -1.9226  0.1299 -0.8686
 6611TIP3   OH241323   1.946   2.380   1.860 -0.0789 -0.0839  0.3471
 6611TIP3    H141324   2.021   2.438   1.872 -0.6185  0.4672  1.1432
 6611TIP3    H241325   1.890   2.397   1.935  0.0125 -2.0495  0.9249
 6612TIP3   OH241326   4.217   6.418  17.050 -0.5289 -0.3131  0.2873
 6612TIP3    H141327   4.191   6.470  17.126 -1.1807 -0.9772  0.5254
 6612TIP3    H241328   4.169   6.456  16.977  0.1587  0.3773  0.1864
 6613TIP3   OH241329   6.130   5.543  12.012  0.3174  0.1107 -0.0012
 6613TIP3    H141330   6.050   5.573  12.056 -0.5041 -1.2494 -0.5400
 6613TIP3    H241331   6.161   5.620  11.964 -2.9231 -0.2674 -3.1031
 6614TIP3   OH241332   0.917   0.525  10.671 -0.1589  0.4255 -0.3064
 6614TIP3    H141333   0.918   0.475  10.590  0.4688  0.9704 -0.6449
 6614TIP3    H241334   0.940   0.615  10.644 -2.1165  1.1058  0.1532
 6615TIP3   OH241335   3.717   2.069   3.489 -0.0572  0.3601  0.3566
 6615TIP3    H141336   3.642   2.099   3.437 -0.1684 -0.9095 -0.2499
 6615TIP3    H241337   3.694   1.979   3.515  2.2587 -1.0562 -1.9519
 6616TIP3   OH241338   0.863   2.411  14.308  0.0521  0.3555  0.4980
 6616TIP3    H141339   0.876   2.391  14.215  0.2973 -1.3340  0.8634
 6616TIP3    H241340   0.789   2.470  14.309 -0.4424 -0.1971 -0.7397
 6617TIP3   OH241341   1.600   4.119   3.808  0.0887  0.2018  0.0321
 6617TIP3    H141342   1.609   4.089   3.718  2.0146 -0.1610  0.3160
 6617TIP3    H241343   1.618   4.041   3.861 -2.0650  0.1281  0.7827
 6618TIP3   OH241344   0.216   4.693   5.144 -0.1030  0.0524 -0.3545
 6618TIP3    H141345   0.205   4.642   5.063 -0.0118 -0.7612  0.1374
 6618TIP3    H241346   0.296   4.658   5.184  0.2396  0.9372 -0.2626
 6619TIP3   OH241347   0.665   1.064  11.595  0.0551  0.0996  0.7937
 6619TIP3    H141348   0.576   1.089  11.620 -0.4276  0.4806 -1.1552
 6619TIP3    H241349   0.665   0.968  11.599 -0.7274  0.0576 -0.0866
 6620TIP3   OH241350   6.728   4.025  15.907 -0.2350  0.0752  0.1298
 6620TIP3    H141351   6.760   3.963  15.842 -4.1541 -0.2148 -1.7845
 6620TIP3    H241352   6.750   4.111  15.872 -0.4807 -0.1214 -0.5133
 6621TIP3   OH241353   2.071   6.465  15.040  0.1250  0.1600  0.3367
 6621TIP3    H141354   2.049   6.458  15.132 -0.4513  0.1975  0.2077
 6621TIP3    H241355   2.097   6.377  15.014 -0.3497  0.0016  0.3833
 6622TIP3   OH241356   0.021   0.640  16.150 -0.8961 -0.1869 -0.1347
 6622TIP3    H141357  -0.018   0.633  16.237  1.0188 -0.3527  0.7594
 6622TIP3    H241358   0.112   0.667  16.166 -1.0889  2.0708 -2.2038
 6623TIP3   OH241359   2.844   6.647  11.845  0.0770 -0.1068 -0.7347
 6623TIP3    H141360   2.751   6.624  11.847  0.4990 -2.0556 -1.3648
 6623TIP3    H241361   2.889   6.563  11.830  1.8451  0.9824 -1.8983
 6624TIP3   OH241362   2.077   6.238   1.867 -0.2973 -0.3867 -0.3616
 6624TIP3    H141363   1.988   6.207   1.847 -0.9908  1.0020  0.4078
 6624TIP3    H241364   2.126   6.221   1.787 -1.7328  0.4583 -1.4853
 6625TIP3   OH241365   3.128   1.453  16.490 -0.0452 -0.2685 -0.5142
 6625TIP3    H141366   3.161   1.533  16.531  0.5933 -1.8479  2.3170
 6625TIP3    H241367   3.034   1.466  16.484 -0.3650 -0.3598  2.7431
 6626TIP3   OH241368   4.738   2.240   4.032  0.0063  0.1741 -0.3332
 6626TIP3    H141369   4.703   2.256   3.944 -1.1862 -0.8091 -0.0733
 6626TIP3    H241370   4.818   2.189   4.016  0.6618  1.3261 -0.8861
 6627TIP3   OH241371   3.443   2.897   1.633 -0.0852  0.1046  0.1893
 6627TIP3    H141372   3.380   2.924   1.700  0.3772 -0.3033  0.7996
 6627TIP3    H241373   3.393   2.898   1.551 -1.5483 -2.4475  0.9597
 6628TIP3   OH241374   2.855   4.435   4.340 -0.1506 -0.2636  0.6318
 6628TIP3    H141375   2.934   4.429   4.393 -0.8117 -0.6513  1.5922
 6628TIP3    H241376   2.841   4.346   4.307  0.4822  0.0501 -0.5681
 6629TIP3   OH241377   5.085   1.220  11.827 -0.5906 -0.0151  0.4442
 6629TIP3    H141378   5.139   1.225  11.748 -0.5132 -0.9102  0.4309
 6629TIP3    H241379   5.093   1.129  11.856 -3.0297 -0.5202 -0.2406
 6630TIP3   OH241380   6.037   6.134   0.831  0.1786 -0.2288 -0.0823
 6630TIP3    H141381   5.999   6.222   0.838 -0.7127 -0.7150  2.0658
 6630TIP3    H241382   6.117   6.138   0.882 -0.6638 -1.0241  1.3665
 6631TIP3   OH241383   4.059   6.345  13.616  0.1895 -0.0589 -0.0608
 6631TIP3    H141384   4.041   6.393  13.535 -2.3331  1.3561  1.2277
 6631TIP3    H241385   3.986   6.284  13.623 -0.4218  0.8415  1.8412
 6632TIP3   OH241386   1.074   6.796   4.196  0.1743  1.3246  0.1674
 6632TIP3    H141387   1.142   6.739   4.161 -1.3575 -0.8366  0.4672
 6632TIP3    H241388   1.053   6.855   4.124  1.8217  1.5544 -0.1632
 6633TIP3   OH241389   2.980   1.361   1.036  0.5650 -0.9158  0.5190
 6633TIP3    H141390   3.044   1.422   1.073 -1.4504  0.7607  1.4311
 6633TIP3    H241391   2.896   1.389   1.072 -1.7006  0.9005 -5.0227
 6634TIP3   OH241392   5.961   6.065  15.651  0.8863 -0.5921 -0.3246
 6634TIP3    H141393   5.873   6.037  15.678  1.1865 -1.8088 -0.5840
 6634TIP3    H241394   5.994   6.115  15.726  0.2550 -0.7339  0.0546
 6635TIP3   OH241395   3.427   3.706   4.828 -0.0044 -0.1659  0.1559
 6635TIP3    H141396   3.384   3.639   4.881 -0.0648 -0.6219 -0.4657
 6635TIP3    H241397   3.367   3.781   4.831  0.0180 -0.1657  0.7702
 6636TIP3   OH241398   4.676   2.056  16.561  0.3851  0.5453 -0.6452
 6636TIP3    H141399   4.728   2.097  16.493  1.5483  0.7345  0.3261
 6636TIP3    H241400   4.721   2.078  16.643  0.4886 -1.7560  0.0042
 6637TIP3   OH241401   1.414   1.211  15.485 -0.1568  0.3456  0.4838
 6637TIP3    H141402   1.493   1.179  15.529 -0.7514 -0.2931  1.1053
 6637TIP3    H241403   1.403   1.152  15.410 -1.3754 -1.1247  1.7507
 6638TIP3   OH241404   2.557   0.281  14.516 -0.3166  0.0375  0.5323
 6638TIP3    H141405   2.492   0.214  14.495 -0.5929  0.0016  1.4833
 6638TIP3    H241406   2.509   0.363  14.514 -0.3799  0.0182  1.1668
 6639TIP3   OH241407   6.787   2.375  12.181 -0.0407  0.8365 -0.1243
 6639TIP3    H141408   6.838   2.368  12.101 -1.1802  0.6830 -0.8694
 6639TIP3    H241409   6.756   2.285  12.197 -0.5161  1.0169 -0.0092
 6640TIP3   OH241410   1.507   5.984  12.434  0.4123  0.3432  0.0679
 6640TIP3    H141411   1.586   5.975  12.381  0.4136 -2.4940  0.4260
 6640TIP3    H241412   1.472   5.895  12.442 -1.1148  1.0568  2.4932
 6641TIP3   OH241413   0.960   0.753   3.859  0.0135 -0.2428  0.1879
 6641TIP3    H141414   0.987   0.662   3.849 -3.3643 -1.4103  0.6095
 6641TIP3    H241415   0.972   0.771   3.952 -0.9933 -0.8909  0.4544
 6642TIP3   OH241416   4.784   3.864   6.332 -0.3924 -0.1733 -0.1573
 6642TIP3    H141417   4.872   3.836   6.308 -0.8419  0.7894 -3.4902
 6642TIP3    H241418   4.726   3.796   6.297 -1.0442  0.1179  0.3255
 6643TIP3   OH241419   3.822   6.581   4.243  0.3366 -0.2596 -0.0698
 6643TIP3    H141420   3.784   6.518   4.305 -0.9324  0.7594  0.2463
 6643TIP3    H241421   3.914   6.588   4.270  0.0061 -0.4425  1.2027
 6644TIP3   OH241422   1.073   3.386  15.653  0.1256  0.1834  0.0146
 6644TIP3    H141423   1.045   3.370  15.563  0.5776 -1.6946  0.1807
 6644TIP3    H241424   1.167   3.403  15.646  0.8137 -2.9855  0.3686
 6645TIP3   OH241425   2.124   3.464  12.692  0.2852 -0.1643  0.9027
 6645TIP3    H141426   2.154   3.388  12.642 -1.2553  0.5286 -1.1720
 6645TIP3    H241427   2.099   3.428  12.777  1.7873 -1.5786  0.7825
 6646TIP3   OH241428   4.668   1.841  14.920  0.1313  0.0928 -0.8226
 6646TIP3    H141429   4.635   1.913  14.867  0.0479  0.8684  0.2576
 6646TIP3    H241430   4.704   1.883  14.998  1.1525 -0.9469 -0.7055
 6647TIP3   OH241431   1.864   2.411  10.561 -0.4401  0.3289  0.5359
 6647TIP3    H141432   1.799   2.421  10.630 -0.5313 -0.0478  0.5118
 6647TIP3    H241433   1.909   2.329  10.583 -1.3640 -0.5176 -0.5543
 6648TIP3   OH241434   1.257   0.493   6.014 -0.1288 -0.3087  0.1299
 6648TIP3    H141435   1.271   0.401   6.037  1.0341 -0.1420  0.1577
 6648TIP3    H241436   1.197   0.525   6.081  0.8332 -0.6087  1.1623
 6649TIP3   OH241437   4.028   1.696   1.301 -0.1274 -0.2359  0.1712
 6649TIP3    H141438   4.007   1.743   1.220  0.2366 -1.6440 -0.8008
 6649TIP3    H241439   4.124   1.699   1.306 -0.1439 -0.2272  0.5044
 6650TIP3   OH241440   4.084   6.742   6.466 -0.1590  0.4544  0.2224
 6650TIP3    H141441   4.058   6.718   6.555  0.3460 -1.4721 -0.1038
 6650TIP3    H241442   4.011   6.794   6.432 -0.4857  0.9603  1.6415
 6651TIP3   OH241443   4.455   0.086  13.094 -0.1215  0.2150  0.0535
 6651TIP3    H141444   4.405   0.137  13.030  0.6472  0.8684 -0.0555
 6651TIP3    H241445   4.515   0.033  13.040 -0.8540 -0.7500  0.1707
 6652TIP3   OH241446   2.489   2.130   0.552 -0.3866 -0.1143 -0.1361
 6652TIP3    H141447   2.521   2.040   0.564 -2.1250 -0.8304 -0.5595
 6652TIP3    H241448   2.396   2.120   0.534 -0.2517  1.6374 -2.2638
 6653TIP3   OH241449   1.604   2.619  12.423  0.0208 -0.0109  0.2831
 6653TIP3    H141450   1.668   2.610  12.352  1.5137 -0.7314  1.6569
 6653TIP3    H241451   1.522   2.639  12.378  0.7628 -1.0750 -1.7087
 6654TIP3   OH241452   3.415   2.283   2.783 -0.1214 -0.1488 -0.6695
 6654TIP3    H141453   3.369   2.293   2.867 -0.2737 -0.6314 -0.6942
 6654TIP3    H241454   3.419   2.189   2.768  0.6912 -0.1049 -0.7771
 6655TIP3   OH241455   5.069   3.636  14.049  0.6484 -0.3021  0.0851
 6655TIP3    H141456   5.075   3.709  13.987  2.6525 -0.6149 -0.1500
 6655TIP3    H241457   4.982   3.645  14.087  0.3072  1.3741 -0.9625
 6656TIP3   OH241458   4.788   3.798   4.710 -0.2003  0.2296  0.0269
 6656TIP3    H141459   4.734   3.773   4.785 -0.0445  2.1397  0.8354
 6656TIP3    H241460   4.725   3.818   4.640 -0.5110  1.3211  0.6025
 6657TIP3   OH241461   1.009   5.207  11.761 -0.1223  0.1176 -0.4575
 6657TIP3    H141462   0.958   5.272  11.809 -1.1210 -1.7950  1.2233
 6657TIP3    H241463   1.007   5.237  11.670  0.7284  3.1747  0.4382
 6658TIP3   OH241464   4.299   4.909  16.935 -0.1878  0.0348 -0.1156
 6658TIP3    H141465   4.297   4.822  16.974 -1.5003  0.2210  0.2772
 6658TIP3    H241466   4.227   4.909  16.873  0.6732  0.3966 -1.1495
 6659TIP3   OH241467   6.473   6.699  17.114 -0.1096  0.1465  0.1412
 6659TIP3    H141468   6.546   6.686  17.054 -0.6651 -3.5590  0.0435
 6659TIP3    H241469   6.396   6.703  17.057 -0.5240 -2.2649  0.4350
 6660TIP3   OH241470   2.690   0.472   4.167 -0.3939 -0.0143 -0.0805
 6660TIP3    H141471   2.684   0.450   4.260  0.2482 -0.4432 -0.1399
 6660TIP3    H241472   2.668   0.565   4.163  1.0141  0.3712  0.6885
 6661TIP3   OH241473   3.737   1.615  10.267  0.2368 -0.9493 -0.6902
 6661TIP3    H141474   3.818   1.655  10.233  0.2703 -0.9913 -0.6592
 6661TIP3    H241475   3.765   1.566  10.344  0.0463 -0.2405 -0.1507
 6662TIP3   OH241476   1.725   0.944   1.025 -0.2563  0.2307  0.0780
 6662TIP3    H141477   1.729   1.039   1.018 -1.4475  0.2457 -0.7678
 6662TIP3    H241478   1.646   0.920   0.976 -1.3422 -0.9768  2.2385
 6663TIP3   OH241479   2.881   2.927  14.463 -0.0357 -0.7046 -0.2122
 6663TIP3    H141480   2.957   2.905  14.409 -0.1187  1.4127 -1.2841
 6663TIP3    H241481   2.898   2.884  14.547  2.4648 -0.1609 -0.3603
 6664TIP3   OH241482   6.296   3.228  12.438 -0.1720 -0.6183 -0.1019
 6664TIP3    H141483   6.386   3.256  12.456  0.7296 -1.3994 -2.8826
 6664TIP3    H241484   6.251   3.236  12.522  2.1349  1.0802  1.0779
 6665TIP3   OH241485   3.954   4.356   3.840  0.0289  0.0048  0.0536
 6665TIP3    H141486   3.883   4.296   3.864 -0.8471  0.9165 -0.1793
 6665TIP3    H241487   3.990   4.319   3.759 -1.1099  0.2819 -0.5941
 6666TIP3   OH241488   4.294   5.060   1.769  0.1314  0.6023 -0.1193
 6666TIP3    H141489   4.335   5.137   1.730  0.8184  0.2224 -0.1642
 6666TIP3    H241490   4.200   5.073   1.756 -0.0463  2.9251  2.5578
 6667TIP3   OH241491   2.969   2.873  14.704  0.1387  0.1429 -0.3843
 6667TIP3    H141492   2.909   2.808  14.741  0.9363  0.1748  1.0228
 6667TIP3    H241493   2.960   2.949  14.761  0.9240  0.4418 -0.6468
 6668TIP3   OH241494   3.645   2.312   1.614 -0.2733  0.4967  0.0734
 6668TIP3    H141495   3.574   2.356   1.662 -1.2864 -1.7999  0.8026
 6668TIP3    H241496   3.724   2.335   1.663 -1.0380 -0.1082  1.6500
 6669TIP3   OH241497   6.832   4.607  12.450  0.2099 -0.3521  0.7125
 6669TIP3    H141498   6.924   4.631  12.460 -0.0787  0.3624  1.8478
 6669TIP3    H241499   6.806   4.572  12.536 -1.1521  1.5396  1.1358
 6670TIP3   OH241500   5.417   2.373  14.805 -0.8253  0.3808  0.2717
 6670TIP3    H141501   5.434   2.324  14.725  1.6401 -2.4639  2.3025
 6670TIP3    H241502   5.340   2.331  14.843 -0.0569 -0.4945  0.9092
 6671TIP3   OH241503   4.404   1.803   3.840 -0.2229  0.2711  0.1431
 6671TIP3    H141504   4.356   1.882   3.813 -1.0745  1.1754  3.7546
 6671TIP3    H241505   4.494   1.821   3.815 -0.4412  2.3544  0.6151
 6672TIP3   OH241506   3.369   2.423   1.625  0.0775  0.8797  0.1055
 6672TIP3    H141507   3.359   2.420   1.720  1.3876  2.5054  0.3493
 6672TIP3    H241508   3.343   2.336   1.595 -0.3170  0.3176  1.9507
 6673TIP3   OH241509   1.630   2.894  10.862  0.7201  0.2636  0.1499
 6673TIP3    H141510   1.665   2.817  10.816 -1.5154 -0.4822 -0.4523
 6673TIP3    H241511   1.630   2.963  10.796 -1.3160 -0.4701 -0.7104
 6674TIP3   OH241512   3.175   5.562  16.578  0.1295 -0.0617  0.3680
 6674TIP3    H141513   3.227   5.549  16.499  1.9216 -0.2329  1.5336
 6674TIP3    H241514   3.087   5.532  16.554  0.4785  0.4537 -1.7186
 6675TIP3   OH241515   6.097   2.588  13.775  0.4323  0.0370 -0.2857
 6675TIP3    H141516   6.054   2.502  13.772 -0.1220  0.3264 -0.7432
 6675TIP3    H241517   6.190   2.568  13.773  0.3055 -0.5372 -1.1829
 6676TIP3   OH241518   6.598   0.297   3.138  0.1787 -0.1117  0.3855
 6676TIP3    H141519   6.570   0.214   3.177 -0.9472  0.0994  0.0374
 6676TIP3    H241520   6.542   0.363   3.178  0.2945  0.3375 -0.1826
 6677TIP3   OH241521   3.508   5.957  12.225 -0.2422  0.6379 -0.2945
 6677TIP3    H141522   3.429   5.980  12.272 -0.6747 -1.0030 -0.1536
 6677TIP3    H241523   3.489   5.978  12.133 -1.0195 -0.1704 -0.3234
 6678TIP3   OH241524   3.068   6.729   6.392  0.0276  0.0058  0.2192
 6678TIP3    H141525   3.111   6.811   6.367 -0.6296  0.3346  0.1294
 6678TIP3    H241526   3.051   6.739   6.486  0.1505 -0.1217  0.2542
 6679TIP3   OH241527   1.864   2.092  16.176  0.2091  0.3544 -0.5321
 6679TIP3    H141528   1.791   2.034  16.199 -0.4594  0.7993 -1.4803
 6679TIP3    H241529   1.860   2.162  16.241  0.8753 -0.5194  0.4769
 6680TIP3   OH241530   0.830   1.210   3.565  0.4949 -0.4307  0.4477
 6680TIP3    H141531   0.862   1.126   3.597 -0.0421 -0.7379  0.1960
 6680TIP3    H241532   0.808   1.259   3.644  0.7759 -0.5383  0.5934
 6681TIP3   OH241533   5.135   2.034  13.675 -0.1795  0.3507  0.5396
 6681TIP3    H141534   5.230   2.032  13.661  0.3293 -3.6185  2.8429
 6681TIP3    H241535   5.097   2.011  13.590  1.1596 -0.6844  0.1905
 6682TIP3   OH241536   1.714   2.454   3.540  0.0784  0.3756  0.2391
 6682TIP3    H141537   1.772   2.453   3.464 -0.2995 -1.3410 -0.0647
 6682TIP3    H241538   1.745   2.382   3.595 -2.5009 -1.5070 -0.5804
 6683TIP3   OH241539   3.897   1.600   4.388 -0.2631  0.4984 -0.1801
 6683TIP3    H141540   3.927   1.689   4.370  0.2419  0.5995  1.0886
 6683TIP3    H241541   3.839   1.608   4.464  1.1484 -0.4478  1.0541
 6684TIP3   OH241542   6.206   5.957  16.937 -0.1595 -0.1600  0.2291
 6684TIP3    H141543   6.200   5.931  16.845 -2.9873 -0.8879  0.5228
 6684TIP3    H241544   6.296   5.938  16.962  0.5007 -0.5439 -2.1947
 6685TIP3   OH241545   1.586   5.241   1.328  0.1338  0.2619 -0.0431
 6685TIP3    H141546   1.601   5.236   1.422 -0.0153  2.6433  0.1740
 6685TIP3    H241547   1.490   5.241   1.319  0.1468  0.1812 -0.1911
 6686TIP3   OH241548   0.325   3.777  11.132 -0.3286 -0.3242  0.6820
 6686TIP3    H141549   0.291   3.810  11.048  0.6278  0.8971  0.7582
 6686TIP3    H241550   0.310   3.848  11.194  1.5577 -0.0640  0.9061
 6687TIP3   OH241551   3.490   5.079  11.786  0.1435  0.1273  0.0953
 6687TIP3    H141552   3.440   5.073  11.704  0.9922 -0.5162 -0.3943
 6687TIP3    H241553   3.581   5.077  11.758  0.4644  1.0868  0.9881
 6688TIP3   OH241554   5.743   4.222  13.464  0.2379 -0.1939 -0.2281
 6688TIP3    H141555   5.696   4.239  13.546  0.1674 -0.5562 -0.1918
 6688TIP3    H241556   5.717   4.294  13.407 -0.0746 -0.1866 -0.0824
 6689TIP3   OH241557   3.198   0.169  11.565 -0.1560 -0.5955 -0.1156
 6689TIP3    H141558   3.238   0.082  11.571 -2.1086 -1.6661 -1.4773
 6689TIP3    H241559   3.121   0.156  11.509 -0.6920  1.9588 -0.0841
 6690TIP3   OH241560   4.148   1.912   1.495 -0.3948 -0.4562 -0.0926
 6690TIP3    H141561   4.168   1.851   1.566 -3.7942 -0.9786  0.6288
 6690TIP3    H241562   4.192   1.877   1.418 -1.3897 -3.3042  0.5264
 6691TIP3   OH241563   6.068   4.723  13.969 -0.2775 -0.3427 -0.2963
 6691TIP3    H141564   5.977   4.736  13.942 -0.2012  0.1654 -0.3161
 6691TIP3    H241565   6.096   4.645  13.923 -0.9483 -0.9596  0.3165
 6692TIP3   OH241566   5.381   0.052  16.520  0.4155  0.2190 -0.0590
 6692TIP3    H141567   5.411   0.100  16.443 -0.0645 -1.6355 -1.4960
 6692TIP3    H241568   5.288   0.073  16.527  0.3271 -0.0504 -0.3661
 6693TIP3   OH241569   6.249   4.051  12.098  0.0807  0.1381  0.1985
 6693TIP3    H141570   6.245   3.989  12.171  1.9130 -1.0274 -0.5975
 6693TIP3    H241571   6.211   4.004  12.024 -0.1168  0.6296 -0.0169
 6694TIP3   OH241572   5.122   0.635   3.643 -0.3131  0.0406  0.2082
 6694TIP3    H141573   5.086   0.639   3.731 -2.1624 -1.2230 -0.4248
 6694TIP3    H241574   5.186   0.563   3.646  0.2335  0.5445  0.7058
 6695TIP3   OH241575   6.722   0.571   3.393 -0.4779 -0.3985 -0.1570
 6695TIP3    H141576   6.628   0.561   3.405 -0.6304 -0.6306 -1.4210
 6695TIP3    H241577   6.730   0.631   3.319  0.3802  0.0557  0.2887
 6696TIP3   OH241578   4.894   4.556  13.700  0.0485 -0.5222 -0.1086
 6696TIP3    H141579   4.885   4.475  13.651  0.1152 -1.3282  1.1665
 6696TIP3    H241580   4.838   4.544  13.777  0.8043  0.2423  0.5806
 6697TIP3   OH241581   5.078   5.366  12.692  0.4877 -0.3559  0.5096
 6697TIP3    H141582   5.121   5.377  12.607 -0.6006 -0.0390 -0.0243
 6697TIP3    H241583   5.005   5.307  12.674  0.0828 -0.0692  1.1682
 6698TIP3   OH241584   2.812   3.404  11.780  0.4056  0.0912  0.0876
 6698TIP3    H141585   2.809   3.492  11.744 -1.4263  0.4553  1.0202
 6698TIP3    H241586   2.856   3.352  11.713  0.9223  1.5742 -0.7593
 6699TIP3   OH241587   1.900   2.253   0.705 -0.3753  0.3985  0.3128
 6699TIP3    H141588   1.985   2.296   0.702  0.9926 -1.4730  4.7366
 6699TIP3    H241589   1.913   2.170   0.658 -0.5763  1.1462 -1.1160
 6700TIP3   OH241590   2.037   2.828   0.184  0.6787 -0.3612  0.6902
 6700TIP3    H141591   2.080   2.803   0.103  1.8304  0.6279  0.9607
 6700TIP3    H241592   1.994   2.749   0.214  1.1851 -1.0355 -0.3026
 6701TIP3   OH241593   0.632   2.939   4.916  0.5553 -0.1001 -0.1476
 6701TIP3    H141594   0.541   2.912   4.910  0.7088 -0.9787  1.0823
 6701TIP3    H241595   0.638   2.987   4.999  1.2250 -0.1078 -0.1818
 6702TIP3   OH241596   2.433   5.702   0.955  0.6552  0.2143 -0.0964
 6702TIP3    H141597   2.445   5.688   1.049  1.0521 -0.1811 -0.2081
 6702TIP3    H241598   2.508   5.660   0.914 -0.5264 -1.3750 -0.7230
 6703TIP3   OH241599   3.752   3.067   5.939  0.0437 -0.3582 -0.2289
 6703TIP3    H141600   3.673   3.062   5.991  0.6091 -1.3332  0.5743
 6703TIP3    H241601   3.786   2.977   5.938  1.4031  0.1285 -0.1260
 6704TIP3   OH241602   3.416   3.594  10.772 -0.3371 -0.0580  0.6033
 6704TIP3    H141603   3.409   3.688  10.791 -2.3931  0.0360 -0.3855
 6704TIP3    H241604   3.334   3.572  10.728  0.7823 -2.0018 -0.6420
 6705TIP3   OH241605   2.121   6.340   1.058 -0.2988 -0.0295 -0.1113
 6705TIP3    H141606   2.071   6.410   1.015  1.1359 -0.0600 -1.9747
 6705TIP3    H241607   2.055   6.281   1.093 -1.5537  0.8979 -0.8470
 6706TIP3   OH241608   4.793   2.571   3.007 -0.0414 -0.4927 -0.2191
 6706TIP3    H141609   4.747   2.584   2.924 -0.0360  3.3873  0.1902
 6706TIP3    H241610   4.751   2.632   3.068  2.7556  0.0400  1.3886
 6707TIP3   OH241611   4.803   0.281  14.752 -0.3835  0.3680  0.1043
 6707TIP3    H141612   4.844   0.225  14.685  0.3123  0.3658  0.5176
 6707TIP3    H241613   4.712   0.252  14.756 -0.2090 -0.2320 -0.2167
 6708TIP3   OH241614   0.018   0.665  12.138  0.0852 -0.2023  0.1821
 6708TIP3    H141615   0.099   0.693  12.096  0.1477 -1.2023 -0.3890
 6708TIP3    H241616  -0.032   0.624  12.067 -1.2841  1.1269  0.3339
 6709TIP3   OH241617   5.786   5.991  12.157  0.2068 -1.0658  0.1616
 6709TIP3    H141618   5.839   6.052  12.207  1.6215 -2.6292  0.6615
 6709TIP3    H241619   5.697   6.027  12.161  0.7743  0.2746  1.4666
 6710TIP3   OH241620   2.046   5.370   0.716 -0.3860  0.3143 -0.0070
 6710TIP3    H141621   2.012   5.355   0.805  1.5993  0.2498  0.7978
 6710TIP3    H241622   1.986   5.434   0.678 -1.8154 -0.3505  1.0390
 6711TIP3   OH241623   3.190   0.932   2.482 -0.5159 -0.1129  0.2496
 6711TIP3    H141624   3.127   0.920   2.554 -2.5960  1.8794 -1.1000
 6711TIP3    H241625   3.238   1.012   2.506 -0.2352 -0.2319  0.0811
 6712TIP3   OH241626   5.211   3.160   3.895 -0.5553  0.2037 -0.1542
 6712TIP3    H141627   5.284   3.129   3.841  0.5127  2.5821 -0.1825
 6712TIP3    H241628   5.172   3.230   3.844  0.3878  2.4283  1.9901
 6713TIP3   OH241629   4.368   0.103   0.991  0.3934  0.4038 -0.2293
 6713TIP3    H141630   4.449   0.053   0.984  2.1728  3.0177  0.0806
 6713TIP3    H241631   4.332   0.078   1.076 -0.0959 -2.0115 -1.0686
 6714TIP3   OH241632   0.217   5.254   2.193  0.2828  0.3428  0.4130
 6714TIP3    H141633   0.200   5.323   2.129  0.0392  1.2206  1.4070
 6714TIP3    H241634   0.176   5.285   2.273 -3.3273 -2.6314  0.0312
 6715TIP3   OH241635   3.457   3.273  14.387  0.4926 -0.6160  0.0775
 6715TIP3    H141636   3.386   3.313  14.337  0.3177  0.8962  1.4501
 6715TIP3    H241637   3.499   3.213  14.326 -0.8751 -0.2313 -1.2901
 6716TIP3   OH241638   4.994   2.320  11.484  0.0985  0.5668  0.2228
 6716TIP3    H141639   4.980   2.371  11.564 -0.7193 -0.5346  0.8032
 6716TIP3    H241640   5.072   2.268  11.503  0.5677  1.1309 -0.1345
 6717TIP3   OH241641   1.290   0.236   6.110 -0.0541  0.3502 -0.3739
 6717TIP3    H141642   1.227   0.214   6.179  1.4938 -2.4959  0.2774
 6717TIP3    H241643   1.277   0.168   6.043 -0.1437  1.8938 -2.0119
 6718TIP3   OH241644   2.169   2.530   1.898  0.0451 -0.6961  0.3328
 6718TIP3    H141645   2.182   2.616   1.938 -1.1961 -0.0335 -0.6093
 6718TIP3    H241646   2.257   2.504   1.868  0.3625  0.4678  0.2042
 6719TIP3   OH241647   2.317   3.100   5.931  0.1579 -0.4300 -0.5259
 6719TIP3    H141648   2.395   3.049   5.954 -0.4126  0.0414  2.8971
 6719TIP3    H241649   2.265   3.101   6.011 -2.5049  0.8639 -2.1617
 6720TIP3   OH241650   4.918   0.096   4.158  0.3618  0.1551 -0.4551
 6720TIP3    H141651   4.985   0.096   4.090  0.7746  0.4915 -0.0568
 6720TIP3    H241652   4.889   0.187   4.163  0.4194  0.1536 -0.0957
 6721TIP3   OH241653   0.206   6.389   4.853 -0.1403  0.2797 -0.6944
 6721TIP3    H141654   0.198   6.476   4.813 -0.7846  0.0444 -1.1060
 6721TIP3    H241655   0.167   6.399   4.940  1.2618  0.7926 -0.1019
 6722TIP3   OH241656   0.271   0.076   4.541 -0.6798 -0.2983 -0.2429
 6722TIP3    H141657   0.298   0.036   4.458 -0.8751 -1.9712  0.4434
 6722TIP3    H241658   0.176   0.088   4.533 -0.6436 -0.1289 -0.4018
 6723TIP3   OH241659   6.220   4.793   4.232  0.0549  0.0315  0.2198
 6723TIP3    H141660   6.159   4.767   4.163  1.1073 -0.6958 -0.4588
 6723TIP3    H241661   6.235   4.886   4.216 -0.7753  0.1953  0.3307
 6724TIP3   OH241662   1.631   6.264  12.419 -0.0626 -0.4550 -0.3817
 6724TIP3    H141663   1.580   6.287  12.497 -0.3144  0.6591 -0.8559
 6724TIP3    H241664   1.567   6.222  12.361  0.1725 -1.4877  0.0730
 6725TIP3   OH241665   4.101   4.510   4.796 -0.4310 -0.1285 -0.1806
 6725TIP3    H141666   4.014   4.550   4.793 -0.4062 -0.0284  0.3795
 6725TIP3    H241667   4.134   4.530   4.883  0.1087 -0.2693 -0.3460
 6726TIP3   OH241668   4.140   3.896  16.598 -0.6038  0.2942 -0.5077
 6726TIP3    H141669   4.136   3.900  16.693  0.2258  1.5859 -0.5063
 6726TIP3    H241670   4.205   3.828  16.579  2.2080  2.6365 -0.0338
 6727TIP3   OH241671   2.666   2.880  16.128  0.3379  0.2346  0.0810
 6727TIP3    H141672   2.643   2.909  16.216 -1.3444 -3.0586  0.9001
 6727TIP3    H241673   2.693   2.960  16.083 -0.9824  2.4468  2.8656
 6728TIP3   OH241674   6.241   4.649  11.631  0.1890  0.2989  0.0181
 6728TIP3    H141675   6.244   4.647  11.727  1.3552 -0.0158 -0.0029
 6728TIP3    H241676   6.333   4.658  11.605 -0.2374  2.0625 -1.0466
 6729TIP3   OH241677   1.951   1.484   0.428  0.2840  0.1800  0.4613
 6729TIP3    H141678   2.016   1.444   0.487  0.2061  0.5472  0.7984
 6729TIP3    H241679   1.994   1.562   0.394  0.4278 -0.1771 -0.1858
 6730TIP3   OH241680   1.578   0.496   2.110 -0.8236 -0.2228 -0.2144
 6730TIP3    H141681   1.660   0.450   2.090 -0.2375  1.0327 -0.7827
 6730TIP3    H241682   1.552   0.463   2.196  1.0766  0.4493  0.6722
 6731TIP3   OH241683   1.597   2.904   3.009 -0.2928 -0.2501 -0.4988
 6731TIP3    H141684   1.552   2.922   3.092  0.4920 -1.0800  0.1227
 6731TIP3    H241685   1.536   2.849   2.960 -1.1983  1.0848 -0.9299
 6732TIP3   OH241686   3.510   4.059   4.678 -0.7634 -0.1607 -0.2410
 6732TIP3    H141687   3.544   3.986   4.730 -0.5915  0.5892  0.7323
 6732TIP3    H241688   3.585   4.088   4.626  0.0859  1.2835  1.6661
 6733TIP3   OH241689   0.159   0.704  14.860  0.0584  0.3798  0.0465
 6733TIP3    H141690   0.153   0.794  14.894  0.8690  0.5540 -0.2604
 6733TIP3    H241691   0.194   0.714  14.772 -0.2820 -0.2109 -0.1576
 6734TIP3   OH241692   1.151   3.519   5.426  0.1159  0.5288 -0.4590
 6734TIP3    H141693   1.130   3.541   5.335 -0.4953  0.1091 -0.4264
 6734TIP3    H241694   1.084   3.456   5.451  0.5546  0.2931  0.1397
 6735TIP3   OH241695   3.598   3.041  12.233 -0.2616 -0.0347  0.0161
 6735TIP3    H141696   3.685   3.002  12.241 -0.4762 -0.5581 -0.1656
 6735TIP3    H241697   3.540   2.966  12.220 -0.5996  0.3902 -0.9640
 6736TIP3   OH241698   4.799   6.165  12.050  0.7168 -0.1731 -0.4672
 6736TIP3    H141699   4.767   6.163  11.959  0.1785 -0.4360 -0.2795
 6736TIP3    H241700   4.719   6.177  12.102  1.0169 -0.1093 -0.0237
 6737TIP3   OH241701   4.887   5.336  12.189 -0.5320 -0.4028  0.6451
 6737TIP3    H141702   4.864   5.428  12.177  0.1349 -0.2949  0.1807
 6737TIP3    H241703   4.872   5.296  12.103  0.5070 -0.4347  0.4622
 6738TIP3   OH241704   6.716   2.642  12.140  0.1541 -0.0861 -0.1423
 6738TIP3    H141705   6.773   2.689  12.200 -0.7034  1.0569 -0.1749
 6738TIP3    H241706   6.724   2.550  12.166 -0.2707  0.3725  1.8145
 6739TIP3   OH241707   5.429   1.428  11.414 -0.4789  0.4448  0.1031
 6739TIP3    H141708   5.368   1.405  11.485 -2.3753 -0.0684 -1.5854
 6739TIP3    H241709   5.516   1.407  11.449 -1.4517 -1.1362  1.7590
 6740TIP3   OH241710   0.970   0.690  15.142  0.2685  0.1850 -0.1590
 6740TIP3    H141711   0.918   0.699  15.222  1.7149 -1.4170  1.0381
 6740TIP3    H241712   0.910   0.712  15.071 -1.1994  1.1709  1.3252
 6741TIP3   OH241713   1.470   4.635   2.046 -0.0514 -0.3395  0.1128
 6741TIP3    H141714   1.440   4.618   1.957 -0.5369 -0.9605  0.3947
 6741TIP3    H241715   1.561   4.608   2.046  0.3050  0.7759 -0.5159
 6742TIP3   OH241716   3.877   1.201  11.725 -0.2106 -0.6533  0.0503
 6742TIP3    H141717   3.886   1.280  11.778 -0.9644 -0.3154 -0.2993
 6742TIP3    H241718   3.822   1.143  11.777  0.7000 -1.1302  0.4950
 6743TIP3   OH241719   4.351   5.091  13.657  0.2345 -0.1716 -0.0896
 6743TIP3    H141720   4.406   5.128  13.588 -0.2036 -0.0232 -0.3663
 6743TIP3    H241721   4.273   5.146  13.658 -0.3100 -0.9068 -0.3298
 6744TIP3   OH241722   2.842   1.166   4.687  0.6450  0.3928 -0.4530
 6744TIP3    H141723   2.890   1.224   4.629 -0.6854  0.7738 -1.2107
 6744TIP3    H241724   2.768   1.136   4.635 -0.2648  0.2874  0.8524
 6745TIP3   OH241725   1.807   1.258  14.186  0.0874 -0.0961  0.0665
 6745TIP3    H141726   1.870   1.186  14.181 -0.0530 -0.2208  0.1309
 6745TIP3    H241727   1.813   1.289  14.276 -0.1714 -0.3070  0.1542
 6746TIP3   OH241728   0.623   4.057   0.088 -0.6049 -0.1934 -0.1977
 6746TIP3    H141729   0.678   4.129   0.118 -0.3588 -0.4768  0.0365
 6746TIP3    H241730   0.539   4.071   0.132 -0.0351 -1.0023  1.2146
 6747TIP3   OH241731   1.872   6.635  13.632 -0.4361  0.5840  0.0342
 6747TIP3    H141732   1.889   6.563  13.693  0.1244 -0.0682 -0.8785
 6747TIP3    H241733   1.938   6.701  13.655  0.9444 -0.3802 -0.9863
 6748TIP3   OH241734   4.598   0.068   3.655 -0.5973  0.3837  0.9877
 6748TIP3    H141735   4.628   0.148   3.699  0.3240  0.5633  0.0706
 6748TIP3    H241736   4.503   0.078   3.651 -0.5851  0.9366  1.8308
 6749TIP3   OH241737   3.455   4.079   2.425  0.1992 -1.0484 -0.2632
 6749TIP3    H141738   3.424   4.102   2.513 -1.7924 -1.4774 -0.8105
 6749TIP3    H241739   3.495   3.993   2.436 -1.5108 -1.8506 -0.0265
 6750TIP3   OH241740   0.352   0.461  10.788  0.1057 -0.3886  0.1913
 6750TIP3    H141741   0.322   0.477  10.699  1.3779  1.0810 -0.0147
 6750TIP3    H241742   0.437   0.418  10.778 -0.1399 -1.0227  0.7170
 6751TIP3   OH241743   2.479   3.958   0.282 -0.2312 -0.5590 -0.3625
 6751TIP3    H141744   2.436   3.876   0.307  2.1623 -1.8178 -0.0921
 6751TIP3    H241745   2.428   3.990   0.208 -0.9856 -2.5405 -0.7647
 6752TIP3   OH241746   6.023   4.666   4.063  0.2391  0.1225  0.3516
 6752TIP3    H141747   5.950   4.701   4.114  1.4018  0.9223  1.5417
 6752TIP3    H241748   5.994   4.578   4.037 -1.5845  0.8430 -0.2310
 6753TIP3   OH241749   3.582   1.033   0.261  0.0191 -0.1431  0.5926
 6753TIP3    H141750   3.571   1.050   0.168 -1.3197  1.4114  1.0005
 6753TIP3    H241751   3.677   1.019   0.271  0.1008 -1.0726 -1.0772
 6754TIP3   OH241752   3.948   3.993  14.188  0.5237 -0.2925  0.5727
 6754TIP3    H141753   3.872   3.998  14.246 -0.4670  1.1377 -0.7643
 6754TIP3    H241754   4.014   4.047  14.230  0.6286 -1.0973  1.4706
 6755TIP3   OH241755   5.199   1.514  12.184 -0.3340 -0.0332  0.3028
 6755TIP3    H141756   5.181   1.588  12.242 -0.1392  1.7618 -1.8056
 6755TIP3    H241757   5.290   1.490  12.203 -0.0987  0.8842  0.3386
 6756TIP3   OH241758   4.420   5.693  12.679  0.0398  0.1878 -0.1621
 6756TIP3    H141759   4.454   5.618  12.630  0.3010  0.6832 -0.7601
 6756TIP3    H241760   4.374   5.655  12.753 -0.3297 -0.5884 -0.7794
 6757TIP3   OH241761   2.906   2.487   1.074  0.4147 -0.3224  0.1195
 6757TIP3    H141762   2.907   2.561   1.014 -1.6773 -0.1627  0.2313
 6757TIP3    H241763   2.990   2.443   1.058  1.5085  1.7909 -0.2456
 6758TIP3   OH241764   5.910   5.093  15.920 -0.6133 -0.1428  0.3386
 6758TIP3    H141765   5.985   5.107  15.863 -1.1354  2.2232  0.1548
 6758TIP3    H241766   5.947   5.088  16.008 -0.2322  1.3208  0.2799
 6759TIP3   OH241767   1.015   6.657  10.998 -0.0046 -0.0651 -0.5245
 6759TIP3    H141768   0.968   6.703  10.929  1.0756  0.4375 -0.9391
 6759TIP3    H241769   1.058   6.726  11.048 -1.0970 -0.3803  0.9322
 6760TIP3   OH241770   3.154   0.089   3.569  0.1167 -0.4048  0.8435
 6760TIP3    H141771   3.072   0.111   3.526 -0.2243 -2.9311  0.0718
 6760TIP3    H241772   3.128   0.057   3.656  0.5384  1.2197  1.6188
 6761TIP3   OH241773   2.162   1.414  14.112 -0.7263  0.6479  0.3849
 6761TIP3    H141774   2.138   1.463  14.033  0.0654 -0.5216 -0.6038
 6761TIP3    H241775   2.165   1.323  14.084  0.3807  0.2931  1.5801
 6762TIP3   OH241776   0.614   6.274  16.839 -0.2084 -0.1779  0.1509
 6762TIP3    H141777   0.641   6.353  16.793 -0.1882 -0.0498  0.3815
 6762TIP3    H241778   0.639   6.202  16.781  1.5684 -0.1304  0.8128
 6763TIP3   OH241779   5.235   3.721  16.556 -0.1531  0.2515  0.2326
 6763TIP3    H141780   5.225   3.783  16.484 -2.2945 -1.5514 -1.1391
 6763TIP3    H241781   5.202   3.768  16.633  0.0749  1.4378 -0.3667
 6764TIP3   OH241782   1.715   3.317   1.897 -0.7358 -0.0017  0.7457
 6764TIP3    H141783   1.787   3.365   1.937  1.1130 -1.2308 -0.9507
 6764TIP3    H241784   1.684   3.259   1.966 -0.1421  0.5559  1.5035
 6765TIP3   OH241785   3.089   4.528   0.546 -0.3653  0.1164 -0.1045
 6765TIP3    H141786   3.133   4.445   0.529  0.9669  0.8059 -0.1361
 6765TIP3    H241787   3.011   4.526   0.491  0.0476 -0.8028 -0.6643
 6766TIP3   OH241788   5.371   0.079  15.050  0.1132 -0.2195  0.0750
 6766TIP3    H141789   5.292   0.032  15.024 -1.3021  2.4725 -0.8210
 6766TIP3    H241790   5.443   0.027  15.014 -1.1914 -2.6388  0.7404
 6767TIP3   OH241791   5.601   1.927   5.604  0.3543  0.4361  0.3378
 6767TIP3    H141792   5.649   1.910   5.686  4.8071  0.2550 -1.9965
 6767TIP3    H241793   5.540   1.854   5.597  2.4445 -1.6293  1.8243
 6768TIP3   OH241794   2.262   0.146   5.332 -0.0129 -0.4677 -0.1283
 6768TIP3    H141795   2.244   0.239   5.320 -0.4837 -0.8060 -2.3649
 6768TIP3    H241796   2.354   0.135   5.307 -0.8240 -1.0714 -3.1918
 6769TIP3   OH241797   2.882   2.755  11.510  0.4794 -0.0714  0.2012
 6769TIP3    H141798   2.925   2.672  11.489  2.3252  0.6023  1.0079
 6769TIP3    H241799   2.955   2.815  11.528 -0.7656  1.9679 -1.1595
 6770TIP3   OH241800   4.578   0.817  14.466  0.2591  0.0576  0.3537
 6770TIP3    H141801   4.555   0.739  14.518 -1.1426 -0.6782 -1.2543
 6770TIP3    H241802   4.549   0.891  14.520 -1.3711 -0.6882  0.5727
 6771TIP3   OH241803   3.340   5.468   3.885 -0.5850 -0.2009 -0.7543
 6771TIP3    H141804   3.405   5.461   3.816  0.0703 -0.8627 -0.0865
 6771TIP3    H241805   3.349   5.557   3.917  0.8192 -0.6152  0.1005
 6772TIP3   OH241806   2.899   0.122   1.041  0.7094 -0.1701  0.1362
 6772TIP3    H141807   2.845   0.043   1.036  0.4759  0.0605 -2.1657
 6772TIP3    H241808   2.883   0.156   1.129  1.2179 -2.9235  1.3862
 6773TIP3   OH241809   6.787   3.972   2.338 -0.0245  0.2876 -0.2134
 6773TIP3    H141810   6.801   4.057   2.296 -0.7951  0.9738  0.8801
 6773TIP3    H241811   6.778   3.911   2.265  0.0501  1.2172 -1.0214
 6774TIP3   OH241812   5.631   4.697  16.125  0.0748  0.2741  0.5543
 6774TIP3    H141813   5.684   4.722  16.049  1.3068 -0.5843  1.1091
 6774TIP3    H241814   5.613   4.780  16.170 -0.4996  0.7650 -0.5499
 6775TIP3   OH241815   2.804   5.069   5.398 -0.4449 -0.3303  0.4858
 6775TIP3    H141816   2.765   5.142   5.350 -1.7260 -1.4843 -0.3023
 6775TIP3    H241817   2.838   5.010   5.330  1.1458 -0.2002  1.1213
 6776TIP3   OH241818   5.000   1.524  15.353  0.4268 -0.0983  0.2188
 6776TIP3    H141819   4.925   1.584  15.358  0.3459 -0.2583  1.1435
 6776TIP3    H241820   5.074   1.581  15.333  0.4663  0.4430  1.7345
 6777TIP3   OH241821   2.819   1.163  11.493 -0.9687 -0.0595  0.4670
 6777TIP3    H141822   2.770   1.189  11.415 -1.6944  2.1448  1.5596
 6777TIP3    H241823   2.805   1.069  11.501 -2.6962  0.0409 -0.8306
 6778TIP3   OH241824   4.050   1.400  12.364  0.4102 -0.3717 -0.2930
 6778TIP3    H141825   4.096   1.318  12.384 -1.3556 -0.9876  1.6320
 6778TIP3    H241826   3.993   1.378  12.291  0.4027 -0.7038 -0.1929
 6779TIP3   OH241827   4.981   4.826   2.224 -0.2183  0.0104 -0.3916
 6779TIP3    H141828   5.050   4.827   2.156 -0.2467  0.7664 -0.4214
 6779TIP3    H241829   4.899   4.826   2.174 -0.2521  1.6604 -0.3900
 6780TIP3   OH241830   2.952   5.487  16.426  0.2400 -0.3531 -0.1399
 6780TIP3    H141831   3.002   5.468  16.346 -0.3593  0.2245 -0.6627
 6780TIP3    H241832   2.880   5.543  16.397 -1.7463 -2.5276  0.2711
 6781TIP3   OH241833   4.885   4.239   2.449 -0.5194  0.4220  0.3637
 6781TIP3    H141834   4.915   4.327   2.425  0.4837  0.0215  0.1087
 6781TIP3    H241835   4.793   4.237   2.422  0.1459  0.5052 -2.1339
 6782TIP3   OH241836   2.054   3.320  15.440  0.2033 -0.1827  0.2850
 6782TIP3    H141837   2.029   3.259  15.509  0.2340 -0.7775 -0.2263
 6782TIP3    H241838   2.119   3.377  15.481  1.5694 -1.6669  0.2530
 6783TIP3   OH241839   3.397   3.944  14.426  0.0514 -0.2267 -0.1630
 6783TIP3    H141840   3.348   3.973  14.349  0.7762 -0.3021 -0.6657
 6783TIP3    H241841   3.389   4.016  14.489 -2.5985 -1.1551  0.6778
 6784TIP3   OH241842   4.487   0.193   4.656  0.5896 -0.2197 -0.7670
 6784TIP3    H141843   4.492   0.106   4.616 -0.6249 -0.0236 -1.3727
 6784TIP3    H241844   4.527   0.181   4.742  2.2743 -0.8927 -1.5917
 6785TIP3   OH241845   4.415   1.342  13.221 -0.0602  0.3910 -0.8179
 6785TIP3    H141846   4.359   1.328  13.144 -1.8276  0.4069  0.4150
 6785TIP3    H241847   4.434   1.254  13.253  1.8666  0.3057 -2.0254
 6786TIP3   OH241848   4.713   2.123  13.186  0.0799  0.0677  0.4625
 6786TIP3    H141849   4.701   2.201  13.240 -0.7937  0.6929 -0.5751
 6786TIP3    H241850   4.769   2.152  13.114 -0.3101 -0.2407  0.0306
 6787TIP3   OH241851   6.304   6.257  11.053  0.5576 -0.4838  0.0849
 6787TIP3    H141852   6.386   6.219  11.084  0.9827  1.0180  0.8907
 6787TIP3    H241853   6.327   6.346  11.027 -0.8593  0.0669  0.6105
 6788TIP3   OH241854   6.229   0.363  15.791  0.0247 -0.2382  0.0764
 6788TIP3    H141855   6.172   0.304  15.839 -0.2818 -1.1225 -1.3137
 6788TIP3    H241856   6.282   0.406  15.858 -2.5046  0.9214  1.4630
 6789TIP3   OH241857   3.835   4.894   1.039  0.0625 -0.2992  0.1647
 6789TIP3    H141858   3.819   4.890   1.133 -1.1301  0.6029  0.0224
 6789TIP3    H241859   3.764   4.948   1.004  1.4624  0.9144 -1.0061
 6790TIP3   OH241860   5.541   1.377  14.817 -0.4315  0.4263  0.5528
 6790TIP3    H141861   5.473   1.373  14.885  1.0071  1.9872  2.1929
 6790TIP3    H241862   5.615   1.331  14.855  0.6287  1.9153  0.3756
 6791TIP3   OH241863   0.373   5.997   3.807  0.3780  0.3105  0.0822
 6791TIP3    H141864   0.441   5.940   3.843 -0.1406 -0.5252 -0.2238
 6791TIP3    H241865   0.367   5.971   3.715  0.0818  0.8203 -0.0456
 6792TIP3   OH241866   4.387   1.755   3.548  0.4034  0.3299  0.0220
 6792TIP3    H141867   4.304   1.744   3.502  1.2303  0.1654 -1.5322
 6792TIP3    H241868   4.377   1.707   3.629 -0.9283  0.0987 -0.2601
 6793TIP3   OH241869   3.417   2.277  13.084 -0.3629  0.0599 -0.0814
 6793TIP3    H141870   3.480   2.291  13.013 -1.1562  0.6046 -0.7098
 6793TIP3    H241871   3.457   2.211  13.140  1.9711  2.2408  1.0015
 6794TIP3   OH241872   3.052   1.889  12.061 -0.2144  0.0448  0.2820
 6794TIP3    H141873   3.117   1.819  12.067 -1.0298 -0.8123 -0.5420
 6794TIP3    H241874   2.970   1.849  12.090 -0.6748  0.6895 -0.0973
 6795TIP3   OH241875   3.514   2.505   5.327 -0.2784  0.1430  0.0110
 6795TIP3    H141876   3.602   2.528   5.355 -0.5155  0.0852  0.8406
 6795TIP3    H241877   3.491   2.429   5.381 -1.0743  0.5565  0.2724
 6796TIP3   OH241878   1.548   4.382  15.744  0.0259  0.3648 -0.2484
 6796TIP3    H141879   1.634   4.353  15.775 -0.0765 -0.2732 -0.5419
 6796TIP3    H241880   1.567   4.454  15.684  0.3259  0.5430  0.0595
 6797TIP3   OH241881   3.769   2.504  16.578  0.3853  0.0673 -0.4964
 6797TIP3    H141882   3.725   2.522  16.661  1.8596 -1.5427  0.7225
 6797TIP3    H241883   3.717   2.436  16.537 -0.3480  0.8684 -0.9360
 6798TIP3   OH241884   3.223   2.818  16.389  0.3710  0.3154 -0.4541
 6798TIP3    H141885   3.140   2.852  16.422  0.3365  0.1682 -0.3877
 6798TIP3    H241886   3.200   2.735  16.346  0.3917  0.5775 -0.9811
 6799TIP3   OH241887   5.532   6.308  11.637 -0.4659  0.2535  0.3870
 6799TIP3    H141888   5.568   6.381  11.687  1.0476 -0.3653  0.2550
 6799TIP3    H241889   5.483   6.257  11.702  2.9063 -1.5030  1.7956
 6800TIP3   OH241890   6.204   0.813   4.774 -0.2460 -0.3346 -0.1340
 6800TIP3    H141891   6.131   0.752   4.765 -1.6552  1.1898  0.4265
 6800TIP3    H241892   6.169   0.897   4.743  2.0856 -0.0581 -2.3779
 6801TIP3   OH241893   5.402   3.947   1.316 -0.1150 -0.1272  0.7149
 6801TIP3    H141894   5.368   3.951   1.227  0.9304 -0.1073  0.2988
 6801TIP3    H241895   5.435   3.857   1.325  0.5860  0.1245  0.7588
 6802TIP3   OH241896   2.744   3.605   1.885  0.2561  0.2434 -0.8020
 6802TIP3    H141897   2.652   3.618   1.905  0.8350 -0.7335  3.4354
 6802TIP3    H241898   2.787   3.687   1.911  1.0912 -1.1734  2.8572
 6803TIP3   OH241899   2.661   3.422  12.342 -0.0670  0.0609 -0.0607
 6803TIP3    H141900   2.740   3.435  12.288 -0.4543 -0.1554 -0.6895
 6803TIP3    H241901   2.611   3.356  12.295  0.1719 -1.0825  1.2110
 6804TIP3   OH241902   2.281   5.065   0.064  0.1040  0.0069 -0.0019
 6804TIP3    H141903   2.272   5.153   0.100 -1.2342 -0.0746 -0.0801
 6804TIP3    H241904   2.321   5.078  -0.022  0.6210  0.4585  0.3021
 6805TIP3   OH241905   4.538   2.686  14.160  0.7005 -0.2122  0.0742
 6805TIP3    H141906   4.571   2.620  14.221 -1.3869 -0.7552  0.7151
 6805TIP3    H241907   4.446   2.664  14.149  0.1815  1.9737 -0.5268
 6806TIP3   OH241908   2.435   4.257  16.837  0.4866  0.3390  0.2089
 6806TIP3    H141909   2.403   4.311  16.765  2.2418  2.2755  0.7838
 6806TIP3    H241910   2.368   4.190  16.849 -0.7792  1.1455 -1.9136
 6807TIP3   OH241911   6.637   2.544  13.366  0.0544  0.7868  0.2095
 6807TIP3    H141912   6.566   2.513  13.309  1.0524  0.6587 -1.0043
 6807TIP3    H241913   6.625   2.639  13.370 -0.1190  0.7768 -0.0729
 6808TIP3   OH241914   6.322   6.841   2.817 -0.3224 -0.6510  0.1617
 6808TIP3    H141915   6.384   6.884   2.759 -0.7233  0.3047  0.4158
 6808TIP3    H241916   6.362   6.847   2.903 -1.6055  1.8322  0.6969
 6809TIP3   OH241917   6.180   4.002  15.536 -0.5956 -0.3333  0.5108
 6809TIP3    H141918   6.147   4.023  15.623  0.0480  1.5499  0.3346
 6809TIP3    H241919   6.102   3.977  15.486 -0.9008 -1.9928  1.7407
 6810TIP3   OH241920   0.197   0.743  11.472  0.0727  0.1200 -0.9282
 6810TIP3    H141921   0.239   0.750  11.386  0.8625 -0.3366 -0.5890
 6810TIP3    H241922   0.183   0.649  11.484  2.2528 -0.0902  0.4967
 6811TIP3   OH241923   2.594   0.655   5.114  0.0079  0.1737 -0.6225
 6811TIP3    H141924   2.608   0.607   5.195 -0.1281 -0.1342 -0.7790
 6811TIP3    H241925   2.681   0.682   5.086  0.1732 -0.6722 -0.9474
 6812TIP3   OH241926   3.192   5.190   3.508 -0.4806 -0.2917 -0.1208
 6812TIP3    H141927   3.265   5.228   3.461 -1.7988 -0.1116 -2.1696
 6812TIP3    H241928   3.183   5.244   3.587  2.0284 -0.8312  0.6218
 6813TIP3   OH241929   4.702   0.286  10.895  0.0799  0.2331  0.1304
 6813TIP3    H141930   4.675   0.284  10.803 -1.3974  0.6043  0.5352
 6813TIP3    H241931   4.654   0.359  10.933  0.1828 -0.3011  1.3474
 6814TIP3   OH241932   3.030   1.182  13.440  0.0079 -0.0422 -0.6380
 6814TIP3    H141933   3.093   1.254  13.435 -1.8583  1.9103  1.4898
 6814TIP3    H241934   2.956   1.211  13.387  0.2529 -1.6318 -1.9011
 6815TIP3   OH241935   5.011   3.101  16.700 -0.1273 -0.0382 -0.1584
 6815TIP3    H141936   4.968   3.174  16.745  1.2253  1.3980 -1.0688
 6815TIP3    H241937   5.102   3.130  16.691  0.1365 -1.2622 -1.7878
 6816TIP3   OH241938   5.361   3.494  11.747  0.2894 -0.0411 -0.5306
 6816TIP3    H141939   5.266   3.498  11.754  0.3483  0.4207  0.1786
 6816TIP3    H241940   5.384   3.572  11.696  0.3311  0.2134 -0.1270
 6817TIP3   OH241941   5.708   3.600  15.489  0.0683  0.3849  0.1115
 6817TIP3    H141942   5.728   3.642  15.572 -0.4390  0.7341  0.0600
 6817TIP3    H241943   5.756   3.517  15.491 -1.6097 -0.6077  1.6551
 6818TIP3   OH241944   5.214   2.152   1.543  0.1352  0.2078  0.1569
 6818TIP3    H141945   5.128   2.114   1.531 -0.4672  1.4085  0.5401
 6818TIP3    H241946   5.201   2.246   1.532  1.5439  0.3480 -0.5958
 6819TIP3   OH241947   1.630   6.269  10.467 -0.5019  0.1609 -0.3817
 6819TIP3    H141948   1.676   6.345  10.503  0.8634  0.0805 -1.8177
 6819TIP3    H241949   1.553   6.259  10.522 -0.6624  2.5157 -0.0540
 6820TIP3   OH241950   1.697   1.001  17.024  0.1317  0.6067 -0.2279
 6820TIP3    H141951   1.743   0.927  17.065 -0.0223 -0.4043 -1.8180
 6820TIP3    H241952   1.610   1.001  17.065  0.1941  0.0202 -0.0961
 6821TIP3   OH241953   0.011   0.143   4.546 -0.3809  0.4324  0.1900
 6821TIP3    H141954  -0.016   0.127   4.636  0.7169 -0.0106  0.4574
 6821TIP3    H241955   0.003   0.237   4.534 -0.6651  0.4731  0.7027
 6822TIP3   OH241956   1.329   5.213   0.474  0.2278  0.1933  0.0892
 6822TIP3    H141957   1.337   5.118   0.482  0.8272  0.1935 -0.4606
 6822TIP3    H241958   1.245   5.233   0.515  0.2366 -0.5367  0.4835
 6823TIP3   OH241959   5.229   5.404   2.583 -0.0570  0.5878  0.3123
 6823TIP3    H141960   5.290   5.452   2.638 -0.4313  0.6452  0.6791
 6823TIP3    H241961   5.214   5.461   2.507 -2.1339  2.0334  1.7203
 6824TIP3   OH241962   0.417   1.423  10.398  0.0086 -0.3733 -0.3128
 6824TIP3    H141963   0.331   1.415  10.356  0.8153  0.5443 -2.2373
 6824TIP3    H241964   0.459   1.496  10.353  0.2103  2.1111  3.5007
 6825TIP3   OH241965   0.662   3.814  11.575 -0.4591  0.0618  0.1233
 6825TIP3    H141966   0.613   3.816  11.493 -0.2760 -1.8628 -0.0870
 6825TIP3    H241967   0.739   3.759  11.555 -0.9791 -1.3846  1.8267
 6826TIP3   OH241968   0.808   5.650   5.318 -0.1260  0.0909  0.3484
 6826TIP3    H141969   0.815   5.579   5.382 -0.3990 -0.1347  0.1333
 6826TIP3    H241970   0.769   5.608   5.241 -0.6623  0.5587  0.3553
 6827TIP3   OH241971   3.595   3.981   4.086  0.7612 -0.3324 -0.4893
 6827TIP3    H141972   3.660   3.920   4.119  0.6367 -1.3508 -2.0206
 6827TIP3    H241973   3.523   3.976   4.149  1.2868 -0.7787  0.0913
 6828TIP3   OH241974   6.042   6.394  11.515  0.3503  0.1146  0.2229
 6828TIP3    H141975   6.026   6.475  11.467 -0.9773 -0.5870 -0.5753
 6828TIP3    H241976   6.129   6.367  11.488 -0.0126  0.2149 -1.1012
 6829TIP3   OH241977   0.262   4.276  16.523  0.3163 -0.4675  0.2866
 6829TIP3    H141978   0.264   4.211  16.453 -0.0081  0.2748 -0.4204
 6829TIP3    H241979   0.228   4.228  16.599 -1.1989 -0.8089 -0.5691
 6830TIP3   OH241980   5.164   4.880   1.170 -0.1132 -0.2799 -0.1498
 6830TIP3    H141981   5.238   4.824   1.194 -0.2706 -1.0746 -1.4680
 6830TIP3    H241982   5.176   4.899   1.077 -1.5124 -0.3479 -0.3683
 6831TIP3   OH241983   1.696   2.527   2.780 -0.3458 -0.0417  0.2680
 6831TIP3    H141984   1.684   2.611   2.735  1.4454 -0.8513 -1.9124
 6831TIP3    H241985   1.608   2.494   2.794 -1.0615  0.2440 -2.8326
 6832TIP3   OH241986   2.306   0.975  14.462  0.0649 -0.0329  0.0287
 6832TIP3    H141987   2.288   1.040  14.394 -0.5908 -0.8022 -0.5534
 6832TIP3    H241988   2.228   0.975  14.518 -0.5700 -1.2951 -0.7993
 6833TIP3   OH241989   2.111   4.243  14.722  0.7979 -0.6079  0.2407
 6833TIP3    H141990   2.103   4.266  14.630  0.8413 -0.3193  0.3091
 6833TIP3    H241991   2.026   4.204  14.745  0.8590 -0.8680  0.0261
 6834TIP3   OH241992   1.425   5.648  16.815 -0.6223 -0.3166 -0.0983
 6834TIP3    H141993   1.518   5.630  16.800 -0.3230  0.4199  0.7748
 6834TIP3    H241994   1.394   5.572  16.865 -0.0400  0.2213  1.1436
 6835TIP3   OH241995   5.276   5.933   5.807 -0.2242  0.4714  0.0468
 6835TIP3    H141996   5.278   5.940   5.712  0.8006 -0.0161  0.0195
 6835TIP3    H241997   5.318   6.014   5.838  0.0781  0.3079  0.0651
 6836TIP3   OH241998   1.860   6.429  15.931  0.5777 -0.6915 -0.7054
 6836TIP3    H141999   1.953   6.433  15.954  0.4402 -0.7186 -0.1507
 6836TIP3    H242000   1.829   6.519  15.936  0.2079 -0.8698  0.6463
 6837TIP3   OH242001   4.012   4.430  12.409  0.0465 -0.8166  0.4220
 6837TIP3    H142002   3.929   4.410  12.453  0.3350 -2.3376  0.3024
 6837TIP3    H242003   4.057   4.489  12.470 -2.5812  3.1804 -1.0584
 6838TIP3   OH242004   2.663   0.883  16.916 -0.1042 -0.1251  0.6317
 6838TIP3    H142005   2.663   0.798  16.959 -0.9277 -0.7866 -0.6228
 6838TIP3    H242006   2.735   0.878  16.853  0.0486  0.2254  0.7760
 6839TIP3   OH242007   1.200   0.072  16.223  0.4252 -0.2517  0.0068
 6839TIP3    H142008   1.244   0.000  16.176 -1.1375 -2.0872  1.2383
 6839TIP3    H242009   1.108   0.047  16.224 -0.0905  1.5526  0.9292
 6840TIP3   OH242010   0.192   3.465  12.760  0.0348 -0.1626  1.0793
 6840TIP3    H142011   0.235   3.387  12.725 -0.3472  0.2279 -0.3380
 6840TIP3    H242012   0.245   3.538  12.729 -0.7126  0.2347  0.7093
 6841TIP3   OH242013   6.017   2.321   4.820  0.1697  0.1318  0.2207
 6841TIP3    H142014   5.931   2.292   4.851 -0.2493 -0.1219 -1.1173
 6841TIP3    H242015   6.059   2.357   4.898 -0.8100 -0.5282  1.0866
 6842TIP3   OH242016   5.975   6.222   3.313 -0.5197  0.0486 -0.3043
 6842TIP3    H142017   6.053   6.247   3.363 -0.5219  0.3309 -0.4414
 6842TIP3    H242018   5.913   6.191   3.380  0.0125 -0.9954 -0.2696
 6843TIP3   OH242019   3.931   5.828  15.842  0.3499  0.1143 -0.1002
 6843TIP3    H142020   3.936   5.751  15.786  1.2571 -0.0936  0.2420
 6843TIP3    H242021   3.860   5.881  15.805 -0.6563 -1.1375  0.0012
 6844TIP3   OH242022   1.813   1.333  14.447  0.5390 -0.3014  0.1829
 6844TIP3    H142023   1.905   1.305  14.449  0.8763  0.3044  5.0585
 6844TIP3    H242024   1.815   1.426  14.469 -1.2703  0.0835 -1.0081
 6845TIP3   OH242025   4.332   1.104  16.819  0.7455  0.2744 -0.7715
 6845TIP3    H142026   4.256   1.160  16.837  1.6807  1.2116  0.4218
 6845TIP3    H242027   4.353   1.063  16.903  1.0869 -0.6038 -1.2648
 6846TIP3   OH242028   4.058   4.667   4.290 -0.0697 -0.0433 -0.2259
 6846TIP3    H142029   4.077   4.625   4.374 -1.7359  0.6790  0.5491
 6846TIP3    H242030   4.013   4.599   4.239 -0.3324 -0.0372 -0.0023
 6847TIP3   OH242031   0.245   6.480   2.807  0.0077  0.6131  0.3093
 6847TIP3    H142032   0.175   6.522   2.857 -0.7996  1.2197 -1.2529
 6847TIP3    H242033   0.243   6.389   2.835 -0.9844  0.7552  0.7577
 6848TIP3   OH242034   3.947   3.009   3.953 -0.6671 -0.2226 -0.3148
 6848TIP3    H142035   3.852   3.018   3.961 -0.6207  0.3356 -0.3221
 6848TIP3    H242036   3.982   3.070   4.018 -0.3123 -1.9243  1.1343
 6849TIP3   OH242037   5.761   6.602  10.573  0.3951 -0.3125  0.0713
 6849TIP3    H142038   5.814   6.541  10.522  1.9237  0.9186  0.0896
 6849TIP3    H242039   5.750   6.558  10.658  1.8660 -0.4128  0.2483
 6850TIP3   OH242040   5.565   6.335  13.073 -0.3843 -0.3157 -0.1712
 6850TIP3    H142041   5.504   6.406  13.092  1.4208  1.2521  0.0383
 6850TIP3    H242042   5.608   6.316  13.156 -0.5145 -1.3564 -0.3256
 6851TIP3   OH242043   5.062   3.452   6.183  0.3959 -0.0507 -0.0008
 6851TIP3    H142044   5.125   3.505   6.134 -0.9065  1.8124  0.2419
 6851TIP3    H242045   5.112   3.416   6.256  1.2440  1.1924  0.0612
 6852TIP3   OH242046   2.382   5.840  14.671  0.9183  0.1583 -0.0875
 6852TIP3    H142047   2.332   5.782  14.614 -0.1206  1.0330 -0.0946
 6852TIP3    H242048   2.456   5.869  14.617 -0.1059  1.0544 -1.0626
 6853TIP3   OH242049   4.226   1.649  14.386 -0.1895 -0.7632 -0.5276
 6853TIP3    H142050   4.313   1.686  14.402 -0.3573 -0.5903 -0.0159
 6853TIP3    H242051   4.241   1.555  14.377  0.2302 -0.5991 -1.7637
 6854TIP3   OH242052   0.445   2.718  16.382 -0.6250  0.0754  0.4992
 6854TIP3    H142053   0.528   2.711  16.334 -0.9782  0.4896 -0.1899
 6854TIP3    H242054   0.467   2.769  16.460 -0.4178  1.0604 -0.1823
 6855TIP3   OH242055   3.642   1.672  14.756  0.0291  0.2663 -0.1143
 6855TIP3    H142056   3.630   1.581  14.729  0.1898  0.8402 -2.3180
 6855TIP3    H242057   3.558   1.714  14.739 -0.1660  0.4875  1.2609
 6856TIP3   OH242058   0.206   1.327  11.777 -0.2988  0.2883  0.4256
 6856TIP3    H142059   0.147   1.391  11.819 -0.2934  1.0133 -0.6302
 6856TIP3    H242060   0.291   1.371  11.775 -0.1438 -0.0160  0.2747
 6857TIP3   OH242061   6.840   0.160   1.007 -0.1655 -0.0017 -0.5831
 6857TIP3    H142062   6.877   0.125   1.089  0.6548  2.2105  0.0506
 6857TIP3    H242063   6.776   0.225   1.036 -0.5111  0.1813 -1.7331
 6858TIP3   OH242064   6.407   2.859  13.650 -0.2788  0.1310  0.0444
 6858TIP3    H142065   6.438   2.950  13.658  0.6936 -0.1619 -0.2688
 6858TIP3    H242066   6.372   2.838  13.737  1.1325  0.2233  0.6632
 6859TIP3   OH242067   0.074   3.665  13.356 -0.0260 -0.0218  0.0416
 6859TIP3    H142068  -0.019   3.685  13.349  0.3709  1.7777 -0.9793
 6859TIP3    H242069   0.098   3.632  13.269  0.9245  2.9629 -0.9605
 6860TIP3   OH242070   6.491   0.280   1.154  0.4187 -0.3985  0.1273
 6860TIP3    H142071   6.579   0.309   1.130  0.4739 -1.3973 -0.9857
 6860TIP3    H242072   6.432   0.339   1.107  0.4235  1.0784  1.8474
 6861TIP3   OH242073   6.207   2.549   2.607  0.0954  0.0069  0.0978
 6861TIP3    H142074   6.195   2.468   2.656 -0.4332  0.8210  1.3574
 6861TIP3    H242075   6.282   2.592   2.649  0.5211  0.0632 -0.7076
 6862TIP3   OH242076   1.343   6.289  14.200  0.5715  0.2730 -0.1543
 6862TIP3    H142077   1.256   6.248  14.197  1.0958 -1.0287  1.1418
 6862TIP3    H242078   1.330   6.368  14.252  0.2192 -0.1274  0.3902
 6863TIP3   OH242079   2.090   6.167  13.671 -0.2661 -0.2716  0.5661
 6863TIP3    H142080   2.167   6.186  13.724  1.5570 -0.2876 -1.9214
 6863TIP3    H242081   2.115   6.091  13.618 -1.4287  0.6027 -1.3484
 6864TIP3   OH242082   4.381   4.220   4.290 -0.1228 -0.3748  0.3535
 6864TIP3    H142083   4.380   4.259   4.203  0.9599 -3.5288 -1.2105
 6864TIP3    H242084   4.463   4.251   4.329  0.4861 -0.6869 -0.6533
 6865TIP3   OH242085   4.730   1.215  13.106 -0.2076  0.7080 -0.3897
 6865TIP3    H142086   4.743   1.139  13.162 -0.5630  1.1836  0.3444
 6865TIP3    H242087   4.647   1.253  13.135 -0.6600  0.6838 -1.5602
 6866TIP3   OH242088   1.728   4.104   5.568  0.1812  0.2176  0.3680
 6866TIP3    H142089   1.747   4.143   5.483 -0.1862 -0.7612 -0.1666
 6866TIP3    H242090   1.814   4.080   5.603  0.3630  0.9462  0.4470
 6867TIP3   OH242091   1.199   5.844   4.457 -0.7313 -0.5154 -0.0793
 6867TIP3    H142092   1.160   5.867   4.542 -1.2274  0.6441 -0.6056
 6867TIP3    H242093   1.159   5.761   4.434 -0.3472 -1.0170  0.9653
 6868TIP3   OH242094   6.022   2.679  11.041  0.6001 -0.0827 -0.4366
 6868TIP3    H142095   5.966   2.624  11.097  1.0746 -1.1426 -0.9756
 6868TIP3    H242096   5.973   2.761  11.033 -0.0886 -0.3801  0.4630
 6869TIP3   OH242097   3.110   4.456  13.624 -0.1683  0.4854 -0.3618
 6869TIP3    H142098   3.070   4.455  13.711 -2.0841 -0.7286 -1.2066
 6869TIP3    H242099   3.142   4.366  13.612 -0.5146  0.4613 -1.1635
 6870TIP3   OH242100   1.684   3.080  14.796  0.0704  0.5794 -0.2782
 6870TIP3    H142101   1.671   3.025  14.719 -2.1641 -1.9115  1.7041
 6870TIP3    H242102   1.623   3.153  14.785  0.1809  0.5525 -1.1082
 6871TIP3   OH242103   6.767   0.110  15.339 -0.2304 -0.6605 -0.2982
 6871TIP3    H142104   6.804   0.196  15.363 -0.9402  0.2800 -2.3600
 6871TIP3    H242105   6.844   0.054  15.327  0.3941  0.3476 -1.2418
 6872TIP3   OH242106   0.448   1.972   1.110  0.2672 -0.1361 -0.4569
 6872TIP3    H142107   0.480   2.004   1.195 -0.3738 -0.5934 -0.0344
 6872TIP3    H242108   0.391   2.042   1.078 -0.6143 -0.5542  0.1605
 6873TIP3   OH242109   4.614   2.111   2.175  0.6661 -0.0832  0.0765
 6873TIP3    H142110   4.553   2.058   2.225 -1.7900  2.6459  0.2730
 6873TIP3    H242111   4.581   2.107   2.085  1.0476  0.3008 -0.0859
 6874TIP3   OH242112   6.204   5.008  11.855  0.4208  0.2098  0.0591
 6874TIP3    H142113   6.169   5.093  11.880 -0.6210 -0.0078 -0.6197
 6874TIP3    H242114   6.265   4.986  11.926  0.0990  1.1414  0.6446
 6875TIP3   OH242115   6.522   5.833   2.553 -0.6435 -0.1785  0.0850
 6875TIP3    H142116   6.489   5.758   2.602  0.8191 -0.8968  0.0158
 6875TIP3    H242117   6.580   5.794   2.487  1.7501  1.0876  1.3209
 6876TIP3   OH242118   3.270   5.817  10.916 -0.4423  0.7780  0.6074
 6876TIP3    H142119   3.273   5.866  10.834 -0.3885 -0.3563 -0.0966
 6876TIP3    H242120   3.264   5.725  10.888  0.8452  0.2820  1.8633
 6877TIP3   OH242121   6.169   6.403  15.034 -0.2299  0.1519  0.1786
 6877TIP3    H142122   6.181   6.343  14.961 -1.5207  0.8586 -0.6604
 6877TIP3    H242123   6.186   6.350  15.112 -1.6261 -1.4021 -0.5101
 6878TIP3   OH242124   6.807   6.546  10.865 -0.0275  0.4311 -0.1077
 6878TIP3    H142125   6.834   6.476  10.806  0.6896  2.0704 -1.8584
 6878TIP3    H242126   6.742   6.596  10.815  0.6126  1.8870  0.4430
 6879TIP3   OH242127   6.090   6.505  13.281  0.0558  0.1409  0.9728
 6879TIP3    H142128   6.122   6.511  13.371  0.1128  1.8594  0.8585
 6879TIP3    H242129   6.019   6.569  13.276  1.4308  1.6513 -0.7574
 6880TIP3   OH242130   4.807   0.153  15.983  0.4804  0.1175  0.2809
 6880TIP3    H142131   4.812   0.079  15.922 -0.1674 -0.1568  0.5464
 6880TIP3    H242132   4.797   0.112  16.069  0.2135  0.5148  0.4423
 6881TIP3   OH242133   2.955   3.775  10.757 -0.2001  0.0346 -0.0091
 6881TIP3    H142134   2.941   3.821  10.674  0.6472  0.6434  0.1680
 6881TIP3    H242135   2.875   3.792  10.807 -0.6446 -0.1929 -0.6313
 6882TIP3   OH242136   0.812   2.522  16.263 -0.1394 -0.1473 -0.5286
 6882TIP3    H142137   0.873   2.510  16.190 -1.3013 -1.0584 -1.3896
 6882TIP3    H242138   0.785   2.613  16.257  1.3888  0.3781  0.0944
 6883TIP3   OH242139   3.287   2.452   4.846 -0.3095 -0.3848 -0.4652
 6883TIP3    H142140   3.251   2.363   4.846  0.7454 -0.8270 -0.0716
 6883TIP3    H242141   3.371   2.444   4.890  0.7668  0.4238 -2.2762
 6884TIP3   OH242142   0.076   2.677  15.391 -0.7170  0.3321 -0.2526
 6884TIP3    H142143   0.093   2.617  15.464  2.3290  0.4149 -0.7639
 6884TIP3    H242144   0.101   2.763  15.424 -2.7714  1.0214 -0.3127
 6885TIP3   OH242145   0.744   6.766  14.982  0.5014  0.3350 -0.2658
 6885TIP3    H142146   0.831   6.747  14.945  1.6845 -1.2239  2.8986
 6885TIP3    H242147   0.747   6.859  15.003  0.4262  0.8554 -2.2779
 6886TIP3   OH242148   0.840   0.563  16.612  0.0247 -0.2623 -0.2475
 6886TIP3    H142149   0.758   0.542  16.568 -0.1491 -0.3799  0.1337
 6886TIP3    H242150   0.883   0.625  16.553 -1.5752  1.9645  0.8083
 6887TIP3   OH242151   5.697   5.833   0.626 -0.1091 -0.0541  0.5390
 6887TIP3    H142152   5.664   5.843   0.715 -0.3467 -3.1904  0.8855
 6887TIP3    H242153   5.785   5.798   0.637  0.1766  0.3242 -0.4756
 6888TIP3   OH242154   3.728   5.071  12.793 -0.2591  0.1951  0.1648
 6888TIP3    H142155   3.738   5.025  12.709 -1.3933  0.6396 -0.2364
 6888TIP3    H242156   3.817   5.088  12.822  0.1578  0.0721 -0.9881
 6889TIP3   OH242157   3.254   2.977   1.443  0.1937  0.2176 -0.7415
 6889TIP3    H142158   3.163   2.971   1.415  1.0798 -0.7702 -3.8920
 6889TIP3    H242159   3.282   3.065   1.418  0.2104  0.4161 -0.0524
 6890TIP3   OH242160   2.736   0.571  16.298  0.3085  0.1825  0.4406
 6890TIP3    H142161   2.746   0.578  16.393  1.1740 -0.3744  0.3962
 6890TIP3    H242162   2.685   0.491  16.285 -0.2738  0.5459  0.4526
 6891TIP3   OH242163   2.625   6.386  13.264  0.2135  0.3135  0.3285
 6891TIP3    H142164   2.647   6.294  13.278  0.3798  0.4428  0.9305
 6891TIP3    H242165   2.709   6.429  13.250  0.2770  0.6317  1.5964
 6892TIP3   OH242166   2.846   3.212   3.497  0.2912  0.3674 -0.2015
 6892TIP3    H142167   2.771   3.216   3.438  0.8515  0.1992 -0.9389
 6892TIP3    H242168   2.903   3.284   3.468  0.4669  0.4315  0.2849
 6893TIP3   OH242169   2.022   2.498  16.264 -0.5787 -0.4043 -0.1761
 6893TIP3    H142170   1.975   2.485  16.182 -0.0187 -1.3360 -0.3696
 6893TIP3    H242171   1.981   2.437  16.325 -1.2881  0.6042  0.3725
 6894TIP3   OH242172   4.129   1.906  15.756  0.5529  0.0004  0.1859
 6894TIP3    H142173   4.194   1.973  15.739  0.1031  0.5466  0.5990
 6894TIP3    H242174   4.137   1.887  15.849  2.0306 -1.9577 -0.2663
 6895TIP3   OH242175   0.473   3.344   2.873  0.2264  0.1951  0.5377
 6895TIP3    H142176   0.423   3.281   2.925  1.7922 -0.7883  0.9185
 6895TIP3    H242177   0.470   3.425   2.924 -0.8974  0.1392  0.5845
 6896TIP3   OH242178   6.428   3.984   3.772 -0.5052  0.0392 -0.3771
 6896TIP3    H142179   6.402   3.999   3.863  2.6370  0.8430  0.5092
 6896TIP3    H242180   6.501   3.923   3.778 -1.1946 -1.1033 -2.5508
 6897TIP3   OH242181   5.481   0.375  13.660  0.3716  0.2616 -0.0185
 6897TIP3    H142182   5.415   0.408  13.599 -0.0978 -0.8574 -0.1325
 6897TIP3    H242183   5.545   0.330  13.605  0.0441 -0.5932  0.2837
 6898TIP3   OH242184   3.221   3.260  11.133  0.5989  0.4949 -0.5081
 6898TIP3    H142185   3.253   3.191  11.074  0.9543 -0.5993  0.9270
 6898TIP3    H242186   3.255   3.236  11.219  0.2478  2.1708  0.1311
 6899TIP3   OH242187   5.140   0.001   3.391  0.9212 -0.1615 -0.9323
 6899TIP3    H142188   5.205   0.066   3.419  1.3819 -0.7829 -0.5437
 6899TIP3    H242189   5.066   0.013   3.451  2.0098 -1.6747  0.8126
 6900TIP3   OH242190   0.553   4.265   2.565 -0.4792 -0.3641 -0.0200
 6900TIP3    H142191   0.470   4.310   2.549  0.6513  2.5321  1.4937
 6900TIP3    H242192   0.619   4.319   2.521  0.9367 -0.7085  1.5578
 6901TIP3   OH242193   3.463   5.365  11.207  0.7508 -0.0161 -0.4692
 6901TIP3    H142194   3.516   5.442  11.230  1.1095  0.1273 -1.6906
 6901TIP3    H242195   3.399   5.399  11.144  1.2457 -0.8064 -1.4214
 6902TIP3   OH242196   4.528   2.713   4.987 -0.1030  0.0729  0.9150
 6902TIP3    H142197   4.534   2.617   4.991 -0.5554 -0.0717 -0.8630
 6902TIP3    H242198   4.442   2.730   4.948  0.1354  1.1971  0.8413
 6903TIP3   OH242199   5.053   6.021   1.532  0.2408 -0.0120 -0.0063
 6903TIP3    H142200   5.031   6.092   1.592 -2.1059 -0.5908 -0.0785
 6903TIP3    H242201   5.057   6.062   1.446 -0.8727  0.0908 -0.0171
 6904TIP3   OH242202   5.364   1.960  15.691  0.6526 -0.5739 -0.5751
 6904TIP3    H142203   5.399   1.877  15.722  0.8820 -0.7480 -1.2972
 6904TIP3    H242204   5.435   2.000  15.641  0.2619 -0.3294 -0.9470
 6905TIP3   OH242205   5.724   3.014   3.373 -0.3661 -0.2576  0.1108
 6905TIP3    H142206   5.660   3.079   3.401 -1.4449 -0.6064 -1.3869
 6905TIP3    H242207   5.693   2.986   3.287  0.4775 -2.2283  0.4073
 6906TIP3   OH242208   4.096   3.782   4.182 -1.0106  0.6100 -0.6918
 6906TIP3    H142209   4.066   3.793   4.273 -0.2097  1.8598 -0.5544
 6906TIP3    H242210   4.016   3.760   4.133 -1.7530  1.5317  0.0500
 6907TIP3   OH242211   3.678   5.301   6.056  0.4507 -0.0741 -0.0242
 6907TIP3    H142212   3.600   5.355   6.051  0.5936  0.0660 -1.0126
 6907TIP3    H242213   3.663   5.231   5.992  0.7167 -0.5954  0.4788
 6908TIP3   OH242214   1.579   5.108   1.586 -0.2822 -0.3137 -0.8642
 6908TIP3    H142215   1.660   5.118   1.537  0.0476 -1.6985 -0.6439
 6908TIP3    H242216   1.580   5.017   1.616 -0.2441  0.5527  2.0673
 6909TIP3   OH242217   3.354   1.727   0.006 -0.3940  0.6833  0.2331
 6909TIP3    H142218   3.323   1.686  -0.075 -0.2459  0.0682  0.4815
 6909TIP3    H242219   3.443   1.757  -0.015  0.1060 -0.5310  0.5000
 6910TIP3   OH242220   6.028   4.304  15.689  0.2764 -0.1379  0.1615
 6910TIP3    H142221   5.987   4.341  15.768 -0.9340 -1.0764 -0.0109
 6910TIP3    H242222   6.054   4.381  15.638 -1.0384  0.4992  0.3969
 6911TIP3   OH242223   2.339   6.825  14.272 -0.1714  0.3655  0.7004
 6911TIP3    H142224   2.337   6.737  14.234 -0.4717  1.1760 -1.2664
 6911TIP3    H242225   2.337   6.810  14.367 -1.2758 -1.7075  0.4057
 6912TIP3   OH242226   2.380   2.729  11.103 -0.1874  0.0536 -0.3415
 6912TIP3    H142227   2.350   2.642  11.130 -0.7842 -0.1185 -1.5194
 6912TIP3    H242228   2.415   2.717  11.015 -0.3046  1.0041 -0.5341
 6913TIP3   OH242229   4.576   1.724  16.825  0.5972  0.0938 -0.2248
 6913TIP3    H142230   4.571   1.648  16.767  2.5958 -0.0675 -0.2757
 6913TIP3    H242231   4.653   1.772  16.795 -0.7579  2.3124 -0.3370
 6914TIP3   OH242232   6.391   5.462   0.439 -0.5087  0.0949 -0.2184
 6914TIP3    H142233   6.371   5.408   0.515 -0.6050  2.1802  1.3585
 6914TIP3    H242234   6.443   5.406   0.382 -0.0804 -1.4497  1.5849
 6915TIP3   OH242235   2.574   0.721   1.107 -0.5616 -0.3552 -0.0428
 6915TIP3    H142236   2.489   0.723   1.063 -0.6791 -1.5392  0.0760
 6915TIP3    H242237   2.637   0.712   1.035 -0.5777 -0.0583 -0.0957
 6916TIP3   OH242238   4.851   5.630  15.364  0.1658  0.0412  0.1133
 6916TIP3    H142239   4.797   5.672  15.298  0.1907  0.5132  0.3895
 6916TIP3    H242240   4.793   5.567  15.407  0.1420 -0.2402 -0.3326
 6917TIP3   OH242241   3.611   2.040  17.040 -0.0690 -0.5669  0.0298
 6917TIP3    H142242   3.580   2.082  17.120 -0.4806 -0.3924 -0.2173
 6917TIP3    H242243   3.700   2.073  17.028  0.4268 -1.4711  1.0335
 6918TIP3   OH242244   0.044   3.750  14.428 -0.3552 -0.3145 -0.6762
 6918TIP3    H142245  -0.012   3.825  14.407 -0.2417 -0.0771 -0.1446
 6918TIP3    H242246  -0.009   3.674  14.402  0.5192 -0.0461 -3.6481
 6919TIP3   OH242247   5.583   5.957  16.537 -0.0878 -0.2095 -0.6987
 6919TIP3    H142248   5.506   5.901  16.547 -0.2115  0.1096  0.1571
 6919TIP3    H242249   5.604   5.985  16.625  0.2014  0.7913 -1.0771
 6920TIP3   OH242250   5.570   2.978  13.925 -0.6562 -0.3408 -0.2074
 6920TIP3    H142251   5.621   3.036  13.982 -0.0384 -0.4718 -0.6100
 6920TIP3    H242252   5.532   2.913  13.983 -0.1279 -0.4052  0.0675
 6921TIP3   OH242253   4.828   4.211  12.396  0.0482 -0.3679  0.2794
 6921TIP3    H142254   4.829   4.256  12.311  0.4252  0.9753  0.9698
 6921TIP3    H242255   4.918   4.214  12.426  0.3849 -2.8720 -0.2547
 6922TIP3   OH242256   2.516   2.523   0.904 -0.4158 -0.2008  0.3708
 6922TIP3    H142257   2.523   2.438   0.860 -1.5210 -0.1960  0.1531
 6922TIP3    H242258   2.559   2.584   0.845  1.3158 -0.7499  1.0073
 6923TIP3   OH242259   5.517   3.083  14.774 -0.0029 -0.3028  0.3157
 6923TIP3    H142260   5.498   3.161  14.723  2.3981 -0.7111 -1.3674
 6923TIP3    H242261   5.438   3.029  14.767 -0.2964  0.3285 -1.7095
 6924TIP3   OH242262   2.341   5.418   3.526 -0.2683 -0.3776  0.1369
 6924TIP3    H142263   2.285   5.388   3.597  0.3999 -1.3724  0.2656
 6924TIP3    H242264   2.280   5.457   3.463 -1.1474 -1.6413  0.1560
 6925TIP3   OH242265   3.085   2.190   1.292 -0.5618  0.3266  0.1338
 6925TIP3    H142266   3.082   2.139   1.373 -0.5998 -1.5063 -0.9480
 6925TIP3    H242267   3.176   2.185   1.264 -0.7372  0.1362 -0.4148
 6926TIP3   OH242268   4.530   5.416   0.001  0.6581  0.1777  0.1479
 6926TIP3    H142269   4.462   5.351   0.019  0.4646  0.6498  1.1641
 6926TIP3    H242270   4.483   5.497  -0.016  0.9205  0.1845 -0.6116
 6927TIP3   OH242271   2.466   6.844   1.339  0.5458 -0.6540 -0.0557
 6927TIP3    H142272   2.377   6.876   1.328  0.3252 -1.6008 -1.3285
 6927TIP3    H242273   2.508   6.908   1.396 -0.7633  0.1445  0.0503
 6928TIP3   OH242274   6.148   2.919  15.325 -0.0667 -0.5132 -0.2231
 6928TIP3    H142275   6.088   2.847  15.346 -0.5931 -0.0097  0.0279
 6928TIP3    H242276   6.232   2.876  15.309 -0.7864 -1.3750 -1.9662
 6929TIP3   OH242277   5.936   1.350  11.574 -0.3680 -0.0117 -0.1630
 6929TIP3    H142278   5.983   1.403  11.509  0.5270 -1.1451 -0.4926
 6929TIP3    H242279   6.004   1.323  11.636 -1.1491  0.7566  1.0730
 6930TIP3   OH242280   0.320   3.453  14.321 -0.5906  0.1014 -0.0838
 6930TIP3    H142281   0.364   3.411  14.247  0.8970  1.0292  0.2393
 6930TIP3    H242282   0.329   3.547  14.304 -0.4748  0.3260  1.1209
 6931TIP3   OH242283   0.305   0.264  13.385 -0.1921  0.1829 -0.0049
 6931TIP3    H142284   0.292   0.244  13.477 -0.3804  0.4182  0.0206
 6931TIP3    H242285   0.260   0.193  13.339 -0.0208  0.0165  0.0836
 6932TIP3   OH242286   5.691   1.480   5.304 -0.5843 -0.0741 -0.2780
 6932TIP3    H142287   5.758   1.535   5.344  0.9298 -1.7854 -0.3013
 6932TIP3    H242288   5.681   1.407   5.365 -1.8116 -0.2779 -0.7037
 6933TIP3   OH242289   0.201   2.762   3.308 -0.3368 -0.2571  0.1448
 6933TIP3    H142290   0.122   2.730   3.265  1.0439 -0.5925 -2.2746
 6933TIP3    H242291   0.258   2.686   3.314  0.7972  0.5198 -0.5229
 6934TIP3   OH242292   3.763   4.098  16.732 -0.0737  0.2525 -0.0703
 6934TIP3    H142293   3.730   4.035  16.797 -1.9586  1.2786  0.0318
 6934TIP3    H242294   3.844   4.132  16.771 -0.6540  0.1417  1.2969
 6935TIP3   OH242295   3.791   1.579   3.356  0.3202  0.0637  0.1891
 6935TIP3    H142296   3.864   1.520   3.376  1.2214  1.1211  0.1315
 6935TIP3    H242297   3.756   1.604   3.441  0.5227  0.1555  0.2461
 6936TIP3   OH242298   4.542   6.195   5.130  0.5859 -0.0179  0.7597
 6936TIP3    H142299   4.540   6.127   5.063 -0.8468  0.6692  0.0668
 6936TIP3    H242300   4.465   6.178   5.185 -0.6125  1.7842 -0.2391
 6937TIP3   OH242301   2.373   6.077   5.931 -0.0309 -0.0669  0.4862
 6937TIP3    H142302   2.406   6.063   6.019  0.0879  0.4838  0.5277
 6937TIP3    H242303   2.388   6.169   5.913 -0.0657 -0.1697 -0.1060
 6938TIP3   OH242304   1.657   4.113  14.539  0.9411 -0.1838 -1.1858
 6938TIP3    H142305   1.605   4.035  14.519  0.0588  0.5041 -1.5898
 6938TIP3    H242306   1.679   4.103  14.632  3.1395 -2.2538 -1.8110
 6939TIP3   OH242307   0.777   4.541   3.977  0.0359 -0.0334  0.3133
 6939TIP3    H142308   0.855   4.571   4.025  2.3898 -0.3255 -2.9897
 6939TIP3    H242309   0.720   4.618   3.974 -0.0962  0.0794  3.1310
 6940TIP3   OH242310   6.268   4.746   5.025 -0.0953 -0.6971 -0.4270
 6940TIP3    H142311   6.174   4.760   5.034 -0.1185 -1.3410  0.4945
 6940TIP3    H242312   6.301   4.827   4.987 -0.8470  0.0373  0.4497
 6941TIP3   OH242313   1.596   3.052   4.464 -0.0595  0.0281 -0.1808
 6941TIP3    H142314   1.634   2.969   4.437 -0.7914 -0.3773  0.0011
 6941TIP3    H242315   1.586   3.045   4.559 -1.5946 -0.3325 -0.3446
 6942TIP3   OH242316   1.004   5.223  13.205 -0.5564  0.3271 -0.3392
 6942TIP3    H142317   1.051   5.229  13.288 -0.8643  0.4458 -0.1718
 6942TIP3    H242318   1.012   5.131  13.179 -0.6853  0.2369 -0.0495
 6943TIP3   OH242319   6.602   3.796  15.378  0.2281  0.4170  0.0995
 6943TIP3    H142320   6.610   3.786  15.473 -0.2417 -0.5655  0.0461
 6943TIP3    H242321   6.508   3.788  15.361  0.2331  1.2852 -0.3789
 6944TIP3   OH242322   3.748   1.019  14.991  0.2517  0.2829 -0.5422
 6944TIP3    H142323   3.744   1.109  14.959  1.6490  0.8164  0.6733
 6944TIP3    H242324   3.658   0.997  15.015 -0.3123  0.8948 -2.0261
 6945TIP3   OH242325   4.812   2.793   5.851  0.5120 -0.2296 -0.1690
 6945TIP3    H142326   4.740   2.782   5.914  1.8117  0.9609  1.6177
 6945TIP3    H242327   4.881   2.735   5.884  1.0086 -0.0582 -0.8872
 6946TIP3   OH242328   5.995   5.155   3.181  0.0360 -0.3001  0.0639
 6946TIP3    H142329   6.089   5.164   3.163  0.3249 -1.8786  0.6701
 6946TIP3    H242330   5.991   5.103   3.261 -1.3769 -1.2371 -0.5925
 6947TIP3   OH242331   3.304   5.058   5.840  0.1490  0.2200 -0.1464
 6947TIP3    H142332   3.230   5.049   5.900  1.9621 -0.8354  2.0411
 6947TIP3    H242333   3.323   4.968   5.812  2.4728  0.0064  1.7952
 6948TIP3   OH242334   3.953   4.220  11.736  0.0814 -0.4357 -0.6797
 6948TIP3    H142335   4.044   4.237  11.712 -0.4662  1.4704 -1.5506
 6948TIP3    H242336   3.902   4.254  11.662 -1.4280  0.2636  0.6366
 6949TIP3   OH242337   2.322   4.344  13.700  0.4349  0.2523 -0.2376
 6949TIP3    H142338   2.383   4.271  13.710 -0.2022 -0.4147 -1.0153
 6949TIP3    H242339   2.247   4.306  13.654  0.2121  1.4682 -0.9257
 6950TIP3   OH242340   3.969   2.335   3.367  0.0158 -0.2498 -0.7406
 6950TIP3    H142341   3.979   2.294   3.281  0.2641 -1.1203 -0.3063
 6950TIP3    H242342   3.947   2.263   3.425 -0.1184  0.3310 -0.0654
 6951TIP3   OH242343   2.584   4.963  11.616 -0.5185 -0.0518  0.2270
 6951TIP3    H142344   2.542   5.010  11.544 -2.1110  0.8516  1.6516
 6951TIP3    H242345   2.520   4.896  11.641  0.8672 -1.6935 -0.4464
 6952TIP3   OH242346   0.094   5.016  13.851 -0.2643 -0.4313 -0.0352
 6952TIP3    H142347   0.122   5.092  13.800  0.0311 -0.2359  0.4159
 6952TIP3    H242348   0.174   4.968  13.870 -0.4590 -0.9200 -0.4031
 6953TIP3   OH242349   4.907   3.964   4.884  0.0604 -0.1080  0.3653
 6953TIP3    H142350   4.868   3.898   4.826  0.4102 -0.4842  0.5503
 6953TIP3    H242351   4.832   4.005   4.927 -0.1494 -0.5902  0.4665
 6954TIP3   OH242352   0.283   4.364   6.032 -0.0931 -0.2828  0.3665
 6954TIP3    H142353   0.275   4.322   6.117 -1.2902  0.8349  0.8439
 6954TIP3    H242354   0.318   4.451   6.051  0.1691 -0.2208 -0.3519
 6955TIP3   OH242355   3.547   5.421   0.362 -0.2133  0.0934 -0.2990
 6955TIP3    H142356   3.586   5.383   0.283 -1.7058 -1.0620 -0.5417
 6955TIP3    H242357   3.535   5.513   0.342  1.8245  0.3692 -0.4094
 6956TIP3   OH242358   4.213   3.612  13.468 -0.0583 -0.3751  0.0235
 6956TIP3    H142359   4.216   3.700  13.505 -0.5266 -0.2805 -0.1560
 6956TIP3    H242360   4.278   3.613  13.398 -1.0212  0.2567 -0.8888
 6957TIP3   OH242361   5.832   1.255   1.134 -0.2935  0.0694 -0.1924
 6957TIP3    H142362   5.873   1.285   1.215 -1.3280 -0.4494  0.5467
 6957TIP3    H242363   5.776   1.182   1.161 -0.1384 -0.5552 -1.4839
 6958TIP3   OH242364   2.590   0.785  12.844  0.1870  0.0849  0.3708
 6958TIP3    H142365   2.579   0.789  12.749  2.6603  3.0467  0.0414
 6958TIP3    H242366   2.645   0.708  12.859  0.4873  0.0723 -0.7117
 6959TIP3   OH242367   5.865   6.619  12.196  0.7054 -0.7448 -0.4322
 6959TIP3    H142368   5.828   6.694  12.242 -0.9443 -0.8287 -1.5290
 6959TIP3    H242369   5.956   6.643  12.178  0.4222  0.6536 -0.0631
 6960TIP3   OH242370   5.972   0.744   3.849  0.6470 -0.1780  0.4078
 6960TIP3    H142371   5.987   0.832   3.814  0.6816  1.1736  3.5299
 6960TIP3    H242372   5.980   0.686   3.773 -1.0396  2.6220 -2.0807
 6961TIP3   OH242373   3.337   5.112   4.198 -0.3063 -0.0927 -0.3109
 6961TIP3    H142374   3.388   5.184   4.161 -0.6534  1.6894  2.4125
 6961TIP3    H242375   3.269   5.154   4.249  0.5135 -2.2605  2.8403
 6962TIP3   OH242376   2.755   4.592   6.159 -0.8410  0.1073 -0.2953
 6962TIP3    H142377   2.719   4.519   6.210 -0.7990 -0.0195 -0.4496
 6962TIP3    H242378   2.708   4.669   6.193  1.2303  0.4744  2.0358
 6963TIP3   OH242379   1.020   0.885   0.777 -0.4375  0.5044  0.4922
 6963TIP3    H142380   0.933   0.890   0.817  0.3946  2.4014  2.2664
 6963TIP3    H242381   1.079   0.866   0.850  0.9596  2.3130 -0.0782
 6964TIP3   OH242382   4.504   1.806  14.445  0.1185  0.7657  0.7720
 6964TIP3    H142383   4.480   1.779  14.533  1.7891 -1.0481  0.7436
 6964TIP3    H242384   4.600   1.813  14.447  0.5926 -2.3865 -1.5436
 6965TIP3   OH242385   1.309   1.886  15.568 -0.2927  0.4112 -0.2232
 6965TIP3    H142386   1.273   1.799  15.548  2.4451 -0.9392  0.2773
 6965TIP3    H242387   1.371   1.903  15.497  1.0018  0.8131  0.9525
 6966TIP3   OH242388   2.575   2.615   3.522  0.1253  0.0138  0.8374
 6966TIP3    H142389   2.657   2.566   3.513 -0.6273 -0.9236 -1.5585
 6966TIP3    H242390   2.603   2.704   3.542  1.8437  0.0438 -1.3645
 6967TIP3   OH242391   4.272   5.683   0.484 -0.1774  0.2131  0.3827
 6967TIP3    H142392   4.360   5.681   0.521 -0.3188 -0.8860  0.6873
 6967TIP3    H242393   4.284   5.721   0.396  0.4403  0.9937  0.7947
 6968TIP3   OH242394   1.885   0.694   2.697  0.2015 -0.0091  0.3888
 6968TIP3    H142395   1.871   0.728   2.786 -1.6052 -1.1365  0.5880
 6968TIP3    H242396   1.861   0.768   2.640 -1.6490 -0.2089  0.8398
 6969TIP3   OH242397   0.627   2.613  13.428 -0.7769 -0.7816 -0.2147
 6969TIP3    H142398   0.555   2.675  13.441 -0.9045 -1.1164  0.8202
 6969TIP3    H242399   0.706   2.665  13.434 -0.8622 -0.7782  1.2295
 6970TIP3   OH242400   1.103   1.450   2.818 -0.2309 -0.4367 -0.5061
 6970TIP3    H142401   1.133   1.360   2.829  0.0058 -0.4906 -1.5105
 6970TIP3    H242402   1.124   1.493   2.900 -0.8254 -1.4276  0.1920
 6971TIP3   OH242403   2.563   1.747  11.309 -0.1636  0.3771 -0.2429
 6971TIP3    H142404   2.571   1.683  11.238 -0.4903  0.4886 -0.3819
 6971TIP3    H242405   2.593   1.700  11.387 -0.9996 -0.1534 -0.2298
 6972TIP3   OH242406   3.437   1.005   3.004  0.4048 -0.1967 -0.0360
 6972TIP3    H142407   3.408   0.952   2.930 -1.2659 -1.2102  1.2915
 6972TIP3    H242408   3.530   0.985   3.013  0.9038  0.6982 -2.4136
 6973TIP3   OH242409   5.281   3.388   2.949  0.2807  0.1662 -0.0015
 6973TIP3    H142410   5.231   3.341   3.016  0.4402 -0.3443 -0.2337
 6973TIP3    H242411   5.225   3.388   2.872  0.9144 -1.0604 -0.4901
 6974TIP3   OH242412   0.009   4.896  13.469 -0.0468  0.1424  0.0822
 6974TIP3    H142413   0.039   4.892  13.560  0.6641 -0.2085 -0.1628
 6974TIP3    H242414   0.057   4.970  13.432  1.6966 -1.3033 -0.7096
 6975TIP3   OH242415   0.187   4.832   5.859  0.8056  0.1555  0.4296
 6975TIP3    H142416   0.257   4.817   5.923  0.8114  0.3872  0.4786
 6975TIP3    H242417   0.107   4.835   5.911  0.9418  1.5892  0.5837
 6976TIP3   OH242418   6.574   3.712  14.944 -0.1555  0.0030  0.0096
 6976TIP3    H142419   6.547   3.803  14.930  0.7801  0.4902  1.1689
 6976TIP3    H242420   6.604   3.710  15.035  1.8510 -0.9427 -0.6168
 6977TIP3   OH242421   4.005   4.360  15.775 -0.3007  0.0381 -0.3015
 6977TIP3    H142422   4.098   4.369  15.795 -0.5035 -0.9844  1.3047
 6977TIP3    H242423   4.002   4.333  15.684  1.1476 -2.3818  0.2793
 6978TIP3   OH242424   1.358   0.006   0.582  0.3236 -0.0272  0.4319
 6978TIP3    H142425   1.263  -0.003   0.569  0.1409  1.4414  0.5740
 6978TIP3    H242426   1.366   0.037   0.672  1.0321 -1.1624  0.7868
 6979TIP3   OH242427   5.610   5.730   1.855  0.2325 -0.2171 -0.2224
 6979TIP3    H142428   5.520   5.696   1.852  0.9417 -2.2198 -0.2612
 6979TIP3    H242429   5.621   5.772   1.770 -0.2389 -1.1773 -0.7815
 6980TIP3   OH242430   5.302   5.923   2.135 -0.4107 -0.0844 -0.0054
 6980TIP3    H142431   5.273   5.839   2.100 -0.3981 -0.6730  1.3480
 6980TIP3    H242432   5.337   5.969   2.059  1.8179 -2.2418 -0.4303
 6981TIP3   OH242433   0.204   4.882  11.703 -1.2000  0.1195  0.7095
 6981TIP3    H142434   0.205   4.799  11.750 -0.9311 -0.6739 -0.6537
 6981TIP3    H242435   0.186   4.947  11.770 -0.0403 -0.8740  2.0378
 6982TIP3   OH242436   4.635   2.475  16.616 -0.0945 -0.2262  0.5091
 6982TIP3    H142437   4.617   2.420  16.539 -0.5445  0.4346  0.1323
 6982TIP3    H242438   4.550   2.514  16.637  0.0215 -0.4143  1.3646
 6983TIP3   OH242439   3.063   5.455   2.799  0.5143  0.2569  0.4931
 6983TIP3    H142440   3.089   5.545   2.821 -1.4659  0.4922  2.1176
 6983TIP3    H242441   3.118   5.400   2.855  0.1392  0.5701  1.1806
 6984TIP3   OH242442   5.341   4.190   4.274  0.4182 -0.4062 -0.4081
 6984TIP3    H142443   5.356   4.223   4.363  1.9064  1.3494 -1.2692
 6984TIP3    H242444   5.412   4.127   4.260  1.9981  1.4764 -1.3393
 6985TIP3   OH242445   2.720   2.649  15.500 -0.4418 -0.1525 -1.2822
 6985TIP3    H142446   2.776   2.723  15.523 -0.5628 -0.3082 -0.4813
 6985TIP3    H242447   2.650   2.688  15.448 -0.1420  0.1911 -1.4382
 6986TIP3   OH242448   4.892   3.715   4.445  0.2081  0.0249  0.1873
 6986TIP3    H142449   4.971   3.759   4.415  0.3428  0.8688  1.6934
 6986TIP3    H242450   4.821   3.774   4.421  0.4379  1.4975  2.7788
 6987TIP3   OH242451   2.601   1.843   2.018 -0.3613  0.4589 -0.4891
 6987TIP3    H142452   2.686   1.834   1.975 -0.0540  1.3776 -0.1174
 6987TIP3    H242453   2.553   1.905   1.964  0.6688  3.0106  1.3039
 6988TIP3   OH242454   4.418   1.165  11.383 -0.4459  0.6577  0.1639
 6988TIP3    H142455   4.422   1.239  11.323  0.5857  1.1918  0.8571
 6988TIP3    H242456   4.380   1.094  11.331 -0.5595  1.3984 -0.7942
 6989TIP3   OH242457   0.503   0.346   5.827 -0.2345  0.5299 -0.0444
 6989TIP3    H142458   0.412   0.369   5.848  0.2039  2.6163 -0.2270
 6989TIP3    H242459   0.556   0.406   5.879  1.0794 -0.5674 -0.0362
 6990TIP3   OH242460   5.507   6.465   5.593  0.0064 -0.8281 -0.4140
 6990TIP3    H142461   5.590   6.497   5.629  0.2638 -1.9976  0.1028
 6990TIP3    H242462   5.442   6.527   5.623  0.5366 -0.5670  0.2150
 6991TIP3   OH242463   3.048   3.657   5.135  0.0742  0.3936  0.3949
 6991TIP3    H142464   2.956   3.660   5.161  0.6406 -0.7866  2.7526
 6991TIP3    H242465   3.095   3.635   5.215  2.6267  2.7376 -0.3094
 6992TIP3   OH242466   0.355   3.132  10.808  0.3797  0.0421 -0.0886
 6992TIP3    H142467   0.313   3.199  10.861 -0.4156 -0.5644  0.0654
 6992TIP3    H242468   0.431   3.176  10.769 -0.0483  0.9855  0.1169
 6993TIP3   OH242469   6.548   1.818  11.984 -0.4723  0.3077  0.1255
 6993TIP3    H142470   6.575   1.734  12.020 -2.9405  0.5726  3.0015
 6993TIP3    H242471   6.610   1.881  12.019 -1.8479  0.3203  2.8117
 6994TIP3   OH242472   1.811   3.548   3.597  0.2490 -0.7854 -0.1553
 6994TIP3    H142473   1.882   3.606   3.624 -1.4435  1.2762  0.0929
 6994TIP3    H242474   1.751   3.605   3.549 -0.8807 -2.6360 -1.0262
 6995TIP3   OH242475   1.320   4.815  11.390  0.0757 -0.0302  0.3155
 6995TIP3    H142476   1.324   4.845  11.481  0.8850 -0.9645  0.6121
 6995TIP3    H242477   1.260   4.740  11.393 -2.0072  1.5230 -0.4289
 6996TIP3   OH242478   6.609   1.925  15.572 -0.7261  0.4578  0.4695
 6996TIP3    H142479   6.641   1.964  15.653  1.2490  1.4900 -0.7184
 6996TIP3    H242480   6.632   1.832  15.579 -1.2624  0.3875  1.3883
 6997TIP3   OH242481   4.515   1.255   6.072 -0.8635  0.2076  0.2868
 6997TIP3    H142482   4.489   1.338   6.033 -2.5328 -0.3901  0.0338
 6997TIP3    H242483   4.470   1.254   6.157 -1.1097 -0.5563  0.1552
 6998TIP3   OH242484   4.722   3.681  16.674 -0.4851 -0.0820 -0.4217
 6998TIP3    H142485   4.635   3.717  16.657 -1.1953 -1.4824  0.0490
 6998TIP3    H242486   4.713   3.635  16.757  1.0200  0.6673  0.1880
 6999TIP3   OH242487   2.404   0.347  13.144 -0.6748 -0.0482 -0.3577
 6999TIP3    H142488   2.422   0.434  13.108  0.6974 -0.0457  0.2783
 6999TIP3    H242489   2.318   0.355  13.185 -0.4205  1.1114 -0.0231
 7000TIP3   OH242490   6.643   4.324  16.609  0.3427  0.4398 -0.3898
 7000TIP3    H142491   6.592   4.247  16.583 -0.9414  0.5008  1.7130
 7000TIP3    H242492   6.595   4.399  16.574  0.4294  0.3860 -0.6250
 7001TIP3   OH242493   5.798   4.051  15.681  0.1641 -0.4893 -0.1233
 7001TIP3    H142494   5.894   4.056  15.680  0.2181 -1.2949 -1.3920
 7001TIP3    H242495   5.769   4.141  15.665  0.7301 -0.3527 -0.4274
 7002TIP3   OH242496   5.221   1.287   1.597 -0.3516  0.1496 -0.5126
 7002TIP3    H142497   5.239   1.212   1.540 -2.2012 -0.5439 -0.2669
 7002TIP3    H242498   5.130   1.273   1.626  0.3891  0.6290  2.3382
 7003TIP3   OH242499   4.455   6.411  13.203  0.2033  0.2108  0.0438
 7003TIP3    H142500   4.541   6.389  13.168 -0.0077  0.5205 -0.6863
 7003TIP3    H242501   4.393   6.369  13.144 -0.1487 -0.1926  0.6947
 7004TIP3   OH242502   2.212   3.857  14.211  0.2060  0.4724 -0.5676
 7004TIP3    H142503   2.172   3.775  14.238 -0.7126  0.0525 -2.9266
 7004TIP3    H242504   2.227   3.847  14.117  2.3939  2.0879 -0.4886
 7005TIP3   OH242505   4.181   3.615   2.319 -0.2983  0.2584  0.3369
 7005TIP3    H142506   4.220   3.664   2.247  0.1864  1.3762  1.3391
 7005TIP3    H242507   4.254   3.594   2.377 -0.8574  0.4968  1.1469
 7006TIP3   OH242508   3.054   1.963  11.662  0.6684 -0.6704  0.0309
 7006TIP3    H142509   3.132   1.923  11.700  1.2668 -0.0528 -0.5205
 7006TIP3    H242510   3.072   1.968  11.568 -0.2370 -0.9576 -0.1639
 7007TIP3   OH242511   6.572   1.688  15.322  0.3196  0.3067 -0.5086
 7007TIP3    H142512   6.649   1.723  15.366  0.5192 -0.5761 -0.1306
 7007TIP3    H242513   6.593   1.692  15.229  0.7656  0.2050 -0.4107
 7008TIP3   OH242514   5.564   0.749  12.693 -0.5360  0.0984  0.3609
 7008TIP3    H142515   5.518   0.672  12.726 -1.6939 -0.7737 -2.8803
 7008TIP3    H242516   5.503   0.822  12.707 -2.0400 -0.6566 -1.7661
 7009TIP3   OH242517   2.353   1.732   2.987 -0.3727  0.2069  0.6233
 7009TIP3    H142518   2.374   1.656   2.933  1.4821  2.0279 -1.4187
 7009TIP3    H242519   2.271   1.766   2.950 -0.3555  0.1113  0.4967
 7010TIP3   OH242520   2.917   1.090   2.394  0.0060  0.6651 -0.0707
 7010TIP3    H142521   2.930   0.997   2.414  0.4997  0.5507 -0.8761
 7010TIP3    H242522   2.931   1.135   2.478 -0.1787  0.0262  0.3107
 7011TIP3   OH242523   3.526   2.208  16.336 -0.1105 -0.1680  0.6364
 7011TIP3    H142524   3.481   2.277  16.287 -1.2563 -1.0173  0.4472
 7011TIP3    H242525   3.591   2.174  16.274 -0.9799 -0.6689 -0.0269
 7012TIP3   OH242526   5.774   2.476   2.570 -0.6309  0.2809 -0.1775
 7012TIP3    H142527   5.757   2.570   2.576 -1.9051  0.0447  0.1987
 7012TIP3    H242528   5.695   2.435   2.605 -0.5856 -0.9544 -1.4330
 7013TIP3   OH242529   6.086   1.817  14.664  0.1352 -0.0605  0.3619
 7013TIP3    H142530   6.016   1.859  14.613  0.6272  1.3162  0.7630
 7013TIP3    H242531   6.041   1.755  14.720 -0.4347 -1.5680 -1.6463
 7014TIP3   OH242532   2.072   0.804   0.056  0.2032 -0.2098  0.0741
 7014TIP3    H142533   2.024   0.886   0.071 -1.1829 -0.7651 -1.0576
 7014TIP3    H242534   2.038   0.744   0.122 -0.8950 -0.6726 -0.8755
 7015TIP3   OH242535   1.245   2.572  12.706  0.9667  0.4218  0.5734
 7015TIP3    H142536   1.268   2.511  12.636 -0.5087  0.3027  0.1641
 7015TIP3    H242537   1.228   2.516  12.782  0.1953  0.3607  0.3595
 7016TIP3   OH242538   4.640   3.752  16.089 -0.3119 -0.5016  0.1541
 7016TIP3    H142539   4.573   3.802  16.044  0.9103  1.4299  0.3294
 7016TIP3    H242540   4.679   3.697  16.022 -1.5108 -1.0367 -0.1150
 7017TIP3   OH242541   0.514   3.829   2.357 -0.1207 -0.1533  0.2985
 7017TIP3    H142542   0.559   3.875   2.428 -2.6621  1.1740  1.1923
 7017TIP3    H242543   0.421   3.831   2.383 -0.9519 -1.0250 -2.3315
 7018TIP3   OH242544   2.529   3.453  13.715  0.2537 -0.4514 -0.5464
 7018TIP3    H142545   2.504   3.517  13.782  0.1005 -0.4364 -0.6180
 7018TIP3    H242546   2.609   3.413  13.749  0.0201 -0.6443 -0.2239
 7019TIP3   OH242547   0.690   6.533  15.366  0.0274 -0.3212 -0.4106
 7019TIP3    H142548   0.633   6.577  15.429 -0.7152 -0.4701 -0.9522
 7019TIP3    H242549   0.667   6.440  15.375 -1.2864 -0.2089 -2.0002
 7020TIP3   OH242550   6.652   2.992   5.654 -0.5040 -0.2370 -0.2486
 7020TIP3    H142551   6.736   3.034   5.636 -1.6144  1.8051 -0.9698
 7020TIP3    H242552   6.645   2.923   5.587 -0.7929  1.7118 -2.3573
 7021TIP3   OH242553   2.274   1.421   5.673 -0.4004  0.2533 -0.8139
 7021TIP3    H142554   2.315   1.485   5.730 -0.0475  2.0150 -2.9194
 7021TIP3    H242555   2.189   1.403   5.713  0.7471 -0.3967  1.4651
 7022TIP3   OH242556   2.270   4.738   4.117  0.0194 -0.1276  0.5301
 7022TIP3    H142557   2.323   4.659   4.128  1.2386  0.5059 -0.5796
 7022TIP3    H242558   2.270   4.780   4.203 -0.7596 -1.3717  1.1740
 7023TIP3   OH242559   3.278   2.676  10.483 -0.1997 -0.4792  0.2474
 7023TIP3    H142560   3.264   2.682  10.388 -0.3355  0.4111  0.3144
 7023TIP3    H242561   3.226   2.747  10.519 -0.7824 -1.3115  1.0689
 7024TIP3   OH242562   4.315   2.700   4.835  0.1559  0.2887 -0.6946
 7024TIP3    H142563   4.224   2.729   4.825 -0.1563 -0.4087 -0.0005
 7024TIP3    H242564   4.327   2.636   4.765  0.3008  0.8174 -1.1547
 7025TIP3   OH242565   6.744   3.535   0.503 -0.4026 -0.4194  0.1209
 7025TIP3    H142566   6.794   3.456   0.526 -0.8010 -1.5531 -2.5357
 7025TIP3    H242567   6.657   3.502   0.479  0.0102  0.4712 -3.0556
 7026TIP3   OH242568   0.012   1.563   5.412  0.3910 -0.3715  0.3405
 7026TIP3    H142569  -0.039   1.551   5.492  1.3891  0.8694  1.1917
 7026TIP3    H242570  -0.043   1.526   5.343 -1.1408 -0.1241  1.3815
 7027TIP3   OH242571   6.609   5.501  15.899 -0.5241 -0.4583  0.5286
 7027TIP3    H142572   6.678   5.493  15.833 -0.5004 -0.8876  0.5992
 7027TIP3    H242573   6.535   5.453  15.861 -0.2924 -1.2909  1.0947
 7028TIP3   OH242574   2.323   5.299  13.314 -0.0318 -0.1635 -0.2640
 7028TIP3    H142575   2.237   5.263  13.291 -0.5180 -0.1932  1.4292
 7028TIP3    H242576   2.352   5.244  13.387  1.3271  0.0031 -0.6588
 7029TIP3   OH242577   5.902   4.650  12.851  0.0578 -0.0392  0.1899
 7029TIP3    H142578   5.966   4.693  12.908  0.1447  0.5271 -0.3294
 7029TIP3    H242579   5.921   4.557  12.861  0.9513  0.1187  0.0722
 7030TIP3   OH242580   5.391   5.062   2.528 -0.2714 -0.2044  0.4816
 7030TIP3    H142581   5.297   5.046   2.535 -0.2397  0.1746  2.4965
 7030TIP3    H242582   5.432   4.987   2.571  0.3357 -0.2057 -0.0873
 7031TIP3   OH242583   2.833   2.415  13.988 -0.1920  0.2387  0.1770
 7031TIP3    H142584   2.903   2.473  13.959 -0.2833 -0.4489 -1.5788
 7031TIP3    H242585   2.816   2.440  14.079  1.4889  1.2205  0.2557
 7032TIP3   OH242586   4.818   1.342   5.130 -0.8032 -0.2880 -0.5527
 7032TIP3    H142587   4.897   1.292   5.107 -1.1323 -0.6259 -0.9542
 7032TIP3    H242588   4.774   1.287   5.195 -1.2993 -0.6466 -1.1879
 7033TIP3   OH242589   3.478   0.174  11.455  0.3358  0.3166  0.0225
 7033TIP3    H142590   3.471   0.082  11.480 -1.0271  0.4111  0.0345
 7033TIP3    H242591   3.395   0.194  11.413 -0.4156  2.2060  2.2235
 7034TIP3   OH242592   6.544   3.332   3.421  0.0077 -0.3654 -0.4694
 7034TIP3    H142593   6.555   3.306   3.330 -0.4455 -1.9609 -0.0925
 7034TIP3    H242594   6.633   3.345   3.453  0.1601  0.6880 -1.2389
 7035TIP3   OH242595   4.823   4.428   5.484  0.1113  0.8345 -0.1348
 7035TIP3    H142596   4.762   4.478   5.537 -0.2596  1.1591 -0.8640
 7035TIP3    H242597   4.833   4.479   5.403 -0.0287 -0.0973 -0.7557
 7036TIP3   OH242598   5.374   4.730   3.132 -0.6212  0.0475  0.4372
 7036TIP3    H142599   5.379   4.777   3.049  0.1090  1.4597  1.2401
 7036TIP3    H242600   5.405   4.642   3.112  0.1999  0.5644 -0.6571
 7037TIP3   OH242601   0.089   1.676   5.725  0.4635 -0.4682 -0.4343
 7037TIP3    H142602   0.172   1.714   5.698  2.1577 -0.8044  3.5437
 7037TIP3    H242603   0.058   1.734   5.795 -2.8118 -0.2872 -1.8313
 7038TIP3   OH242604   6.550   5.024   1.367 -0.5139 -0.2732 -0.7964
 7038TIP3    H142605   6.619   4.960   1.347 -1.2594 -1.4660  0.3294
 7038TIP3    H242606   6.469   4.972   1.368 -1.1491  0.7169  0.0064
 7039TIP3   OH242607   3.715   4.852   2.719  0.3337  0.5099 -0.6340
 7039TIP3    H142608   3.759   4.767   2.709 -0.6420 -0.2798  1.2966
 7039TIP3    H242609   3.681   4.871   2.631  0.3080 -1.2683 -1.0583
 7040TIP3   OH242610   3.191   3.881   3.239 -0.1432  0.0234  0.0479
 7040TIP3    H142611   3.184   3.943   3.311 -1.0122  0.2747 -0.2331
 7040TIP3    H242612   3.184   3.795   3.280 -1.8790  0.1809  0.1778
 7041TIP3   OH242613   3.970   6.830   4.088  0.2283 -0.4104 -0.4078
 7041TIP3    H142614   3.982   6.774   4.165 -0.7385  1.2023  1.0059
 7041TIP3    H242615   3.985   6.918   4.121  0.2353  0.2900 -2.2062
 7042TIP3   OH242616   0.448   6.559  14.747  0.8318 -0.4059 -0.1194
 7042TIP3    H142617   0.433   6.648  14.780 -0.6431 -0.5559 -0.3002
 7042TIP3    H242618   0.424   6.503  14.821  2.0443 -0.6703  0.0941
 7043TIP3   OH242619   2.506   4.219   3.543  0.4938 -0.0653 -0.2953
 7043TIP3    H142620   2.483   4.246   3.632  1.6842 -0.6576  0.2004
 7043TIP3    H242621   2.430   4.169   3.513  0.4384 -0.6113  0.7121
 7044TIP3   OH242622   3.512   1.024  11.287  0.4263  0.4233 -0.5455
 7044TIP3    H142623   3.524   0.936  11.320 -0.4489  0.4418 -0.1536
 7044TIP3    H242624   3.484   1.012  11.196  1.2455  0.3319 -0.7934
 7045TIP3   OH242625   6.670   4.124  14.704 -0.2076  0.4161 -0.5527
 7045TIP3    H142626   6.668   4.207  14.657  0.8468 -0.1024 -1.5336
 7045TIP3    H242627   6.639   4.059  14.641  0.1720 -0.1277 -0.1862
 7046TIP3   OH242628   0.631   2.301   0.004  0.5177 -0.2620  0.5027
 7046TIP3    H142629   0.542   2.303  -0.031  0.3306  0.0896  0.9876
 7046TIP3    H242630   0.619   2.291   0.099  0.8990  1.9948  0.8558
 7047TIP3   OH242631   2.466   6.259   2.079  0.2122 -0.3514  0.0180
 7047TIP3    H142632   2.535   6.230   2.138  0.4719  0.7583  0.2848
 7047TIP3    H242633   2.486   6.216   1.996  1.2623 -0.0211  0.0799
 7048TIP3   OH242634   5.781   3.408   0.579 -0.3011 -0.0891  0.1633
 7048TIP3    H142635   5.701   3.383   0.626 -1.1080 -1.4827 -1.7905
 7048TIP3    H242636   5.751   3.472   0.515  0.9378  2.4686  1.9930
 7049TIP3   OH242637   0.028   0.103   5.265  0.4712  0.1708  0.4142
 7049TIP3    H142638   0.014   0.152   5.346 -1.5773  0.5649 -0.1227
 7049TIP3    H242639   0.118   0.125   5.240  0.4114  1.7892  1.4300
 7050TIP3   OH242640   1.424   4.267  14.011 -0.3010  0.0866  0.5273
 7050TIP3    H142641   1.420   4.345  13.956 -1.2079 -0.6600 -0.5012
 7050TIP3    H242642   1.458   4.299  14.095  1.1937  1.2277 -0.4661
 7051TIP3   OH242643   4.702   2.394  11.645 -0.3683  0.5034 -0.1648
 7051TIP3    H142644   4.645   2.443  11.586  0.5298  0.5168 -1.0368
 7051TIP3    H242645   4.784   2.443  11.646  0.2900 -0.5659 -0.4566
 7052TIP3   OH242646   3.498   4.223   0.115  0.5497  0.6272  0.0464
 7052TIP3    H142647   3.480   4.291   0.180 -0.2027  1.0862 -0.6182
 7052TIP3    H242648   3.575   4.254   0.068  2.7989 -0.9783  2.4031
 7053TIP3   OH242649   1.694   2.282   5.962  0.2645  0.4426 -0.0282
 7053TIP3    H142650   1.731   2.333   6.034  2.7602 -0.4726 -0.5614
 7053TIP3    H242651   1.688   2.193   5.996 -0.7691  0.4148 -0.2390
 7054TIP3   OH242652   3.184   2.914  14.464  0.2833  0.0421 -0.0957
 7054TIP3    H142653   3.269   2.945  14.495 -0.0706  1.5918 -0.5924
 7054TIP3    H242654   3.192   2.912  14.368 -0.2158  0.1359 -0.1457
 7055TIP3   OH242655   0.827   1.402   2.987 -0.5168  0.3537 -0.2320
 7055TIP3    H142656   0.897   1.336   2.987 -1.2033 -0.4422  1.3157
 7055TIP3    H242657   0.806   1.413   3.080 -1.2465  1.8875 -0.5561
 7056TIP3   OH242658   1.123   3.729   6.338  0.6570 -0.1556 -0.9030
 7056TIP3    H142659   1.121   3.746   6.244 -2.6364  0.4262 -0.8601
 7056TIP3    H242660   1.091   3.810   6.378  2.4941 -0.2002  0.8033
 7057TIP3   OH242661   0.620   0.031  13.990 -0.2082 -0.0154  0.8295
 7057TIP3    H142662   0.641  -0.010  14.074 -1.7135 -2.1250  0.2342
 7057TIP3    H242663   0.544   0.086  14.009 -0.2809 -0.1496  0.9286
 7058TIP3   OH242664   1.208   3.551  16.857  0.2301 -0.5438  0.9961
 7058TIP3    H142665   1.243   3.498  16.786  0.2175 -0.4200  0.8981
 7058TIP3    H242666   1.208   3.492  16.933 -0.2735 -0.8467  0.7703
 7059TIP3   OH242667   2.728   5.556  15.893 -0.0619  0.4483  0.1783
 7059TIP3    H142668   2.712   5.463  15.909  2.1324  0.0521  0.4625
 7059TIP3    H242669   2.784   5.583  15.965 -2.2672  2.5739  1.2306
 7060TIP3   OH242670   3.369   0.252   1.179 -0.0651 -0.2606 -0.5633
 7060TIP3    H142671   3.346   0.338   1.216 -0.1378 -0.3075 -0.4980
 7060TIP3    H242672   3.287   0.203   1.183  0.7154 -1.5704  2.7140
 7061TIP3   OH242673   6.270   3.951   5.834 -0.2407 -0.2320  0.2232
 7061TIP3    H142674   6.305   4.031   5.873 -1.1118  0.9541 -1.3159
 7061TIP3    H242675   6.213   3.914   5.901 -1.4049  1.5360  0.2622
 7062TIP3   OH242676   2.305   2.646   5.524  0.2931  0.1344 -0.8552
 7062TIP3    H142677   2.328   2.716   5.585  1.2866 -0.7815 -0.1619
 7062TIP3    H242678   2.223   2.610   5.558  1.2526 -0.9009  0.4172
 7063TIP3   OH242679   4.571   5.015   2.385  0.2243  0.2957 -0.2554
 7063TIP3    H142680   4.626   5.065   2.325  0.8122 -0.2893 -0.2163
 7063TIP3    H242681   4.484   5.015   2.344  0.6777 -0.3326 -1.2466
 7064TIP3   OH242682   6.089   0.204  11.007  0.3638 -0.1053  0.1258
 7064TIP3    H142683   6.078   0.111  11.024  0.6256 -0.3271 -0.8462
 7064TIP3    H242684   6.081   0.246  11.093  1.1232 -1.1017  0.7013
 7065TIP3   OH242685   3.668   5.714  13.236 -0.8460  0.2851  0.0272
 7065TIP3    H142686   3.603   5.736  13.302 -0.9132  0.9848 -0.2651
 7065TIP3    H242687   3.626   5.734  13.152 -0.4245  0.3031 -0.1828
 7066TIP3   OH242688   4.972   1.745  14.302  0.1696 -0.3156 -0.0077
 7066TIP3    H142689   5.035   1.744  14.375 -0.9716 -0.0238  1.0137
 7066TIP3    H242690   5.011   1.805  14.238  1.6398 -1.2966 -0.0706
 7067TIP3   OH242691   6.299   4.049  13.314  0.0645  0.1063  0.1499
 7067TIP3    H142692   6.281   3.967  13.361 -2.3947  0.8220  0.6312
 7067TIP3    H242693   6.369   4.091  13.364 -0.1923 -0.6965  1.2168
 7068TIP3   OH242694   0.442   4.423  14.716  0.1885 -0.5255 -0.2684
 7068TIP3    H142695   0.451   4.401  14.623  2.6571 -0.2965 -0.1529
 7068TIP3    H242696   0.387   4.353  14.752 -2.0342  0.1469 -2.1039
 7069TIP3   OH242697   1.539   6.263  11.190  0.0183 -0.7887  0.3535
 7069TIP3    H142698   1.622   6.235  11.229 -1.0454 -1.5303  2.2578
 7069TIP3    H242699   1.474   6.244  11.258 -1.6880 -0.0643 -1.0119
 7070TIP3   OH242700   2.324   5.748   2.017 -0.0488  0.5106  0.1821
 7070TIP3    H142701   2.404   5.695   2.010 -0.9787 -1.0433  0.9196
 7070TIP3    H242702   2.253   5.684   2.012 -1.2854  1.9125 -0.9465
 7071TIP3   OH242703   3.279   0.193  12.712 -0.0378 -0.0408  0.0219
 7071TIP3    H142704   3.216   0.264  12.706 -0.8789 -0.6370  1.3378
 7071TIP3    H242705   3.226   0.115  12.729  0.9693 -0.7222  0.1220
 7072TIP3   OH242706   5.746   1.158   2.988  0.1070  0.3720  0.2315
 7072TIP3    H142707   5.684   1.209   3.041 -0.0281  0.8108 -0.3451
 7072TIP3    H242708   5.740   1.069   3.025  0.8955  0.9083  1.7249
 7073TIP3   OH242709   6.780   0.759  14.198 -0.3430  0.5113 -0.2283
 7073TIP3    H142710   6.751   0.670  14.178 -0.1298  0.3015  0.3814
 7073TIP3    H242711   6.735   0.814  14.133 -2.2709  0.2199  0.8128
 7074TIP3   OH242712   4.752   0.951  14.305 -0.1755  0.5699 -0.1470
 7074TIP3    H142713   4.695   1.026  14.319 -0.4724  0.3414 -0.1156
 7074TIP3    H242714   4.715   0.882  14.360  1.6386  1.1547  1.9584
 7075TIP3   OH242715   0.904   5.129  16.472  0.1995 -0.1867  0.2636
 7075TIP3    H142716   0.998   5.151  16.475  0.6117 -1.8565  0.2013
 7075TIP3    H242717   0.861   5.204  16.514  1.4416  1.1519 -0.7367
 7076TIP3   OH242718   2.735   0.525   2.301 -0.5067 -0.6895 -0.6708
 7076TIP3    H142719   2.777   0.443   2.327  1.3717  0.3558 -0.2661
 7076TIP3    H242720   2.676   0.500   2.230  0.3989 -2.3105 -0.9042
 7077TIP3   OH242721   5.258   6.611   5.665  0.4305  0.3038 -0.0232
 7077TIP3    H142722   5.261   6.623   5.570  0.8457 -0.2858 -0.0932
 7077TIP3    H242723   5.208   6.686   5.698  0.2974  0.5168 -0.7048
 7078TIP3   OH242724   0.588   0.511  16.476 -0.1083  0.1531 -0.1790
 7078TIP3    H142725   0.535   0.530  16.398 -1.1762 -0.1707  0.4452
 7078TIP3    H242726   0.528   0.524  16.549  0.5889 -0.5584  0.5330
 7079TIP3   OH242727   3.204   4.128  16.989 -0.1780 -0.1507  0.2799
 7079TIP3    H142728   3.195   4.034  17.002  0.7191 -0.1783  0.7644
 7079TIP3    H242729   3.119   4.156  16.955 -0.9466 -0.8987  1.5314
 7080TIP3   OH242730   6.820   4.634   4.011 -0.6664 -0.0469 -0.7573
 7080TIP3    H142731   6.871   4.557   4.037  0.6758  0.6034 -1.3431
 7080TIP3    H242732   6.749   4.638   4.075  1.3767  0.3668  1.6781
 7081TIP3   OH242733   4.396   6.625  11.515 -0.0053  0.2625 -0.2984
 7081TIP3    H142734   4.459   6.570  11.469 -0.3389 -1.0462  0.7344
 7081TIP3    H242735   4.383   6.581  11.599 -3.4266 -0.4287 -1.0008
 7082TIP3   OH242736   0.251   0.450   3.432  0.7370 -1.3078  0.6805
 7082TIP3    H142737   0.168   0.412   3.459  1.1184 -2.4200  0.3411
 7082TIP3    H242738   0.238   0.477   3.341  0.4021 -0.4037  0.9856
 7083TIP3   OH242739   2.527   0.974  15.359 -0.2505 -0.0247 -0.3084
 7083TIP3    H142740   2.544   0.884  15.331  0.0644 -0.1264  0.1945
 7083TIP3    H242741   2.591   0.990  15.428 -1.8051 -0.2110  1.2263
 7084TIP3   OH242742   4.833   5.102   3.811  0.4288 -0.2340  0.0444
 7084TIP3    H142743   4.762   5.062   3.862  2.0375 -1.6311  1.3114
 7084TIP3    H242744   4.868   5.030   3.759  2.1179 -0.0443  0.8644
 7085TIP3   OH242745   6.576   1.663  14.471 -0.7133 -0.4327 -0.3869
 7085TIP3    H142746   6.651   1.604  14.469  1.6248  2.2222  1.7318
 7085TIP3    H242747   6.525   1.634  14.546 -1.4732 -1.7696 -1.3768
 7086TIP3   OH242748   0.894   4.465  16.329  0.2583  0.2578 -0.0347
 7086TIP3    H142749   0.920   4.528  16.395  2.4140 -0.6206  0.0432
 7086TIP3    H242750   0.874   4.385  16.378  1.1486 -0.1757 -0.3423
 7087TIP3   OH242751   1.100   2.784   3.413 -0.8170 -0.2298  0.5007
 7087TIP3    H142752   1.081   2.690   3.412 -2.2532 -0.0343  2.3329
 7087TIP3    H242753   1.110   2.808   3.321  1.8947 -2.5449  0.0363
 7088TIP3   OH242754   1.512   4.250   2.425 -0.5970  0.3053 -0.2000
 7088TIP3    H142755   1.506   4.166   2.379 -0.2725  0.0873  0.1473
 7088TIP3    H242756   1.542   4.312   2.359 -0.3574  0.0434 -0.3367
 7089TIP3   OH242757   2.746   3.941  15.799  0.3095 -0.4217 -0.1005
 7089TIP3    H142758   2.702   3.912  15.879  0.8913 -1.3834 -0.1000
 7089TIP3    H242759   2.684   3.923  15.729  1.1043 -2.9597 -0.2494
 7090TIP3   OH242760   6.557   3.898   4.342  0.2331 -0.4323 -0.3256
 7090TIP3    H142761   6.546   3.940   4.257 -0.4743 -2.9961 -1.6158
 7090TIP3    H242762   6.647   3.865   4.341  0.5170  0.3157  0.3150
 7091TIP3   OH242763   5.406   0.167  12.310 -0.5997  1.0663  0.2353
 7091TIP3    H142764   5.438   0.107  12.243  0.7886 -0.3289  2.0450
 7091TIP3    H242765   5.369   0.111  12.378  1.1392  2.1119  2.1959
 7092TIP3   OH242766   0.055   5.285   2.615  0.3574 -0.2148 -0.7444
 7092TIP3    H142767   0.078   5.320   2.529  0.6674 -0.7607 -0.8935
 7092TIP3    H242768   0.074   5.356   2.676  1.6006 -0.3381 -0.9639
 7093TIP3   OH242769   5.617   1.396  16.650  0.4648 -0.0490  0.1844
 7093TIP3    H142770   5.619   1.349  16.734  1.5214 -1.0062 -0.3444
 7093TIP3    H242771   5.623   1.488  16.673  2.8577 -0.3611  1.1417
 7094TIP3   OH242772   0.003   1.777   1.590 -0.3595 -0.2475  0.9369
 7094TIP3    H142773  -0.080   1.769   1.544 -0.8135  0.3049  1.6461
 7094TIP3    H242774  -0.013   1.736   1.675  0.0976 -0.1449  1.0729
 7095TIP3   OH242775   3.727   6.170  16.487  0.1948 -0.8714 -0.3912
 7095TIP3    H142776   3.700   6.245  16.434 -0.1443 -0.2604  0.6134
 7095TIP3    H242777   3.755   6.104  16.423  1.9640  0.6367 -1.2682
 7096TIP3   OH242778   2.619   0.365   1.192  0.1553 -0.0335 -0.4518
 7096TIP3    H142779   2.696   0.328   1.236 -1.1537 -0.0691  1.9290
 7096TIP3    H242780   2.601   0.446   1.239 -2.6347 -1.1924  0.6543
 7097TIP3   OH242781   5.265   3.133  13.312  0.0368 -0.1684 -0.5077
 7097TIP3    H142782   5.202   3.067  13.342  0.6552 -0.5174  0.0217
 7097TIP3    H242783   5.347   3.085  13.299  0.7679  0.6705  0.8551
 7098TIP3   OH242784   1.955   4.274   4.689 -0.4286  0.0689 -0.0671
 7098TIP3    H142785   1.945   4.348   4.749 -2.0931 -0.6780  0.6431
 7098TIP3    H242786   1.900   4.205   4.726 -1.2061 -0.5574 -2.2214
 7099TIP3   OH242787   3.721   1.845   1.568  0.4477  0.4486 -0.2255
 7099TIP3    H142788   3.728   1.800   1.483 -0.6633  0.1338 -0.1629
 7099TIP3    H242789   3.679   1.781   1.625  0.6366  0.8829  0.4103
 7100TIP3   OH242790   3.610   4.820   0.603  0.0360 -0.1737  0.1536
 7100TIP3    H142791   3.567   4.834   0.688  0.6077  1.3773  0.2015
 7100TIP3    H242792   3.592   4.899   0.553  0.5697 -0.6454 -0.8075
 7101TIP3   OH242793   0.084   0.356  15.328 -0.5519  0.6033  0.1684
 7101TIP3    H142794   0.079   0.437  15.277  1.8994  1.1861  0.7440
 7101TIP3    H242795   0.160   0.310  15.293 -0.4016 -0.2438  1.5244
 7102TIP3   OH242796   4.127   1.917   4.852  0.4422  0.5106  0.4831
 7102TIP3    H142797   4.070   1.906   4.928  0.0076  0.9274  0.2197
 7102TIP3    H242798   4.212   1.943   4.889 -0.2863  2.7275  0.7521
 7103TIP3   OH242799   3.029   5.795  13.492 -0.0943  0.0941  0.0776
 7103TIP3    H142800   2.947   5.830  13.527  0.6209  1.6196  0.2886
 7103TIP3    H242801   3.002   5.742  13.417 -1.2127  1.4291 -0.5162
 7104TIP3   OH242802   0.640   2.127  14.100  0.3309  0.3657  0.0207
 7104TIP3    H142803   0.706   2.093  14.161 -0.7741  0.0794  1.1017
 7104TIP3    H242804   0.653   2.222  14.100  1.9759  0.2037 -1.2928
 7105TIP3   OH242805   6.830   0.521  14.574 -0.6238  0.4792  0.2636
 7105TIP3    H142806   6.740   0.505  14.543 -0.5620  3.1145 -1.6380
 7105TIP3    H242807   6.829   0.612  14.603  1.2384  0.2506  1.1554
 7106TIP3   OH242808   2.710   6.484  12.230  0.2362  0.1856 -0.0250
 7106TIP3    H142809   2.667   6.555  12.275  0.1100  0.1653 -0.1136
 7106TIP3    H242810   2.642   6.443  12.177  0.0383 -0.7397  0.9239
 7107TIP3   OH242811   5.865   5.383   5.909 -0.4990 -0.4368  0.2180
 7107TIP3    H142812   5.906   5.382   5.995 -2.9057 -2.1957  1.4553
 7107TIP3    H242813   5.850   5.291   5.888 -2.4504  0.0515 -0.7772
 7108TIP3   OH242814   0.678   1.710  16.495  0.8989  0.0834  0.0598
 7108TIP3    H142815   0.616   1.731  16.426 -0.0462 -0.6803  0.6600
 7108TIP3    H242816   0.694   1.794  16.539  0.3367  0.2996 -0.1389
 7109TIP3   OH242817   6.022   0.756   4.419 -0.1643 -0.4311 -0.6191
 7109TIP3    H142818   5.988   0.712   4.342  1.3112 -0.7119 -1.1375
 7109TIP3    H242819   6.086   0.695   4.456 -0.2519  0.0450  0.3611
 7110TIP3   OH242820   1.005   1.896   2.638 -0.2502  0.5521 -0.1380
 7110TIP3    H142821   1.033   1.895   2.546 -0.4325  1.7965 -0.2277
 7110TIP3    H242822   1.031   1.811   2.672  0.6025  0.3961 -1.1191
 7111TIP3   OH242823   5.570   5.477  13.889 -0.5141 -0.2380  0.3598
 7111TIP3    H142824   5.630   5.487  13.815  0.7659  0.2726  1.4522
 7111TIP3    H242825   5.534   5.565  13.903 -3.3602 -0.8936 -1.7139
 7112TIP3   OH242826   6.007   1.633   0.771  0.2788  0.2102  0.3081
 7112TIP3    H142827   6.018   1.552   0.820  0.4504  0.5478  0.8428
 7112TIP3    H242828   6.050   1.699   0.825 -1.9176  1.0972  1.0978
 7113TIP3   OH242829   0.237   1.709   1.991 -0.5594  0.1723  0.1702
 7113TIP3    H142830   0.226   1.642   2.059  0.0666 -0.1249 -0.0141
 7113TIP3    H242831   0.158   1.703   1.938 -0.1587 -0.9740 -0.3201
 7114TIP3   OH242832   4.493   6.671  16.604  0.4987 -0.3612  0.9397
 7114TIP3    H142833   4.558   6.715  16.549 -0.8506  0.2582 -0.2241
 7114TIP3    H242834   4.459   6.600  16.550 -1.1863  0.5464  0.7290
 7115TIP3   OH242835   1.452   2.497  14.539 -0.1784 -0.2197 -0.3257
 7115TIP3    H142836   1.380   2.492  14.601 -0.0736  3.4200  0.3032
 7115TIP3    H242837   1.413   2.534  14.460  0.7854  0.9855 -0.2706
 7116TIP3   OH242838   2.312   5.330   0.758  0.1852  0.0157  0.1394
 7116TIP3    H142839   2.332   5.239   0.735  1.5552  0.5202 -0.8158
 7116TIP3    H242840   2.220   5.340   0.736  0.2786 -0.8693 -0.7546
 7117TIP3   OH242841   5.983   3.665  12.031  0.9259 -0.3734  0.4619
 7117TIP3    H142842   5.922   3.699  12.096  0.8334  0.8544 -0.2435
 7117TIP3    H242843   5.931   3.604  11.979  0.5845 -0.1555  0.5435
 7118TIP3   OH242844   3.765   2.500  11.671  0.3310  0.0432 -0.4095
 7118TIP3    H142845   3.812   2.578  11.699 -0.8316  0.1161  1.5679
 7118TIP3    H242846   3.680   2.533  11.641 -0.0615 -0.3937  0.1810
 7119TIP3   OH242847   1.738   5.456   1.495 -0.0853 -0.1744  0.2732
 7119TIP3    H142848   1.797   5.521   1.459 -0.1373 -0.1630  0.2083
 7119TIP3    H242849   1.771   5.439   1.583  0.6517 -0.9613 -0.1431
 7120TIP3   OH242850   4.791   5.786  11.793 -0.7788 -0.3796  0.4624
 7120TIP3    H142851   4.791   5.839  11.713  0.2422  0.6276  1.1032
 7120TIP3    H242852   4.872   5.810  11.838 -1.1298 -1.2369  1.6124
 7121TIP3   OH242853   3.299   3.070   1.136  0.8756  0.1810 -0.4253
 7121TIP3    H142854   3.276   3.143   1.194 -0.6439 -1.2836  0.9405
 7121TIP3    H242855   3.338   3.005   1.194  1.1855 -0.5434 -1.4188
 7122TIP3   OH242856   5.562   5.854  16.206 -0.3250  0.0188 -0.2654
 7122TIP3    H142857   5.606   5.921  16.259 -1.5922  2.9848 -2.6409
 7122TIP3    H242858   5.479   5.839  16.251 -0.5267  0.9640 -0.2986
 7123TIP3   OH242859   1.712   3.535  14.443 -0.3867  0.1264  0.1808
 7123TIP3    H142860   1.712   3.439  14.436  0.1902  0.1797 -0.7898
 7123TIP3    H242861   1.633   3.555  14.493 -0.5934 -0.8531  0.2774
 7124TIP3   OH242862   1.366   0.680   3.360  0.6450  0.2115 -0.3280
 7124TIP3    H142863   1.342   0.593   3.328  0.7420  0.0970 -0.0906
 7124TIP3    H242864   1.402   0.664   3.448  0.6205  0.4949 -0.2663
 7125TIP3   OH242865   1.372   6.221  13.239  0.0559 -0.0250 -0.3768
 7125TIP3    H142866   1.311   6.153  13.210  0.5023 -0.0251 -1.3593
 7125TIP3    H242867   1.319   6.300  13.248 -0.3107 -0.3080 -0.0493
 7126TIP3   OH242868   4.579   0.973  16.748  0.2458 -0.2492  0.2478
 7126TIP3    H142869   4.524   1.051  16.751  1.9434  0.9938  2.1769
 7126TIP3    H242870   4.635   0.987  16.672  2.7879  2.2314  2.3335
 7127TIP3   OH242871   5.866   4.011   5.005 -0.4493 -0.0081 -0.1569
 7127TIP3    H142872   5.779   4.051   5.003  0.1899  1.4407 -1.1257
 7127TIP3    H242873   5.884   3.986   4.914  1.4181  2.8067 -0.7058
 7128TIP3   OH242874   2.299   3.333   5.796  0.5555 -0.3817 -0.0682
 7128TIP3    H142875   2.235   3.394   5.833  0.9852 -0.2445  0.4602
 7128TIP3    H242876   2.290   3.254   5.848  0.8174 -0.3623  0.0078
 7129TIP3   OH242877   6.674   0.271   5.040 -0.1652 -0.2809  0.6599
 7129TIP3    H142878   6.717   0.352   5.068  1.4824 -0.7173 -0.4494
 7129TIP3    H242879   6.654   0.225   5.121 -0.2148  0.7651  1.2649
 7130TIP3   OH242880   0.800   3.877  15.777 -0.0488  0.1910  0.1669
 7130TIP3    H142881   0.886   3.909  15.804  0.8071 -0.2755 -1.8010
 7130TIP3    H242882   0.774   3.816  15.845  1.8318 -0.7128  0.1477
 7131TIP3   OH242883   1.187   2.251   5.751  0.4509 -0.0278 -0.1368
 7131TIP3    H142884   1.232   2.316   5.806  0.5058  0.2371 -0.4895
 7131TIP3    H242885   1.160   2.300   5.674  1.6381 -0.7055 -1.0139
 7132TIP3   OH242886   4.435   6.479   0.204 -0.2815 -0.5622 -0.1736
 7132TIP3    H142887   4.501   6.429   0.252 -0.3821 -0.6368 -0.1124
 7132TIP3    H242888   4.465   6.570   0.209  0.4259 -0.7250 -1.1232
 7133TIP3   OH242889   1.791   2.136   2.118  0.1944  0.0884  0.6261
 7133TIP3    H142890   1.818   2.088   2.040  4.8701  0.8521  1.4803
 7133TIP3    H242891   1.806   2.228   2.096 -2.2932  0.7139  1.2171
 7134TIP3   OH242892   3.989   1.300   3.794  0.0608  0.1904 -0.4095
 7134TIP3    H142893   3.904   1.267   3.823  0.2393 -0.1727 -0.2972
 7134TIP3    H242894   4.036   1.223   3.764  0.2513  0.4274 -0.7312
 7135TIP3   OH242895   4.700   3.484  12.752  0.2043 -0.4076  0.3721
 7135TIP3    H142896   4.734   3.415  12.808  0.5679 -0.4545  0.0958
 7135TIP3    H242897   4.666   3.438  12.675 -1.9884 -0.5191  1.3407
 7136TIP3   OH242898   3.506   5.304   4.092  0.3013 -0.5712 -1.2721
 7136TIP3    H142899   3.466   5.391   4.091 -0.2830 -0.8320 -1.1647
 7136TIP3    H242900   3.559   5.301   4.012  3.1536  1.1450  0.3893
 7137TIP3   OH242901   4.612   2.090  14.791  0.4213 -0.4275  0.2705
 7137TIP3    H142902   4.534   2.110  14.740  1.2961  1.3200 -0.4800
 7137TIP3    H242903   4.681   2.075  14.726  1.6072  2.0322  0.8030
 7138TIP3   OH242904   5.187   2.230  14.876 -0.3639  0.2071  0.0419
 7138TIP3    H142905   5.214   2.179  14.952  0.2589 -0.7074 -0.7649
 7138TIP3    H242906   5.114   2.283  14.907 -0.8506 -0.9753  0.9933
 7139TIP3   OH242907   0.430   1.165   1.235 -0.8572 -0.3487  0.2303
 7139TIP3    H142908   0.393   1.229   1.297  0.2263 -0.7771  1.3731
 7139TIP3    H242909   0.448   1.088   1.288 -1.4805 -1.3653 -0.9955
 7140TIP3   OH242910   3.851   0.144   3.625  0.2326 -0.4040 -0.2730
 7140TIP3    H142911   3.893   0.189   3.552 -0.6561 -0.7616 -1.0423
 7140TIP3    H242912   3.912   0.153   3.698  1.3936 -0.4765 -1.1961
 7141TIP3   OH242913   0.909   5.200  12.690 -0.0314  0.7643  0.5886
 7141TIP3    H142914   0.842   5.220  12.624  0.9766 -0.2106 -0.7904
 7141TIP3    H242915   0.942   5.286  12.717 -0.3766  1.1888 -0.2794
 7142TIP3   OH242916   2.860   5.309  15.944 -0.2410 -0.0259 -0.2114
 7142TIP3    H142917   2.772   5.277  15.923 -0.3513  0.9869 -1.4008
 7142TIP3    H242918   2.895   5.245  16.006 -0.5073 -2.3459 -2.2934
 7143TIP3   OH242919   3.906   2.574   2.022 -0.1491 -0.1815 -0.2757
 7143TIP3    H142920   3.880   2.558   2.112  0.6367 -1.5433 -0.2669
 7143TIP3    H242921   3.836   2.629   1.986 -0.8412 -0.2435  0.9347
 7144TIP3   OH242922   5.385   6.578  13.860 -0.4120 -0.2346  0.2501
 7144TIP3    H142923   5.313   6.521  13.834  0.2276 -0.6409 -0.6647
 7144TIP3    H242924   5.344   6.663  13.877 -1.2987 -0.8178  1.1224
 7145TIP3   OH242925   4.184   6.601   2.205  0.0700 -0.0558  0.0362
 7145TIP3    H142926   4.225   6.592   2.119  0.2852  2.3084 -0.1943
 7145TIP3    H242927   4.232   6.540   2.261  0.8077 -0.6902 -1.2281
 7146TIP3   OH242928   1.735   2.805  16.197 -0.2622  0.0498  0.4662
 7146TIP3    H142929   1.714   2.806  16.104 -3.5377  0.4611  1.1100
 7146TIP3    H242930   1.690   2.728  16.232 -0.1811  0.6181  1.9203
 7147TIP3   OH242931   3.349   5.886   6.149  0.2241  0.1929 -0.1630
 7147TIP3    H142932   3.380   5.899   6.239 -0.1207 -2.6239  0.4579
 7147TIP3    H242933   3.260   5.851   6.160  0.5960 -1.2820 -1.5321
 7148TIP3   OH242934   2.751   1.630  14.270 -0.4695 -0.1491  0.4550
 7148TIP3    H142935   2.744   1.541  14.236 -2.4183  0.0708  0.1919
 7148TIP3    H242936   2.810   1.622  14.346  0.4579 -1.3959 -0.3523
 7149TIP3   OH242937   1.429   0.466  12.242 -0.2640  0.3256 -0.4252
 7149TIP3    H142938   1.344   0.481  12.200 -0.1983 -0.4275 -0.8588
 7149TIP3    H242939   1.443   0.543  12.297 -0.6026  1.0974 -1.3862
 7150TIP3   OH242940   4.092   3.656  14.329 -0.1324 -0.0264 -0.0497
 7150TIP3    H142941   4.093   3.618  14.241  0.7039 -0.4464  0.1307
 7150TIP3    H242942   4.008   3.700  14.336 -2.7983 -4.6470  0.9296
 7151TIP3   OH242943   0.300   1.516   3.892 -0.9934 -0.3252 -0.0276
 7151TIP3    H142944   0.267   1.466   3.818 -0.4450  0.6436 -0.9533
 7151TIP3    H242945   0.395   1.502   3.890 -0.7300  1.2837 -0.7608
 7152TIP3   OH242946   1.040   6.368  16.155 -0.1071 -0.2728  0.2539
 7152TIP3    H142947   1.072   6.279  16.171 -0.9258 -0.2982  1.9472
 7152TIP3    H242948   1.099   6.424  16.204  0.1777  0.1080 -0.5077
 7153TIP3   OH242949   0.566   1.604   2.631 -0.4032  0.0572  0.3108
 7153TIP3    H142950   0.620   1.661   2.576 -2.3949  2.4210  0.6169
 7153TIP3    H242951   0.505   1.562   2.570 -1.3604  1.1892  0.4659
 7154TIP3   OH242952   4.372   1.853   2.600  0.0600  0.3697  0.9222
 7154TIP3    H142953   4.282   1.833   2.629 -0.6703 -0.1199 -1.4587
 7154TIP3    H242954   4.395   1.932   2.648 -2.0792  1.1495  0.7915
 7155TIP3   OH242955   0.990   4.022  14.652 -0.0897 -0.1455 -0.2072
 7155TIP3    H142956   0.910   4.071  14.632 -0.9986 -0.9818  1.2617
 7155TIP3    H242957   0.959   3.938  14.685  1.4135 -0.6463 -0.0070
 7156TIP3   OH242958   2.226   1.921   0.683  0.0980  0.5089  0.6116
 7156TIP3    H142959   2.281   1.974   0.741 -0.1710 -0.9816  2.3118
 7156TIP3    H242960   2.226   1.834   0.722 -0.5499 -0.4432 -1.3708
 7157TIP3   OH242961   2.533   1.534   4.537  0.7845 -0.0333  0.4772
 7157TIP3    H142962   2.448   1.577   4.544  1.2859  0.7561  2.0907
 7157TIP3    H242963   2.512   1.444   4.512 -0.5307  0.1182  0.9536
 7158TIP3   OH242964   6.473   3.964  14.830  0.5241  0.0520 -0.0514
 7158TIP3    H142965   6.530   4.039  14.848 -0.8619  0.9272  0.9581
 7158TIP3    H242966   6.455   3.969  14.737 -0.4231  1.6874  0.1678
 7159TIP3   OH242967   3.485   1.090   5.408  0.4623  0.4547 -0.3836
 7159TIP3    H142968   3.428   1.048   5.344  0.4377  0.3047 -0.2630
 7159TIP3    H242969   3.570   1.048   5.397  0.2188 -0.2591  0.3424
 7160TIP3   OH242970   4.695   2.425  14.665  0.0370 -0.4304  0.3010
 7160TIP3    H142971   4.650   2.508  14.679  1.8616  0.2528  2.7813
 7160TIP3    H242972   4.751   2.441  14.589  1.1858  1.0508  1.3907
 7161TIP3   OH242973   2.898   0.631   4.828 -0.5642  0.0168 -0.2639
 7161TIP3    H142974   2.803   0.641   4.816 -0.6336  2.3556  1.5132
 7161TIP3    H242975   2.936   0.665   4.748 -1.2269 -0.2102 -0.6810
 7162TIP3   OH242976   2.670   0.527  15.904 -0.1072  0.3936  0.2798
 7162TIP3    H142977   2.615   0.539  15.981 -0.1794  0.5890  0.1986
 7162TIP3    H242978   2.609   0.522  15.831 -0.4035 -3.7263  0.5623
 7163TIP3   OH242979   4.237   6.107  16.029 -0.3447 -0.3037  0.1033
 7163TIP3    H142980   4.303   6.104  16.098  1.6189  1.4978 -1.5376
 7163TIP3    H242981   4.241   6.021  15.988  1.4064 -0.0876 -0.2557
 7164TIP3   OH242982   3.069   0.962  13.847 -0.0650  0.3119  0.6494
 7164TIP3    H142983   3.045   0.930  13.934  3.9820  1.2585  2.3559
 7164TIP3    H242984   3.018   1.042  13.836 -0.2118  0.5299  2.5027
 7165TIP3   OH242985   0.670   3.743   3.411  0.5703 -0.3715  0.3821
 7165TIP3    H142986   0.619   3.698   3.478 -1.1183  0.3969 -0.3258
 7165TIP3    H242987   0.657   3.836   3.430  1.9513 -0.1477  0.3357
 7166TIP3   OH242988   1.517   6.345  11.916  0.9359  0.0946 -0.2317
 7166TIP3    H142989   1.518   6.396  11.997 -2.4125  0.9861 -0.6097
 7166TIP3    H242990   1.435   6.297  11.918  2.2232 -2.4053 -1.6942
 7167TIP3   OH242991   1.519   1.521   0.604  0.3875  0.0985  0.1144
 7167TIP3    H142992   1.510   1.611   0.570 -1.5572 -0.1599 -0.2030
 7167TIP3    H242993   1.521   1.466   0.526 -2.2918 -0.3655  0.2817
 7168TIP3   OH242994   1.307   3.790  15.751  0.1907  0.1240 -0.5597
 7168TIP3    H142995   1.304   3.866  15.809  0.1937  1.4392 -2.2173
 7168TIP3    H242996   1.396   3.792  15.715  0.2576 -0.8107 -0.4717
 7169TIP3   OH242997   5.003   0.646  13.918 -0.5157  0.1952  0.1229
 7169TIP3    H142998   5.031   0.701  13.992  0.1056  1.3435 -0.9239
 7169TIP3    H242999   4.949   0.704  13.864  1.1337  0.1781 -1.6324
 7170TIP3   OH243000   1.228   5.050  12.828  0.7267 -0.1608 -0.0454
 7170TIP3    H143001   1.178   4.986  12.777  0.3650  0.7783 -0.8989
 7170TIP3    H243002   1.318   5.018  12.826  0.1145 -2.3376  2.2128
 7171TIP3   OH243003   4.978   1.743   2.282  0.6066  0.7709  0.1648
 7171TIP3    H143004   5.060   1.695   2.270 -0.4780 -0.6951 -2.3743
 7171TIP3    H243005   4.939   1.745   2.194 -1.6024  2.2951  1.0904
 7172TIP3   OH243006   0.535   4.205   2.830 -0.4364 -0.3617  0.6490
 7172TIP3    H143007   0.611   4.235   2.879 -0.6885  0.0542  0.7858
 7172TIP3    H243008   0.553   4.230   2.739  0.0837 -1.2349  0.4916
 7173TIP3   OH243009   0.726   5.849  13.971 -0.0624 -0.4641  0.5028
 7173TIP3    H143010   0.720   5.797  13.890 -0.9915 -1.3470  1.1068
 7173TIP3    H243011   0.802   5.905  13.959  0.3257 -1.2158 -0.6259
 7174TIP3   OH243012   3.195   2.742   1.208 -0.3752 -0.4493 -0.2632
 7174TIP3    H143013   3.280   2.772   1.176 -0.2786 -1.3677 -0.9066
 7174TIP3    H243014   3.194   2.768   1.300 -0.3481  1.5717 -0.7894
 7175TIP3   OH243015   0.077   0.868  16.544  0.4217 -0.5254 -0.6767
 7175TIP3    H143016   0.147   0.911  16.594  1.0360 -0.5948 -1.4508
 7175TIP3    H243017   0.012   0.843  16.609 -0.1505  1.9096 -0.1959
 7176TIP3   OH243018   3.733   1.274  14.852 -0.3323 -0.2668  0.4575
 7176TIP3    H143019   3.676   1.321  14.913 -0.6652  1.7774 -1.3050
 7176TIP3    H243020   3.816   1.321  14.855 -0.7151  0.6362 -1.4534
 7177TIP3   OH243021   3.173   5.450  13.236  0.1783  0.3140 -0.3706
 7177TIP3    H143022   3.259   5.486  13.257 -0.2747  0.1903  1.9056
 7177TIP3    H243023   3.192   5.364  13.198  1.0509  0.3929 -0.1296
 7178TIP3   OH243024   3.798   1.869  16.346 -0.0296  0.4948  0.0425
 7178TIP3    H143025   3.816   1.816  16.424  0.3626 -1.2053 -1.1431
 7178TIP3    H243026   3.862   1.940  16.351  0.7438 -0.2145  0.7273
 7179TIP3   OH243027   3.308   5.029  14.782  0.6712 -0.2308  0.0563
 7179TIP3    H143028   3.343   4.973  14.712  2.6461 -0.0614  0.8499
 7179TIP3    H243029   3.214   5.011  14.781  0.8438 -1.3479 -1.6436
 7180TIP3   OH243030   2.530   2.873   4.440 -0.2416  0.9453  0.0570
 7180TIP3    H143031   2.515   2.968   4.438 -0.4745  0.9126  0.2298
 7180TIP3    H243032   2.519   2.846   4.349  0.2649  1.1488 -0.0727
 7181TIP3   OH243033   6.383   3.927  11.573 -0.1605 -0.2244 -0.1016
 7181TIP3    H143034   6.383   3.888  11.485 -0.3649  1.6291 -0.9663
 7181TIP3    H243035   6.370   4.020  11.558  1.5276  0.3823  1.8121
 7182TIP3   OH243036   0.585   2.378  12.380  0.5591  0.1923  0.3247
 7182TIP3    H143037   0.589   2.283  12.374  0.6152  0.1470  0.9973
 7182TIP3    H243038   0.584   2.397  12.474 -0.0831  0.8302  0.2029
 7183TIP3   OH243039   0.410   1.389   2.486 -0.5412 -0.1825 -0.1531
 7183TIP3    H143040   0.461   1.386   2.405  1.5856 -3.4261  1.1355
 7183TIP3    H243041   0.452   1.325   2.544 -1.9684  1.9423  3.5610
 7184TIP3   OH243042   4.242   4.134  14.319  0.0926  0.2972 -0.3431
 7184TIP3    H143043   4.254   4.039  14.319  1.9626  0.4914  1.1538
 7184TIP3    H243044   4.170   4.149  14.380 -0.7138 -0.1777 -1.1504
 7185TIP3   OH243045   5.096   4.134   3.436  0.7860 -0.5157  0.0610
 7185TIP3    H143046   5.179   4.175   3.415  0.9530 -1.0013 -0.2569
 7185TIP3    H243047   5.107   4.102   3.526  0.7842 -0.1885  0.1764
 7186TIP3   OH243048   1.154   4.039   0.342  0.1528 -0.1708  0.2366
 7186TIP3    H143049   1.239   4.014   0.379  0.4923  0.9965  0.2868
 7186TIP3    H243050   1.161   4.133   0.328 -1.8340  0.3359  2.1222
 7187TIP3   OH243051   4.457   5.961   4.132 -0.1783 -0.2603 -0.6076
 7187TIP3    H143052   4.424   5.885   4.085 -1.5127 -0.6729  0.8991
 7187TIP3    H243053   4.445   5.939   4.225  1.1334  1.0422 -0.0823
 7188TIP3   OH243054   4.208   4.449  14.448 -0.2968 -0.1191 -0.5676
 7188TIP3    H143055   4.147   4.438  14.376 -1.2466 -1.4409  0.3922
 7188TIP3    H243056   4.181   4.384  14.513  0.9388  0.5711  0.7017
 7189TIP3   OH243057   0.831   1.811   4.102  0.0778  0.0523  0.4117
 7189TIP3    H143058   0.895   1.868   4.144  0.2947  0.3372 -0.2952
 7189TIP3    H243059   0.849   1.724   4.138 -0.5245  0.4857  1.7978
 7190TIP3   OH243060   4.971   5.609  14.424 -0.1865  0.0976  0.1605
 7190TIP3    H143061   5.016   5.666  14.362 -1.8719  0.9407 -0.3388
 7190TIP3    H243062   5.016   5.524  14.415  1.2138  0.8527 -0.3487
 7191TIP3   OH243063   1.518   2.233   1.998  0.0540 -0.2745 -0.2869
 7191TIP3    H143064   1.451   2.173   1.966 -0.0429 -0.3527  0.0591
 7191TIP3    H243065   1.585   2.177   2.037  0.3905 -0.2029 -0.7615
 7192TIP3   OH243066   4.292   2.342  14.032  0.4975  0.0353  0.1143
 7192TIP3    H143067   4.262   2.265  14.081 -1.1596  0.6904  0.2188
 7192TIP3    H243068   4.227   2.351  13.962  0.6283  1.3817  0.1485
 7193TIP3   OH243069   4.624   4.614  17.030 -0.1054 -0.2086 -0.0162
 7193TIP3    H143070   4.663   4.529  17.012  0.4988  0.3104 -1.2422
 7193TIP3    H243071   4.627   4.622  17.125 -0.4912 -1.6936  0.1469
 7194TIP3   OH243072   6.531   4.433  13.307  0.3113 -0.2365  0.0493
 7194TIP3    H143073   6.496   4.447  13.395 -1.1511  2.0896 -0.8054
 7194TIP3    H243074   6.466   4.377  13.265  0.6757 -0.8011  0.2234
 7195TIP3   OH243075   0.222   0.269  15.091 -0.5471 -0.2497 -0.2436
 7195TIP3    H143076   0.230   0.357  15.054 -1.4854 -0.2530 -0.4662
 7195TIP3    H243077   0.298   0.222  15.058 -0.0906  0.4446 -0.2069
 7196TIP3   OH243078   6.367   0.348   1.828 -0.0310 -0.2517 -0.2481
 7196TIP3    H143079   6.413   0.279   1.781 -0.1423  0.6978 -1.8151
 7196TIP3    H243080   6.276   0.319   1.831 -0.0088 -0.3534 -0.5600
 7197TIP3   OH243081   6.242   6.714  16.479 -0.4247  0.7174  0.4317
 7197TIP3    H143082   6.158   6.747  16.510  0.8248  2.6390  1.9699
 7197TIP3    H243083   6.270   6.652  16.545  0.5400  2.0707  1.3496
 7198TIP3   OH243084   2.722   0.579  11.377  0.6721 -0.0265 -0.4698
 7198TIP3    H143085   2.667   0.656  11.363 -0.1125 -0.1484  1.6329
 7198TIP3    H243086   2.700   0.521  11.303 -2.3041 -0.1956  0.4144
 7199TIP3   OH243087   0.473   5.082  13.555  0.6087 -0.0036  0.1258
 7199TIP3    H143088   0.446   4.992  13.538  1.1725 -0.1142 -0.2137
 7199TIP3    H243089   0.568   5.081  13.544  0.5966  0.6780 -0.0907
 7200TIP3   OH243090   0.508   2.000  11.166  0.2379 -0.2649  0.5611
 7200TIP3    H143091   0.549   2.081  11.136 -0.4446 -0.4631 -0.9853
 7200TIP3    H243092   0.540   1.933  11.107  0.0207 -0.9598  1.2086
 7201TIP3   OH243093   5.110   6.671   6.447 -0.4906 -0.2494  0.0101
 7201TIP3    H143094   5.198   6.693   6.415  0.4554 -1.8367  1.3049
 7201TIP3    H243095   5.075   6.611   6.381 -0.7992  0.7467 -0.7390
 7202TIP3   OH243096   5.884   3.833  16.662 -0.4380  0.1451  0.1951
 7202TIP3    H143097   5.973   3.866  16.654  0.4349 -1.9612  0.5555
 7202TIP3    H243098   5.830   3.897  16.616  1.5764  0.1597 -2.4019
 7203TIP3   OH243099   0.816   1.026  10.729 -0.1987  0.3971 -0.2824
 7203TIP3    H143100   0.890   1.086  10.737  0.7293 -0.8655  1.0147
 7203TIP3    H243101   0.778   1.022  10.817  0.0033 -1.1906 -0.2394
 7204TIP3   OH243102   4.655   1.656  15.879 -0.0545  0.5173 -0.6248
 7204TIP3    H143103   4.661   1.622  15.968 -0.1725 -0.0763 -0.8435
 7204TIP3    H243104   4.561   1.665  15.863 -0.0563  0.0244 -0.9131
 7205TIP3   OH243105   0.113   3.691   3.502 -0.1734 -0.3675 -1.0502
 7205TIP3    H143106   0.112   3.634   3.425  0.6208 -0.7930 -0.7509
 7205TIP3    H243107   0.204   3.692   3.530 -0.3104  0.4570 -0.6051
 7206TIP3   OH243108   6.805   3.329   1.858  0.0525 -0.3494 -0.2592
 7206TIP3    H143109   6.868   3.338   1.787  1.0843  2.3516  0.8659
 7206TIP3    H243110   6.855   3.345   1.938 -1.7319  0.4084  0.7891
 7207TIP3   OH243111   3.277   3.208  13.281  0.5763  0.0139  0.2619
 7207TIP3    H143112   3.369   3.190  13.300  0.3278 -1.5719  0.1028
 7207TIP3    H243113   3.251   3.140  13.219  0.1289  2.3397 -2.3161
 7208TIP3   OH243114   5.358   4.871   3.336 -0.9781 -0.4040  0.1614
 7208TIP3    H143115   5.265   4.847   3.332 -0.7429 -1.1607 -1.9492
 7208TIP3    H243116   5.400   4.814   3.273  1.3215 -1.5330  2.5409
 7209TIP3   OH243117   5.737   2.013  15.268 -0.5735  0.2837 -0.3462
 7209TIP3    H143118   5.700   2.095  15.235  0.4837  0.7733 -0.3570
 7209TIP3    H243119   5.826   2.036  15.295 -1.0652 -0.2815  2.0066
 7210TIP3   OH243120   3.810   1.707  11.394  0.2447  0.2689 -0.0522
 7210TIP3    H143121   3.726   1.662  11.403  1.3712 -2.0116 -0.1220
 7210TIP3    H243122   3.853   1.661  11.321  1.4681  1.5325 -0.1551
 7211TIP3   OH243123   0.959   3.332  15.381 -0.0974  0.6237  0.5533
 7211TIP3    H143124   0.937   3.267  15.314 -1.8114  0.3873  1.3072
 7211TIP3    H243125   1.054   3.343  15.373 -0.0594 -0.4719 -0.9276
 7212TIP3   OH243126   4.216   5.301   0.835 -0.7924  0.0171 -0.2061
 7212TIP3    H143127   4.140   5.355   0.859 -1.2426 -1.4114  1.8151
 7212TIP3    H243128   4.177   5.225   0.790 -0.6039 -0.7482  0.8901
 7213TIP3   OH243129   0.115   4.470   5.530 -0.1579 -0.2543 -0.2636
 7213TIP3    H143130   0.084   4.408   5.596  0.7946 -2.0161 -1.4021
 7213TIP3    H243131   0.082   4.437   5.447 -0.3370  1.2566 -0.8334
 7214TIP3   OH243132   2.293   0.413  10.106 -1.1261 -0.0374 -0.1327
 7214TIP3    H143133   2.383   0.417  10.073 -0.6925  0.7086  1.0678
 7214TIP3    H243134   2.299   0.362  10.186 -1.1542  2.6491  1.7080
 7215TIP3   OH243135   2.129   5.772  12.575  0.6042  0.2873 -0.5868
 7215TIP3    H143136   2.034   5.771  12.591  0.6468  0.6617 -0.2980
 7215TIP3    H243137   2.167   5.737  12.656  0.8107  1.9703  0.0733
 7216TIP3   OH243138   4.538   6.785   5.253 -0.4711 -0.8996  0.1322
 7216TIP3    H143139   4.606   6.831   5.203 -0.7081 -1.2113 -0.4894
 7216TIP3    H243140   4.516   6.709   5.199  0.4703 -2.1995  1.4788
 7217TIP3   OH243141   3.241   1.772  13.955 -0.3996 -0.1338 -0.4407
 7217TIP3    H143142   3.277   1.688  13.985  1.8659  0.6567 -0.7988
 7217TIP3    H243143   3.230   1.760  13.860  0.2392  0.0745 -0.5434
 7218TIP3   OH243144   2.413   4.552  15.535  0.3190 -0.2103  0.0338
 7218TIP3    H143145   2.398   4.459  15.517 -1.6861 -0.0504  0.6177
 7218TIP3    H243146   2.378   4.565  15.623  0.8476  1.0311  0.0709
 7219TIP3   OH243147   3.462   4.732   1.162 -0.0110  0.2044 -0.6554
 7219TIP3    H143148   3.487   4.686   1.082 -1.4965  0.2344 -1.1695
 7219TIP3    H243149   3.464   4.665   1.230  1.4951  0.2319 -0.6452
 7220TIP3   OH243150   1.975   1.315   0.203 -0.1792 -0.1870 -0.2817
 7220TIP3    H143151   2.068   1.299   0.218 -0.0267  0.8792 -0.0052
 7220TIP3    H243152   1.953   1.387   0.262 -0.9834  0.1096 -0.9196
 7221TIP3   OH243153   0.531   2.945  15.698 -0.3365  0.2155  0.7008
 7221TIP3    H143154   0.592   2.886  15.653  0.1059  0.0216  1.5300
 7221TIP3    H243155   0.578   3.029  15.702 -1.6656  1.1820 -2.0656
 7222TIP3   OH243156   2.151   3.516   4.048  0.5035  0.1347 -0.1343
 7222TIP3    H143157   2.103   3.584   4.002  0.0604 -1.9266 -3.0196
 7222TIP3    H243158   2.083   3.462   4.090  0.6777  0.0523  0.0492
 7223TIP3   OH243159   1.754   4.693  14.929  0.1197 -0.2545 -0.0610
 7223TIP3    H143160   1.700   4.769  14.904 -1.2216 -1.3133 -0.5363
 7223TIP3    H243161   1.772   4.706  15.022  0.0803  0.7342 -0.1749
 7224TIP3   OH243162   2.590   6.354   5.072  0.3286  0.4209  0.3129
 7224TIP3    H143163   2.507   6.362   5.024  1.1975  0.8921 -1.1833
 7224TIP3    H243164   2.582   6.271   5.118 -0.4891 -0.1692 -0.8242
 7225TIP3   OH243165   5.359   2.321   2.066  0.8140  0.0481 -0.1060
 7225TIP3    H143166   5.288   2.268   2.030  0.4003 -0.0705  0.8607
 7225TIP3    H243167   5.439   2.284   2.027  0.2358  2.3727 -4.0496
 7226TIP3   OH243168   3.596   1.407  14.173 -0.2458  0.3061  0.2982
 7226TIP3    H143169   3.515   1.451  14.148 -1.0209 -0.2180  1.8151
 7226TIP3    H243170   3.573   1.314  14.176 -0.0072  0.2702  2.1696
 7227TIP3   OH243171   0.365   1.058   2.929 -1.0759  0.5403  0.0171
 7227TIP3    H143172   0.435   1.120   2.950  0.2463 -0.7162 -0.5031
 7227TIP3    H243173   0.288   1.112   2.916 -0.2180  1.9753  0.6556
 7228TIP3   OH243174   6.769   1.968   3.856 -0.7299 -0.3754 -0.3241
 7228TIP3    H143175   6.674   1.969   3.854 -0.7517 -1.8688 -1.9611
 7228TIP3    H243176   6.795   1.953   3.766  1.0983  0.7374 -0.0324
 7229TIP3   OH243177   4.377   5.485  16.262 -0.1140  0.4146 -0.4164
 7229TIP3    H143178   4.398   5.401  16.302  0.9226  1.1552  0.6510
 7229TIP3    H243179   4.342   5.538  16.333 -4.0956 -0.1274 -1.7251
 7230TIP3   OH243180   0.227   3.416  15.498  0.3782 -0.1900  0.0079
 7230TIP3    H143181   0.188   3.338  15.537  2.0657 -1.2625 -0.3308
 7230TIP3    H243182   0.218   3.483  15.566 -2.7838 -0.0771 -0.4020
 7231TIP3   OH243183   6.538   3.732   0.450  0.6095  1.0401 -0.6283
 7231TIP3    H143184   6.508   3.728   0.541  1.9033  2.5868 -0.0933
 7231TIP3    H243185   6.459   3.717   0.398 -0.1528  0.1576  0.7432
 7232TIP3   OH243186   5.030   5.061  11.186 -0.0124 -0.1134 -0.0792
 7232TIP3    H143187   5.101   5.006  11.153 -0.4309 -1.7543  1.5814
 7232TIP3    H243188   5.058   5.085  11.274 -1.7570 -1.3550  0.8780
 7233TIP3   OH243189   3.388   1.077   3.683  0.3982 -0.2875 -0.3261
 7233TIP3    H143190   3.348   1.011   3.739  1.3530 -0.0155  0.7170
 7233TIP3    H243191   3.356   1.057   3.595 -0.1846 -1.4618  0.1367
 7234TIP3   OH243192   2.899   3.410   5.703 -0.9085  0.4559 -0.3854
 7234TIP3    H143193   2.921   3.461   5.781  1.2907 -0.3445 -0.4196
 7234TIP3    H243194   2.884   3.476   5.635 -2.3460  1.1447  0.5543
 7235TIP3   OH243195   2.644   5.199   2.599 -0.7033  0.1291 -0.1110
 7235TIP3    H143196   2.626   5.267   2.535 -2.5185  0.6752  0.8971
 7235TIP3    H243197   2.589   5.222   2.674  0.4655 -1.1227  1.1913
 7236TIP3   OH243198   1.803   5.880  13.178  0.5155  0.9068 -0.5014
 7236TIP3    H143199   1.743   5.908  13.247 -0.2302 -0.2349 -0.6581
 7236TIP3    H243200   1.750   5.880  13.098 -0.1824 -2.7843 -0.2198
 7237TIP3   OH243201   0.326   6.413   1.255  0.1205 -0.1003 -0.2435
 7237TIP3    H143202   0.389   6.455   1.196 -1.2290  0.3312 -1.4225
 7237TIP3    H243203   0.342   6.319   1.243  0.2668 -0.0036 -0.8335
 7238TIP3   OH243204   4.516   2.418   0.864  0.6269  0.1125  0.4682
 7238TIP3    H143205   4.527   2.405   0.958  0.7262 -0.9880  0.3174
 7238TIP3    H243206   4.500   2.512   0.854  1.1419  0.3216  1.5269
 7239TIP3   OH243207   1.159   3.386   5.732  0.0843  0.5739  0.0787
 7239TIP3    H143208   1.147   3.465   5.784 -1.4896 -0.5688  1.5682
 7239TIP3    H243209   1.106   3.400   5.654 -1.3150  0.4851  0.9756
 7240TIP3   OH243210   2.900   1.758   3.566 -0.4803 -0.5300 -0.2292
 7240TIP3    H143211   2.892   1.663   3.562 -1.2439 -0.5415  1.0642
 7240TIP3    H243212   2.922   1.776   3.657  2.2231  0.3914 -0.9554
 7241TIP3   OH243213   3.330   2.116  13.547 -0.2907  0.2328  0.1505
 7241TIP3    H143214   3.276   2.187  13.581  0.2659 -0.3977  2.5145
 7241TIP3    H243215   3.417   2.131  13.586  0.0160 -1.3253  0.1166
 7242TIP3   OH243216   1.197   5.947   4.882 -0.2426 -0.3585 -0.3684
 7242TIP3    H143217   1.291   5.942   4.869 -0.4592 -0.1344 -2.4556
 7242TIP3    H243218   1.175   5.870   4.934  0.7100 -2.3027 -2.6429
 7243TIP3   OH243219   1.354   4.994  16.583  0.0950 -0.3137 -0.0715
 7243TIP3    H143220   1.386   4.978  16.494  0.5448  0.2140 -0.0139
 7243TIP3    H243221   1.371   4.913  16.629  2.0214  0.1537  0.1274
 7244TIP3   OH243222   4.706   2.646   1.446 -0.2444 -0.3634  0.0827
 7244TIP3    H143223   4.636   2.666   1.383 -1.7292 -1.6808  1.2253
 7244TIP3    H243224   4.713   2.724   1.500 -0.9077 -0.2546  0.0185
 7245TIP3   OH243225   5.303   0.278  13.096  0.0639 -0.3413 -0.1101
 7245TIP3    H143226   5.379   0.257  13.042 -0.3108  0.4838 -0.9900
 7245TIP3    H243227   5.312   0.371  13.116  0.5382 -0.7739  1.8349
 7246TIP3   OH243228   0.547   2.511  16.742 -0.0219 -0.5384 -0.5649
 7246TIP3    H143229   0.466   2.477  16.780 -0.9644  2.0997 -0.0176
 7246TIP3    H243230   0.554   2.467  16.657 -1.4360 -1.5801 -0.1823
 7247TIP3   OH243231   1.170   5.937   0.764  0.2194  0.0599 -0.0066
 7247TIP3    H143232   1.232   5.933   0.692  0.3776 -0.0630  0.1340
 7247TIP3    H243233   1.225   5.951   0.842  0.0167  0.6462  0.0372
 7248TIP3   OH243234   4.100   2.063  14.923  0.0077 -0.4538 -0.3867
 7248TIP3    H143235   4.040   2.124  14.880 -0.8520  0.4584  1.9394
 7248TIP3    H243236   4.173   2.119  14.951  0.5528 -1.0232 -0.6670
 7249TIP3   OH243237   0.379   2.604   3.445 -0.0956  0.3524  0.2987
 7249TIP3    H143238   0.302   2.620   3.499 -1.4784 -0.1852 -1.4086
 7249TIP3    H243239   0.442   2.671   3.472 -1.2116  0.9217  1.6169
 7250TIP3   OH243240   0.725   2.544   6.265  0.0845  0.2494  0.5631
 7250TIP3    H143241   0.716   2.449   6.271  0.7985  0.2754  3.2393
 7250TIP3    H243242   0.818   2.560   6.280  0.3941  1.3307 -1.9570
 7251TIP3   OH243243   0.881   2.758  13.442  0.0172  0.4918 -0.2211
 7251TIP3    H143244   0.881   2.785  13.350 -1.1488 -1.6431 -0.9233
 7251TIP3    H243245   0.973   2.741  13.462  0.2567  0.7267 -1.0752
 7252TIP3   OH243246   1.827   5.364   2.336  0.7427 -0.3173 -0.3500
 7252TIP3    H143247   1.851   5.430   2.400  0.8662 -0.0899 -0.6284
 7252TIP3    H243248   1.800   5.288   2.388  1.3384 -0.3142 -0.0365
 7253TIP3   OH243249   2.272   6.356  16.161  0.1642  0.1986 -0.2984
 7253TIP3    H143250   2.339   6.291  16.141 -0.0197 -0.6049  1.4915
 7253TIP3    H243251   2.251   6.341  16.253 -1.4180  1.4107 -0.4172
 7254TIP3   OH243252   4.923   0.291  15.058  0.1599  0.3292 -0.0722
 7254TIP3    H143253   4.839   0.331  15.081 -0.3022 -0.1294 -0.9302
 7254TIP3    H243254   4.947   0.332  14.974  0.9047  0.6091  0.2615
 7255TIP3   OH243255   5.683   4.779  17.094 -0.2164  0.1836 -0.6718
 7255TIP3    H143256   5.609   4.778  17.033 -1.0753 -0.7119  0.3389
 7255TIP3    H243257   5.644   4.757  17.179  0.8974  1.6550  0.2617
 7256TIP3   OH243258   3.296   0.583   0.876  0.4546  0.1049  0.1433
 7256TIP3    H143259   3.329   0.582   0.787  1.3211  1.1346  0.4378
 7256TIP3    H243260   3.299   0.675   0.902 -2.8051  0.3366  0.1576
 7257TIP3   OH243261   5.429   4.194  16.165  0.0444  0.2127  0.1237
 7257TIP3    H143262   5.342   4.177  16.129  0.0847 -1.8776  0.9074
 7257TIP3    H243263   5.465   4.108  16.184  1.9131  1.0707  0.7511
 7258TIP3   OH243264   4.648   5.531  11.775  0.2620 -0.3507 -0.1167
 7258TIP3    H143265   4.678   5.483  11.697  1.4368 -0.6093  0.4690
 7258TIP3    H243266   4.704   5.609  11.777  1.7952 -1.4041  1.6394
 7259TIP3   OH243267   0.221   4.921   3.155  0.3821 -0.3878 -0.3280
 7259TIP3    H143268   0.141   4.924   3.208  1.0187 -1.8178  0.7964
 7259TIP3    H243269   0.287   4.965   3.208  1.0788 -2.0302  0.2444
 7260TIP3   OH243270   3.329   1.870   3.321 -0.9434 -0.6025  0.3500
 7260TIP3    H143271   3.316   1.961   3.349 -0.5946 -0.0219 -1.2585
 7260TIP3    H243272   3.369   1.828   3.397  1.3113  1.2594  0.3442
 7261TIP3   OH243273   3.776   2.435  12.777  0.2451  0.2999  0.0865
 7261TIP3    H143274   3.771   2.530  12.778  1.1589  0.3649 -0.4526
 7261TIP3    H243275   3.856   2.415  12.728 -0.0805 -0.7486 -0.0540
 7262TIP3   OH243276   1.977   6.455  11.281 -0.0099 -0.0118  0.0578
 7262TIP3    H143277   1.964   6.524  11.216 -1.5683 -0.4470 -0.1237
 7262TIP3    H243278   1.994   6.503  11.363 -2.9202  0.7153  0.3520
 7263TIP3   OH243279   0.051   6.502  15.872  0.2295 -0.2913 -0.0905
 7263TIP3    H143280   0.144   6.493  15.892  0.4918 -0.8527 -1.4613
 7263TIP3    H243281   0.048   6.554  15.792 -0.6438 -0.2152 -0.0207
 7264TIP3   OH243282   3.318   1.760   5.302  0.2212 -0.7047  0.1173
 7264TIP3    H143283   3.398   1.770   5.250 -0.0264 -0.1679 -0.1617
 7264TIP3    H243284   3.247   1.781   5.241 -0.1421 -1.2379  0.3478
 7265TIP3   OH243285   3.937   4.916  13.253 -0.1880 -0.5006 -0.2491
 7265TIP3    H143286   3.844   4.925  13.230 -0.1266 -0.0443 -0.3354
 7265TIP3    H243287   3.937   4.868  13.336 -0.4190 -1.9887 -1.0910
 7266TIP3   OH243288   3.575   1.441   1.546 -0.0516  0.4533  0.5229
 7266TIP3    H143289   3.650   1.404   1.499 -1.3797 -1.6209 -0.0719
 7266TIP3    H243290   3.601   1.532   1.564  2.0807  0.1697 -0.7527
 7267TIP3   OH243291   4.588   0.355   3.829 -0.0361 -0.1591 -0.5490
 7267TIP3    H143292   4.506   0.322   3.793 -0.9408  1.7828 -0.3645
 7267TIP3    H243293   4.574   0.360   3.923  0.0443  0.7677 -0.5727
 7268TIP3   OH243294   6.235   3.604  12.146 -0.5421  0.0629 -0.2239
 7268TIP3    H143295   6.181   3.541  12.193 -0.5131  0.0869 -0.1574
 7268TIP3    H243296   6.183   3.629  12.070 -2.2494  2.7727  1.6233
 7269TIP3   OH243297   3.543   5.187  16.983 -0.6416 -0.0869 -1.0819
 7269TIP3    H143298   3.623   5.234  16.961 -0.9708  0.5532 -0.9366
 7269TIP3    H243299   3.572   5.111  17.033 -0.3178  2.0108  2.1353
 7270TIP3   OH243300   6.175   1.239  13.057 -0.3513  0.2708  0.1823
 7270TIP3    H143301   6.181   1.334  13.052  0.2212  0.2398  0.2315
 7270TIP3    H243302   6.179   1.210  12.965 -1.2777  0.3280  0.1125
 7271TIP3   OH243303   3.369   0.952  11.633 -0.9070  0.4085 -0.0149
 7271TIP3    H143304   3.450   0.901  11.633 -0.9099  0.4048 -0.3216
 7271TIP3    H243305   3.397   1.042  11.651 -1.1477 -0.0844  3.5774
 7272TIP3   OH243306   2.225   6.172   1.245  0.1477  0.0921 -0.1878
 7272TIP3    H143307   2.199   6.242   1.185  1.1766  0.6200 -0.0493
 7272TIP3    H243308   2.236   6.095   1.189  0.1526  0.3407 -0.5339
 7273TIP3   OH243309   0.908   4.591  13.008  0.4943 -0.6447  0.0283
 7273TIP3    H143310   0.956   4.535  13.068  1.4673 -0.1989 -0.3130
 7273TIP3    H243311   0.972   4.657  12.981 -0.7680  0.9979  0.8754
 7274TIP3   OH243312   4.177   1.378  10.988 -0.3395  0.2173 -0.1108
 7274TIP3    H143313   4.168   1.376  10.892 -0.5187  3.6912 -0.2980
 7274TIP3    H243314   4.117   1.447  11.016 -0.1503 -0.5810  2.5304
 7275TIP3   OH243315   2.458   1.022  12.532  0.2259 -0.4454 -0.0172
 7275TIP3    H143316   2.551   1.043  12.542  0.5728 -1.9705  0.2311
 7275TIP3    H243317   2.457   0.927  12.518 -1.3246 -0.5053  0.3846
 7276TIP3   OH243318   2.778   6.119   4.517 -0.3286 -0.2865  0.1666
 7276TIP3    H143319   2.683   6.128   4.509 -0.2200 -0.0045 -0.9136
 7276TIP3    H243320   2.800   6.169   4.595 -0.8861  0.9625 -0.4528
 7277TIP3   OH243321   4.684   0.479   3.450  0.4506  0.4344 -0.5935
 7277TIP3    H143322   4.636   0.547   3.403 -1.8999 -0.7747 -0.0879
 7277TIP3    H243323   4.643   0.397   3.423 -0.1873 -0.4033  2.5404
 7278TIP3   OH243324   5.752   3.534  16.920  0.2709  0.1801 -0.0146
 7278TIP3    H143325   5.789   3.448  16.904  0.3580 -0.5100  3.1722
 7278TIP3    H243326   5.658   3.522  16.908  0.3992  0.0187 -0.9132
 7279TIP3   OH243327   4.800   1.356   1.987  0.2431  0.1887  0.5063
 7279TIP3    H143328   4.836   1.302   1.916 -2.0211 -0.2950 -0.3726
 7279TIP3    H243329   4.780   1.294   2.057 -0.8206  0.0807  0.1361
 7280TIP3   OH243330   1.962   6.588  14.460 -0.0314  0.4888 -0.6529
 7280TIP3    H143331   1.890   6.556  14.405 -1.7535  0.2170  1.6251
 7280TIP3    H243332   1.919   6.624  14.537  2.2896 -1.7349  1.8874
 7281TIP3   OH243333   1.064   1.973  10.729  0.6489  1.3636 -0.3794
 7281TIP3    H143334   1.009   2.052  10.735 -0.5470  0.6188 -1.1453
 7281TIP3    H243335   1.114   1.985  10.648 -1.4068  0.2469 -1.9203
 7282TIP3   OH243336   0.578   4.066  11.700 -0.1043  0.1119  0.4981
 7282TIP3    H143337   0.608   3.990  11.651  2.0191 -0.5387  2.6243
 7282TIP3    H243338   0.569   4.035  11.790 -0.8205  1.9888  1.1238
 7283TIP3   OH243339   6.754   3.641   4.025 -0.0312  0.3264  0.7123
 7283TIP3    H143340   6.845   3.610   4.018 -0.9347 -2.4430 -0.1831
 7283TIP3    H243341   6.758   3.732   3.996  2.4503  0.3325  0.7757
 7284TIP3   OH243342   2.094   6.824   2.933 -0.2605  0.0394 -0.4160
 7284TIP3    H143343   2.065   6.914   2.943  1.6027  0.6540 -0.1433
 7284TIP3    H243344   2.088   6.806   2.839  0.6505  0.9212 -0.6506
 7285TIP3   OH243345   4.261   0.088   4.291  0.0455 -0.0573  0.6652
 7285TIP3    H143346   4.332   0.114   4.349  1.3855 -1.4248 -0.2927
 7285TIP3    H243347   4.186   0.076   4.350  0.2472  2.4243  1.5595
 7286TIP3   OH243348   0.546   3.913   1.485 -0.1256 -0.0881  0.4493
 7286TIP3    H143349   0.619   3.852   1.477  2.4467  2.4826  2.3578
 7286TIP3    H243350   0.469   3.857   1.494  1.6602 -2.9563 -0.6835
 7287TIP3   OH243351   0.013   0.076  14.381  0.2404  0.4311  0.0130
 7287TIP3    H143352  -0.076   0.049  14.357  0.9037 -0.5662 -1.4468
 7287TIP3    H243353   0.039   0.014  14.450  0.6917 -0.9025 -1.3078
 7288TIP3   OH243354   2.336   3.659  12.307 -0.5462  0.2806  0.2779
 7288TIP3    H143355   2.390   3.633  12.233 -0.2919  1.8414 -0.1181
 7288TIP3    H243356   2.342   3.754  12.309  1.1319  0.2528  3.5734
 7289TIP3   OH243357   5.351   6.462   1.437  0.2530 -0.1575  0.1985
 7289TIP3    H143358   5.363   6.368   1.424  0.8463 -0.1000  0.2966
 7289TIP3    H243359   5.357   6.500   1.350  0.8978 -0.1191  0.2586
 7290TIP3   OH243360   3.583   3.882   3.124  0.4904  0.4074 -0.3247
 7290TIP3    H143361   3.530   3.922   3.193  0.0679 -0.5284 -0.0958
 7290TIP3    H243362   3.673   3.885   3.158  0.2972  0.0364  0.2320
 7291TIP3   OH243363   0.847   0.826   0.995  0.1708  0.4691 -0.3497
 7291TIP3    H143364   0.786   0.769   1.043  2.8281  0.1451  3.0734
 7291TIP3    H243365   0.818   0.915   1.015  1.3080  0.3423  2.2300
 7292TIP3   OH243366   4.282   3.867  12.126  0.2586 -0.0237  0.1397
 7292TIP3    H143367   4.307   3.781  12.160  1.9087  0.5300  0.3945
 7292TIP3    H243368   4.187   3.864  12.122  0.2963 -2.1834 -0.6621
 7293TIP3   OH243369   2.439   4.379   1.919  0.3090 -0.0775  0.2249
 7293TIP3    H143370   2.370   4.323   1.883  0.1759  0.2922 -0.1032
 7293TIP3    H243371   2.450   4.349   2.009  0.2104 -0.6019  0.0649
 7294TIP3   OH243372   0.886   6.299   0.508  0.3779 -0.4530 -0.3360
 7294TIP3    H143373   0.881   6.279   0.602  2.0406 -1.0394 -0.3403
 7294TIP3    H243374   0.969   6.346   0.499 -0.8961  1.7317 -1.1734
 7295TIP3   OH243375   6.650   5.035   1.619 -0.3161 -0.4992 -0.0386
 7295TIP3    H143376   6.611   5.046   1.533 -1.2940 -0.6771  0.3655
 7295TIP3    H243377   6.743   5.053   1.606 -0.6059  0.4495 -0.9311
 7296TIP3   OH243378   0.952   4.973   2.197 -0.2852 -0.5134  0.0750
 7296TIP3    H143379   0.982   5.056   2.233  0.6258 -0.9894  0.4452
 7296TIP3    H243380   0.858   4.986   2.182 -0.1597  0.5689  0.1313
 7297TIP3   OH243381   5.469   4.934  16.005  0.6761  0.8324 -0.1885
 7297TIP3    H143382   5.407   4.985  15.952  0.0913  0.1698 -0.1617
 7297TIP3    H243383   5.515   4.999  16.058  0.5737  1.4121 -0.7961
 7298TIP3   OH243384   2.595   2.788  10.388 -0.3861 -0.6428  0.3873
 7298TIP3    H143385   2.619   2.859  10.328  2.4489 -1.8858 -0.1230
 7298TIP3    H243386   2.537   2.732  10.337  3.7420 -2.9480 -2.4224
 7299TIP3   OH243387   4.640   5.019   1.331 -0.2221  0.3105  0.3752
 7299TIP3    H143388   4.723   4.972   1.337 -0.0001  0.8414  1.7515
 7299TIP3    H243389   4.644   5.086   1.399 -1.0219  1.5789 -0.7582
 7300TIP3   OH243390   0.643   5.742  14.257  0.0304 -0.0858  0.2111
 7300TIP3    H143391   0.704   5.801  14.214 -0.6345 -0.1262 -0.8353
 7300TIP3    H243392   0.556   5.779  14.238 -0.3144 -0.4093  1.0758
 7301TIP3   OH243393   6.106   6.669  15.105  0.0073 -0.2698 -0.4741
 7301TIP3    H143394   6.157   6.588  15.102  0.6995  0.1695 -0.6491
 7301TIP3    H243395   6.017   6.640  15.128  0.2189 -1.0884 -0.6555
 7302TIP3   OH243396   5.807   6.549  13.344 -0.3879 -0.1893 -0.2169
 7302TIP3    H143397   5.789   6.462  13.308  0.3373 -0.0139 -1.0507
 7302TIP3    H243398   5.733   6.603  13.315 -0.2379 -0.2541 -0.7389
 7303TIP3   OH243399   2.341   3.386  16.379  0.1105 -0.0441 -0.3041
 7303TIP3    H143400   2.258   3.340  16.366  0.9922 -1.8468  0.0348
 7303TIP3    H243401   2.321   3.455  16.442 -1.3669  0.3693 -1.1638
 7304TIP3   OH243402   4.197   0.225   2.212  0.8003 -0.1614 -0.3292
 7304TIP3    H143403   4.268   0.240   2.150 -0.0912  2.5576 -0.8007
 7304TIP3    H243404   4.134   0.172   2.163  0.1821  1.7997 -1.7641
 7305TIP3   OH243405   2.228   5.152  12.561  0.2423 -0.4626 -0.7218
 7305TIP3    H143406   2.224   5.236  12.516  1.1587  0.2070  0.4104
 7305TIP3    H243407   2.311   5.114  12.535  1.1716  0.3035  0.9910
 7306TIP3   OH243408   4.474   5.634   3.836  0.2743  0.4911  0.1042
 7306TIP3    H143409   4.410   5.668   3.898 -2.1758 -1.4091 -1.2229
 7306TIP3    H243410   4.541   5.593   3.891 -1.5369 -0.6564  1.5436
 7307TIP3   OH243411   4.106   0.901   4.934 -0.0349  0.1968 -0.4797
 7307TIP3    H143412   4.029   0.867   4.888 -0.4805  0.6970 -0.1160
 7307TIP3    H243413   4.144   0.824   4.976 -0.6371  0.0309 -0.2338
 7308TIP3   OH243414   3.172   1.887  14.433  0.5473  0.3274 -0.3108
 7308TIP3    H143415   3.136   1.972  14.460  0.8176  0.3859 -0.1356
 7308TIP3    H243416   3.150   1.880  14.340 -1.3501 -0.3443  0.1361
 7309TIP3   OH243417   2.349   5.875  14.959 -0.0527  0.1784  0.3188
 7309TIP3    H143418   2.391   5.957  14.982 -3.2962  1.9471  0.5192
 7309TIP3    H243419   2.374   5.860  14.868  1.9402  0.4093  0.7831
 7310TIP3   OH243420   1.058   6.415   0.993  0.1377 -0.4108  0.1029
 7310TIP3    H143421   1.043   6.462   0.911 -0.7202  0.6560  0.8442
 7310TIP3    H243422   1.152   6.422   1.008  0.1615  0.1899 -0.3179
 7311TIP3   OH243423   2.339   4.641   2.005 -0.0624  0.0117 -0.0697
 7311TIP3    H143424   2.369   4.551   1.988  0.7446  0.4027 -0.7654
 7311TIP3    H243425   2.255   4.630   2.049  0.4808 -1.0992  0.7264
 7312TIP3   OH243426   5.818   5.234  11.638  0.2011  0.0186 -0.3094
 7312TIP3    H143427   5.745   5.291  11.613  0.3773  0.8063  0.8809
 7312TIP3    H243428   5.847   5.195  11.556 -4.2063 -3.6772 -0.5155
 7313TIP3   OH243429   5.300   5.127  16.644 -0.5051  0.5202  0.1236
 7313TIP3    H143430   5.307   5.152  16.736  1.1909  0.1280  0.1316
 7313TIP3    H243431   5.273   5.207  16.599 -0.2683  0.9992  0.8219
 7314TIP3   OH243432   3.502   5.391   1.059  0.4388 -0.0377 -0.2202
 7314TIP3    H143433   3.497   5.297   1.078 -0.0768 -0.2031 -1.1123
 7314TIP3    H243434   3.526   5.395   0.966  0.5561  0.7123 -0.1592
 7315TIP3   OH243435   3.881   6.611   4.726 -0.0371 -0.0350 -0.2245
 7315TIP3    H143436   3.853   6.637   4.638 -0.0270  1.1858  0.1131
 7315TIP3    H243437   3.848   6.680   4.783 -0.5743 -1.1176  0.8265
 7316TIP3   OH243438   6.707   1.545   5.646  0.4951 -0.3652  0.8965
 7316TIP3    H143439   6.633   1.541   5.707 -0.1071  1.3109  0.3167
 7316TIP3    H243440   6.775   1.594   5.693  0.4960 -0.1730  0.6980
 7317TIP3   OH243441   1.984   3.684  15.976  0.6659  0.4270  0.0113
 7317TIP3    H143442   2.041   3.651  16.046 -0.1076 -1.0538 -0.0245
 7317TIP3    H243443   1.909   3.624  15.976 -2.6189  4.0932  2.2502
 7318TIP3   OH243444   1.432   5.327  14.577 -0.4231 -0.3760  0.0700
 7318TIP3    H143445   1.498   5.329  14.508 -0.4601 -0.3107  0.0363
 7318TIP3    H243446   1.374   5.400  14.557 -0.6005 -0.5312  0.0051
 7319TIP3   OH243447   2.869   2.167  16.266  0.1859  0.2975 -0.1716
 7319TIP3    H143448   2.857   2.206  16.180  2.5154  3.6378  0.8498
 7319TIP3    H243449   2.957   2.130  16.264 -0.0756 -0.4005  0.5237
 7320TIP3   OH243450   5.677   2.429  11.777  0.1713  0.1544  0.2518
 7320TIP3    H143451   5.607   2.367  11.795  0.7288 -0.7184 -0.5344
 7320TIP3    H243452   5.633   2.503  11.734 -0.3264 -0.2076  0.1233
 7321TIP3   OH243453   2.367   1.834   3.815  0.2553  0.3182 -0.0662
 7321TIP3    H143454   2.374   1.919   3.771  2.6067 -0.6548 -1.7649
 7321TIP3    H243455   2.450   1.791   3.797 -1.8083 -3.4776 -1.6626
 7322TIP3   OH243456   0.421   4.053   1.186 -0.4899 -0.0376 -0.6239
 7322TIP3    H143457   0.449   4.128   1.134  2.4708  0.7787  1.8361
 7322TIP3    H243458   0.345   4.085   1.234 -0.6495  0.6282 -1.3025
 7323TIP3   OH243459   2.587   1.929  15.805  0.1183 -0.2053 -0.0080
 7323TIP3    H143460   2.574   2.024  15.810  2.1557  0.0855  0.7215
 7323TIP3    H243461   2.521   1.892  15.863 -0.8926  0.7173 -0.5304
 7324TIP3   OH243462   1.250   1.028  11.095  0.5330 -0.5195 -0.5838
 7324TIP3    H143463   1.180   1.074  11.048  0.5073  0.1315  0.0788
 7324TIP3    H243464   1.330   1.072  11.066  0.4771  0.2204  0.3463
 7325TIP3   OH243465   2.374   1.464  15.675 -0.2083 -0.0581  0.0661
 7325TIP3    H143466   2.458   1.509  15.676 -1.0221  1.6090  1.8381
 7325TIP3    H243467   2.378   1.404  15.749 -0.5058 -0.0599  0.0840
 7326TIP3   OH243468   2.445   3.049  14.361  0.5854 -0.4228 -0.1433
 7326TIP3    H143469   2.391   2.976  14.391  0.4165  0.1381  1.0004
 7326TIP3    H243470   2.386   3.102  14.307 -1.1198  1.8556  3.5450
 7327TIP3   OH243471   2.823   1.063  15.782  0.1036 -0.4141 -0.2233
 7327TIP3    H143472   2.829   1.028  15.871 -0.3278 -0.1219 -0.0805
 7327TIP3    H243473   2.873   1.144  15.785  1.0284 -0.9549 -0.5339
 7328TIP3   OH243474   0.087   2.891  13.730  0.4753  0.6635 -0.3691
 7328TIP3    H143475   0.103   2.942  13.651  1.3507 -0.8250 -1.1891
 7328TIP3    H243476   0.136   2.810  13.717 -2.6387 -1.4427 -0.1824
 7329TIP3   OH243477   6.300   1.546   6.042  0.2221  0.5297 -0.1660
 7329TIP3    H143478   6.390   1.542   6.074 -0.2086 -0.0473  1.0409
 7329TIP3    H243479   6.262   1.622   6.086  0.1333  0.8337 -0.7496
 7330TIP3   OH243480   3.224   3.849   5.602  0.0316  0.2141  0.0979
 7330TIP3    H143481   3.200   3.861   5.693  0.8058  1.9245  0.1048
 7330TIP3    H243482   3.294   3.783   5.604 -1.5788 -1.5791  0.4581
 7331TIP3   OH243483   4.746   0.233   2.510 -0.4283 -0.2581  0.3488
 7331TIP3    H143484   4.734   0.158   2.568  2.3603  0.4726  2.1015
 7331TIP3    H243485   4.697   0.304   2.553 -1.1012 -0.5171  0.0026
 7332TIP3   OH243486   2.195   0.423  13.296  0.3252  0.7503  0.4345
 7332TIP3    H143487   2.140   0.492  13.258 -0.1602  0.2790  0.2585
 7332TIP3    H243488   2.133   0.364  13.339  0.5996 -0.2311 -0.4741
 7333TIP3   OH243489   2.598   1.757  16.658 -0.1730 -0.0759  0.5593
 7333TIP3    H143490   2.581   1.720  16.572 -2.4262  2.5140 -0.2555
 7333TIP3    H243491   2.579   1.685  16.719 -3.0802 -0.7596 -0.9686
 7334TIP3   OH243492   4.590   2.245  15.226  0.3139  0.5465 -0.3643
 7334TIP3    H143493   4.685   2.243  15.212 -0.0032 -0.6651 -2.9507
 7334TIP3    H243494   4.566   2.336  15.210  1.0067  0.8348  0.1612
 7335TIP3   OH243495   2.529   1.438   2.578 -0.7113  0.3277  0.0616
 7335TIP3    H143496   2.618   1.407   2.593 -1.1825 -0.1964  2.0159
 7335TIP3    H243497   2.514   1.424   2.484  1.9561  2.3611 -0.8036
 7336TIP3   OH243498   6.491   3.320  16.720 -0.1030 -0.3915 -0.2315
 7336TIP3    H143499   6.434   3.288  16.649  0.1535  0.7930 -1.0004
 7336TIP3    H243500   6.460   3.409  16.737  1.7202  0.4147 -0.9105
 7337TIP3   OH243501   4.113   5.792  14.767  0.2971  0.3770  0.2904
 7337TIP3    H143502   4.032   5.795  14.819 -2.1663  1.5802 -3.2196
 7337TIP3    H243503   4.163   5.868  14.797 -1.2187  1.2744  0.6984
 7338TIP3   OH243504   4.757   4.752   2.071  0.4443  0.0333  0.0264
 7338TIP3    H143505   4.674   4.792   2.097  0.3252  0.7410 -1.3691
 7338TIP3    H243506   4.741   4.718   1.983  1.3246 -0.8080  0.1722
 7339TIP3   OH243507   3.850   2.881   0.715  0.5909 -0.1251  0.2295
 7339TIP3    H143508   3.936   2.894   0.753  0.3962  2.6139 -0.1033
 7339TIP3    H243509   3.861   2.902   0.623 -0.1293 -1.3543 -0.1682
 7340TIP3   OH243510   0.511   0.700   5.629 -0.4061  0.0332  0.1361
 7340TIP3    H143511   0.508   0.691   5.725 -0.2463 -1.6599  0.0090
 7340TIP3    H243512   0.557   0.622   5.599  0.4831  1.0536 -1.2766
 7341TIP3   OH243513   3.965   4.217  11.397 -0.2258  0.0892  0.2075
 7341TIP3    H143514   3.871   4.200  11.393 -0.3814  1.0491 -0.7824
 7341TIP3    H243515   4.005   4.134  11.369 -0.8073 -0.0854 -0.1339
 7342TIP3   OH243516   6.188   4.845  15.811  0.2589 -0.2020  0.0605
 7342TIP3    H143517   6.205   4.833  15.717  2.0393 -2.6096  0.5968
 7342TIP3    H243518   6.242   4.920  15.836 -0.9784  1.0881 -0.9621
 7343TIP3   OH243519   3.040   4.809  15.152 -0.3949 -0.3101  0.4867
 7343TIP3    H143520   3.084   4.884  15.111  0.1590 -0.6175  0.5207
 7343TIP3    H243521   3.108   4.744  15.163 -1.0630 -1.1967 -0.4348
 7344TIP3   OH243522   2.059   3.314  10.583  0.2587  0.2686 -0.4731
 7344TIP3    H143523   2.153   3.304  10.597 -0.4219 -2.9970  3.8601
 7344TIP3    H243524   2.037   3.249  10.516  0.5892 -3.7499  2.9022
 7345TIP3   OH243525   4.977   2.543   3.501  0.1782 -0.0185 -0.2691
 7345TIP3    H143526   4.955   2.543   3.408  0.8853 -1.5487 -0.4788
 7345TIP3    H243527   5.042   2.612   3.510  0.8411 -0.5086 -1.1236
 7346TIP3   OH243528   2.869   2.793  11.889 -0.3124 -0.5801 -0.5495
 7346TIP3    H143529   2.817   2.727  11.844 -0.6064 -1.2057  0.6607
 7346TIP3    H243530   2.816   2.817  11.966 -0.1996  1.0265 -0.9214
 7347TIP3   OH243531   5.146   5.847   0.595 -0.0451 -0.1011  0.1942
 7347TIP3    H143532   5.084   5.852   0.523 -0.8553  2.1538  0.9844
 7347TIP3    H243533   5.232   5.856   0.554 -0.4317  0.1214 -0.5737
 7348TIP3   OH243534   4.650   3.704   4.970  0.3883 -0.3573 -0.2626
 7348TIP3    H143535   4.566   3.683   4.929  0.7199 -0.0916 -1.0958
 7348TIP3    H243536   4.627   3.742   5.055 -0.3719  0.6605 -0.9144
 7349TIP3   OH243537   3.793   0.283   4.524  0.3311 -0.2240  0.2104
 7349TIP3    H143538   3.885   0.308   4.524  0.6924 -1.4237 -1.1644
 7349TIP3    H243539   3.748   0.357   4.484  0.8509 -0.1093 -0.1694
 7350TIP3   OH243540   1.267   1.708  15.195  0.1367  0.5000 -0.9499
 7350TIP3    H143541   1.278   1.737  15.105  0.1243  0.0930 -1.0809
 7350TIP3    H243542   1.324   1.766  15.246  1.9738 -0.7682 -1.4759
 7351TIP3   OH243543   5.962   4.771  16.628  0.1221  0.4445  0.4432
 7351TIP3    H143544   5.943   4.747  16.718  0.6226 -2.2617 -0.0837
 7351TIP3    H243545   6.021   4.847  16.635  0.1605  0.2831  2.3789
 7352TIP3   OH243546   0.873   1.162   5.464 -0.0312 -0.1825  0.3338
 7352TIP3    H143547   0.794   1.214   5.479  0.5462  1.3395 -1.4568
 7352TIP3    H243548   0.909   1.146   5.552 -1.5431  0.3429  1.0743
 7353TIP3   OH243549   1.500   5.297   1.768  0.4973  0.5945 -0.1928
 7353TIP3    H143550   1.570   5.283   1.831 -1.0730 -0.5430  1.4125
 7353TIP3    H243551   1.509   5.224   1.706 -0.0456 -0.3766  0.8225
 7354TIP3   OH243552   0.246   0.541  13.203 -0.2557 -0.1098  0.5799
 7354TIP3    H143553   0.202   0.472  13.253 -1.7104  1.3567  1.4254
 7354TIP3    H243554   0.189   0.558  13.129  0.6419 -0.5379 -0.2290
 7355TIP3   OH243555   5.466   4.989   6.188 -0.1091  0.2359 -0.8057
 7355TIP3    H143556   5.526   4.949   6.251 -1.8559 -0.1863  0.6403
 7355TIP3    H243557   5.430   5.064   6.234  1.1932  2.0670 -2.5981
 7356TIP3   OH243558   2.369   6.256   0.445  0.1106  0.0423 -0.4369
 7356TIP3    H143559   2.407   6.337   0.409  1.5840 -0.1667  0.5691
 7356TIP3    H243560   2.349   6.278   0.536  0.2801 -0.6614 -0.2281
 7357TIP3   OH243561   0.573   4.179   3.403 -0.1440  0.0217  0.1178
 7357TIP3    H143562   0.569   4.275   3.405  0.8858  0.0650  1.2859
 7357TIP3    H243563   0.549   4.156   3.313 -0.4767  1.3626 -0.1634
 7358TIP3   OH243564   1.807   5.493   2.061 -0.0502  0.3595  0.0764
 7358TIP3    H143565   1.787   5.582   2.087 -1.5902  0.3412 -0.9396
 7358TIP3    H243566   1.833   5.449   2.143 -1.0049  1.2745  0.8981
 7359TIP3   OH243567   4.455   0.968   1.502  0.1225 -0.1603  0.3463
 7359TIP3    H143568   4.512   0.945   1.428 -0.0863 -1.1669  0.4960
 7359TIP3    H243569   4.377   0.915   1.490 -1.3712  2.0835 -0.5281
 7360TIP3   OH243570   3.786   1.830  14.474  0.1779  0.5546 -0.2949
 7360TIP3    H143571   3.698   1.794  14.463  0.6387 -0.2394 -1.6552
 7360TIP3    H243572   3.843   1.753  14.481  0.7864  1.0581  0.5832
 7361TIP3   OH243573   6.160   5.307   3.367 -0.0387 -0.3950  0.0497
 7361TIP3    H143574   6.254   5.309   3.351 -0.0829 -1.1699 -0.3835
 7361TIP3    H243575   6.150   5.257   3.448  0.1308  2.8584  2.2400
 7362TIP3   OH243576   6.085   5.805   3.091 -0.8478  0.3135  0.2162
 7362TIP3    H143577   6.073   5.861   3.168 -1.3658  0.7590 -0.1840
 7362TIP3    H243578   6.077   5.716   3.125  2.6617  0.2979  1.3847
 7363TIP3   OH243579   1.453   1.842  11.916  0.4827 -0.0493 -0.2274
 7363TIP3    H143580   1.450   1.819  11.823 -2.8083  0.5184 -0.4042
 7363TIP3    H243581   1.450   1.758  11.961  0.6671 -0.2896 -0.6526
 7364TIP3   OH243582   1.172   2.597   2.810 -0.0176  0.0178 -0.1134
 7364TIP3    H143583   1.157   2.524   2.749 -0.6403 -0.4296  0.5608
 7364TIP3    H243584   1.085   2.619   2.843  0.1747  1.0287 -0.2496
 7365TIP3   OH243585   0.194   2.605   4.076 -0.2015  0.3178  0.2515
 7365TIP3    H143586   0.113   2.559   4.099  0.2423 -0.0727  1.0779
 7365TIP3    H243587   0.259   2.536   4.068  0.6739  0.8123  2.3446
 7366TIP3   OH243588   1.722   5.222  15.847 -0.2150  0.0454  0.3369
 7366TIP3    H143589   1.717   5.275  15.768  1.1527  0.1878  0.3215
 7366TIP3    H243590   1.687   5.137  15.821 -0.4141  0.2978 -0.2293
 7367TIP3   OH243591   4.774   1.181  16.008 -1.1854 -0.3486 -0.4164
 7367TIP3    H143592   4.771   1.250  15.942  0.9427 -0.1616 -0.3936
 7367TIP3    H243593   4.745   1.102  15.963  3.1974 -0.9599 -2.6937
 7368TIP3   OH243594   4.270   2.261  13.388 -0.1009 -0.1745 -0.1020
 7368TIP3    H143595   4.226   2.335  13.346  1.2605  0.9667  0.3810
 7368TIP3    H243596   4.346   2.301  13.432  2.5138 -2.2196 -2.4022
 7369TIP3   OH243597   6.246   0.302   5.864  0.6413  0.0783  0.2513
 7369TIP3    H143598   6.229   0.298   5.958  2.0811  0.4193  0.5642
 7369TIP3    H243599   6.165   0.335   5.825  0.4585  1.2213  1.5391
 7370TIP3   OH243600   1.073   6.688   1.659 -0.0202  0.5365 -0.6449
 7370TIP3    H143601   1.078   6.653   1.748 -0.2073  1.5203 -0.2374
 7370TIP3    H243602   1.157   6.733   1.646  0.2418 -0.0954 -1.1840
 7371TIP3   OH243603   1.221   2.978   3.606  0.0074 -0.6240  0.1735
 7371TIP3    H143604   1.187   3.067   3.607 -0.5171 -0.8218  0.5783
 7371TIP3    H243605   1.163   2.931   3.546  0.1354 -0.7454  0.1448
 7372TIP3   OH243606   3.398   0.390   4.273 -0.8208 -0.4587 -0.0947
 7372TIP3    H143607   3.403   0.294   4.269 -0.6265 -0.4933  0.7610
 7372TIP3    H243608   3.390   0.417   4.182 -0.6702 -1.2799 -0.3630
 7373TIP3   OH243609   6.383   5.992  11.194 -0.1352  0.0227 -0.5838
 7373TIP3    H143610   6.366   5.901  11.218 -0.5802  0.1593 -0.3735
 7373TIP3    H243611   6.467   5.989  11.148  0.0392 -0.4392 -0.2438
 7374TIP3   OH243612   4.464   6.077   5.386 -0.2804 -0.1823  0.3810
 7374TIP3    H143613   4.379   6.035   5.395 -0.0240 -0.6079  0.9254
 7374TIP3    H243614   4.467   6.140   5.458 -0.4523  0.4048 -0.1185
 7375TIP3   OH243615   4.043   4.255   5.667  0.2775 -0.6219 -0.3109
 7375TIP3    H143616   4.120   4.235   5.614 -0.5307  0.9229 -2.1580
 7375TIP3    H243617   4.003   4.331   5.625 -1.8936 -0.9541  0.9870
 7376TIP3   OH243618   5.131   3.775  12.847  0.2369  0.0320 -0.4298
 7376TIP3    H143619   5.067   3.770  12.776  2.1079  1.5916 -2.3650
 7376TIP3    H243620   5.103   3.851  12.898  0.9909  1.3097 -1.8314
 7377TIP3   OH243621   5.825   5.266  15.613  0.1756 -0.8969 -0.1324
 7377TIP3    H143622   5.787   5.179  15.607 -1.6012 -0.3711  1.9181
 7377TIP3    H243623   5.889   5.259  15.684 -0.8464 -0.3139  0.8844
 7378TIP3   OH243624   5.877   3.316  16.429  0.4144 -0.0281  0.0250
 7378TIP3    H143625   5.870   3.411  16.438  2.3011  0.1299  0.0894
 7378TIP3    H243626   5.846   3.299  16.340 -1.3816  0.4364  0.5178
 7379TIP3   OH243627   4.319   6.336   2.602  0.0496  0.3105  0.3572
 7379TIP3    H143628   4.325   6.361   2.510  0.4766  0.6955  0.4855
 7379TIP3    H243629   4.383   6.265   2.611 -1.4175 -1.1247 -0.0896
 7380TIP3   OH243630   0.675   0.794   2.011  0.1543  0.3748 -0.4006
 7380TIP3    H143631   0.609   0.798   2.080 -0.5949  0.2566 -1.1059
 7380TIP3    H243632   0.754   0.828   2.053  0.4382 -2.1307  1.3388
 7381TIP3   OH243633   2.851   4.705  14.301 -0.4990 -0.9045  0.1873
 7381TIP3    H143634   2.762   4.720  14.268  0.5986  1.5462 -2.0878
 7381TIP3    H243635   2.907   4.716  14.224  1.8827 -0.9742  1.8062
 7382TIP3   OH243636   3.181   0.766  13.384 -0.0186 -0.1623  0.3569
 7382TIP3    H143637   3.251   0.823  13.353  0.6550 -1.4411 -0.5993
 7382TIP3    H243638   3.217   0.723  13.462  0.3485 -0.9327 -0.2217
 7383TIP3   OH243639   2.807   2.687   0.408  0.1089 -0.5842 -0.4810
 7383TIP3    H143640   2.767   2.702   0.493 -0.6491  0.6973 -1.0352
 7383TIP3    H243641   2.893   2.650   0.428 -0.5543 -1.5143  0.7835
 7384TIP3   OH243642   2.608   0.110   5.004 -0.4068  0.1162  0.0355
 7384TIP3    H143643   2.696   0.148   4.996  0.5642 -1.9218  0.4258
 7384TIP3    H243644   2.549   0.183   4.985  1.3460  1.6611  0.2318
 7385TIP3   OH243645   5.580   6.671   3.422  0.0347 -0.1493  0.0776
 7385TIP3    H143646   5.509   6.612   3.394 -0.4707  1.0026 -1.1757
 7385TIP3    H243647   5.651   6.612   3.448 -0.5444 -1.3289 -0.8963
 7386TIP3   OH243648   0.952   5.494  14.783 -0.1763  0.0440  0.1452
 7386TIP3    H143649   0.995   5.580  14.777  0.7295 -0.3521  0.8051
 7386TIP3    H243650   0.944   5.466  14.692 -0.5071  0.8350 -0.0824
 7387TIP3   OH243651   1.103   2.591   3.839 -0.0223 -0.1405  0.7021
 7387TIP3    H143652   1.155   2.588   3.758  0.6910  1.8441  1.0248
 7387TIP3    H243653   1.021   2.632   3.812  0.8464  2.0905  1.2116
 7388TIP3   OH243654   6.770   4.974   4.639  0.2318 -0.2511  0.7066
 7388TIP3    H143655   6.743   4.941   4.554 -1.8408  0.1809  1.1256
 7388TIP3    H243656   6.839   5.038   4.620 -0.1164 -0.2459 -0.6253
 7389TIP3   OH243657   2.605   3.726  16.926 -0.0473 -0.5801  0.6563
 7389TIP3    H143658   2.581   3.810  16.886 -1.9301 -0.6369  1.5815
 7389TIP3    H243659   2.678   3.694  16.872 -0.6424  0.6682 -0.9618
 7390TIP3   OH243660   5.115   0.661   2.464  0.1059 -0.9210 -0.6331
 7390TIP3    H143661   5.202   0.639   2.497  0.4106  0.4450 -0.4717
 7390TIP3    H243662   5.060   0.586   2.488  0.7346 -0.8062  1.2612
 7391TIP3   OH243663   5.082   3.478  11.202  0.4525  0.2481  0.1864
 7391TIP3    H143664   5.053   3.565  11.176  0.6818  0.2650 -0.0170
 7391TIP3    H243665   5.029   3.418  11.150  0.6465  0.2753 -0.0437
 7392TIP3   OH243666   1.476   1.601  12.536 -0.0467  0.2674 -0.0637
 7392TIP3    H143667   1.420   1.565  12.467 -1.2587  0.9898  0.5149
 7392TIP3    H243668   1.481   1.695  12.517  0.4269  0.3167  0.2742
 7393TIP3   OH243669   0.591   0.363   1.205  0.4916  0.0049 -0.0659
 7393TIP3    H143670   0.652   0.390   1.137  0.2739 -0.8618 -0.6249
 7393TIP3    H243671   0.509   0.346   1.158  0.7465 -2.0837  0.1402
 7394TIP3   OH243672   6.581   3.014   3.892 -0.6833 -0.1505  0.4619
 7394TIP3    H143673   6.537   3.050   3.816 -0.0784  1.1461  0.7079
 7394TIP3    H243674   6.517   3.020   3.962 -0.5131  0.6663  0.5520
 7395TIP3   OH243675   0.669   6.724   3.084 -0.2791  0.1146  0.1625
 7395TIP3    H143676   0.705   6.771   3.008 -1.8586  1.8327  0.4009
 7395TIP3    H243677   0.736   6.733   3.152  0.1577  0.5654 -0.3193
 7396TIP3   OH243678   0.874   4.963   6.265  0.4861 -0.4742  0.2782
 7396TIP3    H143679   0.786   4.935   6.240  1.3129 -2.5883 -0.4620
 7396TIP3    H243680   0.920   4.975   6.182  1.0958 -0.0843  0.6654
 7397TIP3   OH243681   2.561   3.895  13.574  0.4716 -0.2135  0.3224
 7397TIP3    H143682   2.557   3.983  13.611  0.4580 -0.3075  0.5431
 7397TIP3    H243683   2.494   3.896  13.504 -1.5232 -0.8827  2.1135
 7398TIP3   OH243684   1.010   1.415  11.477  0.0004 -0.0322 -0.0268
 7398TIP3    H143685   0.927   1.383  11.442 -0.1841  0.3274  0.0763
 7398TIP3    H243686   1.003   1.510  11.473 -0.0994  0.0252  1.1486
 7399TIP3   OH243687   3.349   3.725  15.472  0.1321  0.2619 -0.4110
 7399TIP3    H143688   3.286   3.770  15.417 -1.1047  0.9442  1.4825
 7399TIP3    H243689   3.407   3.794  15.504  0.1908  0.0214  0.0027
 7400TIP3   OH243690   4.042   5.027  14.342  0.3949 -0.0551 -0.1382
 7400TIP3    H143691   4.123   4.996  14.302  0.6786 -1.2133  1.2507
 7400TIP3    H243692   3.986   5.049  14.268  1.4793 -0.5338 -1.1434
 7401TIP3   OH243693   3.610   4.283  14.262  0.2886  0.5731  0.0731
 7401TIP3    H143694   3.583   4.279  14.170 -1.3491 -0.5035  0.5486
 7401TIP3    H243695   3.556   4.353  14.299  1.2682  1.3128  0.1371
 7402TIP3   OH243696   6.060   3.665  10.402  0.5462  0.3745  0.5563
 7402TIP3    H143697   6.050   3.596  10.468 -0.2552 -1.9459 -1.8357
 7402TIP3    H243698   6.091   3.619  10.324  2.3271  3.1468 -0.4942
 7403TIP3   OH243699   6.780   1.671  12.834  0.3762  0.0830  0.1523
 7403TIP3    H143700   6.693   1.670  12.795  0.6446  0.0050 -0.4695
 7403TIP3    H243701   6.788   1.586  12.878  0.5273 -0.3525 -0.6965
 7404TIP3   OH243702   6.758   0.982   2.159  0.1479 -0.2259  0.3273
 7404TIP3    H143703   6.668   1.014   2.159 -0.4741 -1.8719  0.9168
 7404TIP3    H243704   6.769   0.941   2.073 -0.1381 -1.2349  0.7622
 7405TIP3   OH243705   3.910   5.775  13.047  0.0463  0.2074  0.5555
 7405TIP3    H143706   3.862   5.748  12.969 -0.9448  1.7563  0.5914
 7405TIP3    H243707   3.854   5.750  13.120  0.1169  0.4278  0.6871
 7406TIP3   OH243708   2.523   6.117  14.951  0.3630 -0.4476 -0.0584
 7406TIP3    H143709   2.560   6.195  14.991  0.2020 -0.0519 -0.6688
 7406TIP3    H243710   2.429   6.132  14.951  0.3372 -0.5998 -0.2644
 7407TIP3   OH243711   6.572   4.465   5.622 -0.0997  0.0710  0.5520
 7407TIP3    H143712   6.639   4.500   5.680 -2.5660  1.9774  2.4660
 7407TIP3    H243713   6.528   4.542   5.587 -1.1342 -1.1126 -0.8660
 7408TIP3   OH243714   3.210   3.991  14.148 -0.2912  0.0939 -0.8133
 7408TIP3    H143715   3.146   3.921  14.135 -2.0945  1.7779 -1.5304
 7408TIP3    H243716   3.158   4.065  14.179  1.4120  1.3786 -0.8915
 7409TIP3   OH243717   2.028   4.364  13.459  0.1471 -0.4219  0.1629
 7409TIP3    H143718   2.034   4.318  13.542 -1.4921  1.4916  1.4165
 7409TIP3    H243719   2.118   4.393  13.441  0.1610  1.1862  2.5266
 7410TIP3   OH243720   5.653   5.997   4.527  0.5087  0.4313 -0.1175
 7410TIP3    H143721   5.623   5.985   4.617 -1.8211  1.3171 -0.7094
 7410TIP3    H243722   5.632   5.915   4.483 -0.7732  0.9166 -0.4417
 7411TIP3   OH243723   2.945   1.366  13.873 -0.4042 -0.5905  0.2845
 7411TIP3    H143724   2.886   1.434  13.905 -0.5717 -0.4780 -0.2493
 7411TIP3    H243725   2.919   1.288  13.922 -0.2645 -0.2941  0.8418
 7412TIP3   OH243726   2.795   0.673   2.660 -0.1247  0.0551  0.1154
 7412TIP3    H143727   2.782   0.748   2.719  0.6541 -0.1698  0.5965
 7412TIP3    H243728   2.753   0.600   2.705 -0.6751  0.1552 -0.2386
 7413TIP3   OH243729   4.825   3.254   2.742  0.0041  0.0635  0.8522
 7413TIP3    H143730   4.898   3.193   2.748  1.0226  1.1548  0.0411
 7413TIP3    H243731   4.758   3.217   2.800  0.7424 -1.5698  0.7130
 7414TIP3   OH243732   4.310   5.137   2.553  0.1029 -0.1054 -0.3854
 7414TIP3    H143733   4.355   5.099   2.477  1.7194  0.8783  0.0460
 7414TIP3    H243734   4.237   5.186   2.516  0.1784 -0.6063 -1.2137
 7415TIP3   OH243735   3.837   2.099  15.867 -0.3473 -0.3284  0.4375
 7415TIP3    H143736   3.837   2.017  15.818 -0.7117 -0.0748  0.0039
 7415TIP3    H243737   3.767   2.151  15.827  0.2014  0.3845  0.3808
 7416TIP3   OH243738   2.919   2.742   5.356  0.4474  0.1539  0.5935
 7416TIP3    H143739   2.915   2.795   5.436 -0.2512 -0.0355  0.6910
 7416TIP3    H243740   2.852   2.780   5.299  0.9371  0.2823  0.1011
 7417TIP3   OH243741   2.767   1.152  13.991  0.1723 -0.4014  0.0574
 7417TIP3    H143742   2.705   1.161  13.919 -0.2710  0.0416  0.4901
 7417TIP3    H243743   2.765   1.058  14.011  0.8308 -0.6458 -0.9619
 7418TIP3   OH243744   6.719   3.455  10.383  0.7479  0.0861 -0.1608
 7418TIP3    H143745   6.633   3.455  10.342  1.3040  0.5702 -1.3999
 7418TIP3    H243746   6.765   3.382  10.342  0.3973 -1.2679  1.7443
 7419TIP3   OH243747   5.760   2.239   0.044 -0.1115  0.0396 -0.2298
 7419TIP3    H143748   5.832   2.299   0.062  1.0996 -1.6591  0.9159
 7419TIP3    H243749   5.779   2.204  -0.043  0.8627 -0.9044  0.3391
 7420TIP3   OH243750   1.043   3.540  12.142  0.1080 -0.6315 -0.1337
 7420TIP3    H143751   0.980   3.470  12.161  0.5732 -1.0227  0.0006
 7420TIP3    H243752   0.995   3.603  12.089 -0.4131 -0.8964  0.0241
 7421TIP3   OH243753   0.361   0.335  10.476 -0.5670 -0.2047 -0.5444
 7421TIP3    H143754   0.342   0.270  10.544 -0.3945  0.6570  0.3535
 7421TIP3    H243755   0.303   0.408  10.497 -1.8888 -0.6422 -2.4567
 7422TIP3   OH243756   4.743   3.118   4.419  0.2202  0.4095 -0.0212
 7422TIP3    H143757   4.672   3.173   4.454  0.2561  1.5967 -1.7044
 7422TIP3    H243758   4.701   3.035   4.396 -0.0840  0.1492  1.3751
 7423TIP3   OH243759   2.701   5.576  12.645 -0.1083 -0.3227  0.1922
 7423TIP3    H143760   2.743   5.498  12.610 -0.5117 -0.9654  1.1231
 7423TIP3    H243761   2.750   5.649  12.605 -0.7364 -1.0021 -1.9038
 7424TIP3   OH243762   6.776   4.150  15.293  0.1270 -0.3780 -0.3032
 7424TIP3    H143763   6.804   4.106  15.213 -1.1945  0.3938 -1.2346
 7424TIP3    H243764   6.690   4.185  15.272  0.4208  1.2229  0.9162
 7425TIP3   OH243765   3.218   1.650   3.163  0.3793  0.0654  0.0329
 7425TIP3    H143766   3.139   1.692   3.196  0.5104 -0.7880  1.4766
 7425TIP3    H243767   3.290   1.691   3.212  0.5525 -1.4073  1.0722
 7426TIP3   OH243768   6.262   5.325   6.312  0.1513 -0.2731 -0.8409
 7426TIP3    H143769   6.296   5.254   6.257  1.2334 -0.8796  0.5518
 7426TIP3    H243770   6.255   5.286   6.400 -2.3574  0.3989 -0.6621
 7427TIP3   OH243771   3.582   0.974   5.699 -0.2310  0.1396 -0.2883
 7427TIP3    H143772   3.588   0.911   5.771 -1.1682  2.4682  2.0007
 7427TIP3    H243773   3.673   0.988   5.671  0.2852 -0.0615  1.2104
 7428TIP3   OH243774   5.435   0.594  16.846 -0.6669 -0.4022  0.3467
 7428TIP3    H143775   5.367   0.554  16.792  0.3961 -2.1273  0.2411
 7428TIP3    H243776   5.451   0.531  16.916  0.7443  0.0167  0.4354
 7429TIP3   OH243777   3.295   1.857  12.750 -0.1585  0.1219 -0.0194
 7429TIP3    H143778   3.338   1.813  12.824  0.5185 -0.1117 -0.5457
 7429TIP3    H243779   3.221   1.801  12.729  0.6376 -0.7216 -0.6147
 7430TIP3   OH243780   1.775   0.731   0.572  0.2651  0.3914  0.5348
 7430TIP3    H143781   1.690   0.713   0.532  0.1371  2.6531 -0.3833
 7430TIP3    H243782   1.754   0.785   0.649  0.8317  0.6823  0.4933
 7431TIP3   OH243783   2.005   2.789   1.781 -0.9739 -0.2446 -0.5763
 7431TIP3    H143784   2.088   2.809   1.738 -1.3436  1.1744 -0.6573
 7431TIP3    H243785   1.951   2.749   1.712 -1.1971  1.0653 -1.1849
 7432TIP3   OH243786   0.104   4.465   4.377 -0.1140  0.5531 -0.0222
 7432TIP3    H143787   0.113   4.417   4.294 -1.2487  1.9060 -0.9706
 7432TIP3    H243788   0.031   4.525   4.362  0.9213  2.2138  1.2930
 7433TIP3   OH243789   1.148   2.706   1.238 -0.2654 -0.6993  0.9601
 7433TIP3    H143790   1.214   2.661   1.290 -0.5088 -0.4781  1.4662
 7433TIP3    H243791   1.070   2.708   1.294 -0.8284 -1.3030  0.2172
 7434TIP3   OH243792   4.887   4.246   1.439 -0.0534  0.4579 -0.1878
 7434TIP3    H143793   4.811   4.304   1.447  0.5996  1.3923 -0.6052
 7434TIP3    H243794   4.853   4.170   1.391 -1.5633 -0.7649  2.5638
 7435TIP3   OH243795   5.997   1.601   3.869  0.1833  0.1831 -0.2027
 7435TIP3    H143796   6.021   1.539   3.800  1.2116  0.5916 -0.2315
 7435TIP3    H243797   5.934   1.554   3.924  0.4561 -0.6503 -0.5944
 7436TIP3   OH243798   2.760   5.482   2.682 -0.1509  0.3464  0.3176
 7436TIP3    H143799   2.776   5.576   2.672 -2.9260  0.8917  0.2981
 7436TIP3    H243800   2.665   5.473   2.683  0.0009 -2.5957 -0.6427
 7437TIP3   OH243801   1.414   4.990   1.858  0.2812  0.5967  0.4197
 7437TIP3    H143802   1.323   4.959   1.860  0.2298  0.4663 -1.6344
 7437TIP3    H243803   1.411   5.076   1.901 -1.0629  1.1270 -0.6515
 7438TIP3   OH243804   5.942   6.112  13.962  0.1529 -0.1771  0.2733
 7438TIP3    H143805   5.970   6.201  13.938  0.7125 -0.5775 -0.6283
 7438TIP3    H243806   5.893   6.124  14.043 -0.9117  1.1344 -0.5051
 7439TIP3   OH243807   3.265   4.108  13.906  0.1365  0.1190 -0.1252
 7439TIP3    H143808   3.177   4.143  13.918 -0.2228 -0.4984 -0.8735
 7439TIP3    H243809   3.277   4.046  13.977  0.2013  0.6354  0.3236
 7440TIP3   OH243810   1.105   0.658  11.824 -0.3295 -0.1693  0.6647
 7440TIP3    H143811   1.132   0.748  11.810  0.0888 -0.0649  2.0220
 7440TIP3    H243812   1.043   0.662  11.896 -2.1348 -0.7185 -0.7796
 7441TIP3   OH243813   1.060   5.964   2.561 -0.2908  0.3304  0.0001
 7441TIP3    H143814   1.061   5.971   2.657 -0.1796 -1.6686  0.1821
 7441TIP3    H243815   1.120   6.033   2.532  0.6382  0.1849  1.4426
 7442TIP3   OH243816   0.123   3.300   2.153  0.5401 -0.2008 -0.2768
 7442TIP3    H143817   0.200   3.328   2.201  1.0923  1.4829 -2.0287
 7442TIP3    H243818   0.117   3.206   2.170  1.2978  0.1320  2.1443
 7443TIP3   OH243819   2.325   3.767   2.798 -0.2549 -0.5926  0.2032
 7443TIP3    H143820   2.400   3.742   2.745  2.0374  2.4579  1.7251
 7443TIP3    H243821   2.355   3.757   2.889 -1.4403  1.2130  0.8462
 7444TIP3   OH243822   4.264   5.941   2.649  0.1893 -0.2555 -0.2375
 7444TIP3    H143823   4.301   5.999   2.583  0.1584 -1.2503 -1.1379
 7444TIP3    H243824   4.285   5.853   2.620  0.3287 -0.7225  1.1729
 7445TIP3   OH243825   6.671   6.671  14.641 -0.2551  0.0882 -0.3375
 7445TIP3    H143826   6.618   6.744  14.671  0.1234  0.3264 -0.2311
 7445TIP3    H243827   6.651   6.599  14.701 -1.3070 -0.1800 -0.9925
 7446TIP3   OH243828   2.729   3.008   3.775 -0.1726 -0.2352 -0.0075
 7446TIP3    H143829   2.650   3.063   3.782 -1.5792 -2.1823  0.2566
 7446TIP3    H243830   2.754   2.993   3.866 -0.4153 -0.8705 -0.0452
 7447TIP3   OH243831   0.566   0.247   5.015 -0.3139  0.4828 -0.1915
 7447TIP3    H143832   0.645   0.265   4.964  0.8725 -1.1731  0.9540
 7447TIP3    H243833   0.504   0.210   4.952  0.4627  0.1518 -0.7773
 7448TIP3   OH243834   5.645   1.024  10.547 -0.5108 -0.3773 -0.3414
 7448TIP3    H143835   5.590   1.080  10.492  0.8939  0.9615 -0.4343
 7448TIP3    H243836   5.599   1.022  10.631 -0.6067  0.9310 -0.3413
 7449TIP3   OH243837   5.432   5.404   5.501 -0.0724  0.0606  0.1298
 7449TIP3    H143838   5.402   5.330   5.553 -1.3039  0.9763  0.7792
 7449TIP3    H243839   5.527   5.395   5.499 -0.2222 -2.1361 -0.7538
 7450TIP3   OH243840   0.743   3.698   4.705 -0.2665  0.4609 -0.8139
 7450TIP3    H143841   0.684   3.758   4.660 -0.9153 -1.0010 -1.9782
 7450TIP3    H243842   0.824   3.701   4.654 -0.0270  0.9360 -0.4085
 7451TIP3   OH243843   2.426   3.618  13.512 -0.0271  0.4236 -0.0523
 7451TIP3    H143844   2.388   3.535  13.482  0.8002 -0.0419  0.1317
 7451TIP3    H243845   2.442   3.604  13.606 -1.0087  1.2407  0.2473
 7452TIP3   OH243846   5.317   3.975   2.630 -0.1945  0.1961 -0.4240
 7452TIP3    H143847   5.258   3.901   2.617  0.0024 -0.2378  0.9732
 7452TIP3    H243848   5.298   4.034   2.556  0.9432 -2.0197 -2.6289
 7453TIP3   OH243849   0.771   6.174   5.089 -0.0562 -0.6167 -0.4949
 7453TIP3    H143850   0.760   6.219   5.005  1.4234  0.4941 -0.1426
 7453TIP3    H243851   0.860   6.140   5.086  0.7377  1.1189  1.3558
 7454TIP3   OH243852   1.089   3.006  15.351  0.4464 -0.1028  0.3536
 7454TIP3    H143853   1.001   2.979  15.325 -0.2355  0.4606  1.9640
 7454TIP3    H243854   1.104   3.088  15.303  0.1433 -0.2438  0.0075
 7455TIP3   OH243855   4.140   6.223  12.803 -0.0788 -0.6365 -0.4293
 7455TIP3    H143856   4.072   6.160  12.828  0.2964 -0.1518  2.0156
 7455TIP3    H243857   4.218   6.195  12.851  0.8918  0.0757 -1.5350
 7456TIP3   OH243858   4.451   0.419  16.961 -0.0692  0.1484  0.5425
 7456TIP3    H143859   4.531   0.385  17.003  0.5456  3.1702  2.1064
 7456TIP3    H243860   4.382   0.403  17.025 -0.2520 -0.2134  0.2609
 7457TIP3   OH243861   5.783   5.640   2.114 -0.1520  0.0177  0.4483
 7457TIP3    H143862   5.715   5.577   2.136 -1.2318  1.6501  2.0171
 7457TIP3    H243863   5.750   5.724   2.147  1.7457  1.2147 -0.5184
 7458TIP3   OH243864   6.849   4.225   3.904  0.7765 -0.1590 -0.6479
 7458TIP3    H143865   6.775   4.215   3.846  0.5684  1.4121 -0.7027
 7458TIP3    H243866   6.926   4.209   3.849  0.5545  0.5927 -1.1868
 7459TIP3   OH243867   3.815   6.194   5.297 -0.2915  0.0172  0.0038
 7459TIP3    H143868   3.740   6.231   5.343 -0.4943 -0.0619 -0.2584
 7459TIP3    H243869   3.873   6.269   5.281 -0.3445  0.0894  0.1452
 7460TIP3   OH243870   4.916   6.761   6.646  0.2381 -0.1637 -0.3145
 7460TIP3    H143871   4.870   6.686   6.683  0.3788 -0.9102 -1.6062
 7460TIP3    H243872   4.964   6.726   6.571  2.8346  0.6065  0.8511
 7461TIP3   OH243873   1.060   3.716  15.893 -0.1494 -0.2137 -0.3506
 7461TIP3    H143874   1.156   3.717  15.894 -0.1473  1.0047 -0.7552
 7461TIP3    H243875   1.037   3.719  15.801 -0.5660  1.4534 -0.2169
 7462TIP3   OH243876   0.902   6.067  16.889  0.2423  0.4707 -0.2557
 7462TIP3    H143877   0.959   5.991  16.897  0.7038  0.6746 -1.3813
 7462TIP3    H243878   0.960   6.137  16.858 -0.4259  0.9343 -0.4773
 7463TIP3   OH243879   0.137   0.213   5.512 -0.0364  0.7126 -0.1452
 7463TIP3    H143880   0.133   0.309   5.519  1.5792  0.7578  0.4285
 7463TIP3    H243881   0.093   0.181   5.590  0.6891  1.0173  0.3990
 7464TIP3   OH243882   1.265   5.801   2.231 -0.1230  0.1454 -0.2968
 7464TIP3    H143883   1.264   5.780   2.324  0.8542  0.0569 -0.3011
 7464TIP3    H243884   1.186   5.760   2.196 -1.1497  1.2105  0.7025
 7465TIP3   OH243885   4.896   6.742  15.648  0.7135  0.2593  0.3959
 7465TIP3    H143886   4.965   6.679  15.628  1.2220  1.1169 -0.6827
 7465TIP3    H243887   4.838   6.738  15.572 -0.7491 -0.8329  1.5143
 7466TIP3   OH243888   3.789   1.392   6.676 -0.4671  0.2263  0.0040
 7466TIP3    H143889   3.852   1.342   6.727 -1.6712 -1.7147 -0.3097
 7466TIP3    H243890   3.778   1.474   6.725 -0.2568 -0.8274  1.9110
 7467TIP3   OH243891   6.632   1.029  12.106 -0.5328 -0.3263  0.5164
 7467TIP3    H143892   6.560   0.996  12.160  0.1581 -0.5982  1.2898
 7467TIP3    H243893   6.600   1.113  12.072 -1.3935 -0.6618  0.4588
 7468TIP3   OH243894   3.435   0.590  16.752 -0.1688 -0.2847 -0.4461
 7468TIP3    H143895   3.527   0.606  16.733 -0.1703 -0.2313 -0.4088
 7468TIP3    H243896   3.415   0.647  16.827 -0.0982 -0.6723 -0.1266
 7469TIP3   OH243897   2.629   6.440   3.548 -0.3370 -0.3506  0.0133
 7469TIP3    H143898   2.554   6.485   3.507 -0.2662 -0.0669  0.1926
 7469TIP3    H243899   2.590   6.366   3.594 -0.5009 -0.2341  0.0631
 7470TIP3   OH243900   1.848   4.846   5.509  0.0104  0.2809  0.1963
 7470TIP3    H143901   1.825   4.797   5.587  0.7214 -1.3253 -0.5541
 7470TIP3    H243902   1.764   4.868   5.468 -0.3381  0.5254  1.0277
 7471TIP3   OH243903   1.343   1.208   4.766 -0.9607 -0.4892 -0.2500
 7471TIP3    H143904   1.294   1.188   4.845 -1.7379  2.1044  0.0340
 7471TIP3    H243905   1.412   1.268   4.795 -0.3996 -0.5820 -1.3260
 7472TIP3   OH243906   5.235   2.154  11.547 -0.6467 -0.1365  0.3641
 7472TIP3    H143907   5.284   2.089  11.497  0.1453  0.1068  0.8156
 7472TIP3    H243908   5.286   2.234  11.538  0.1568 -0.3594  2.5350
 7473TIP3   OH243909   1.809   3.052   2.414  0.3023  0.6073 -0.1032
 7473TIP3    H143910   1.720   3.057   2.379  0.8936 -0.4121 -1.8384
 7473TIP3    H243911   1.863   3.102   2.353  0.7090  2.8639  1.9491
 7474TIP3   OH243912   4.529   4.445   4.267 -0.2467 -0.0777  0.1474
 7474TIP3    H143913   4.458   4.507   4.248  1.2996  1.6014 -0.4768
 7474TIP3    H243914   4.584   4.492   4.330 -1.1172 -2.4591  2.8572
 7475TIP3   OH243915   4.998   5.750   2.665  0.4213  0.7266  0.2210
 7475TIP3    H143916   4.971   5.838   2.637 -0.9615 -0.0277 -0.9444
 7475TIP3    H243917   5.048   5.716   2.591  0.1229  0.1785  0.2716
 7476TIP3   OH243918   4.569   2.127  15.795 -0.4013 -0.4642  0.4109
 7476TIP3    H143919   4.555   2.039  15.761 -1.1906 -0.0974 -0.2416
 7476TIP3    H243920   4.571   2.183  15.718 -0.3470  0.1485  0.8497
 7477TIP3   OH243921   0.573   2.873  13.798 -0.7064  0.4744 -0.1314
 7477TIP3    H143922   0.511   2.942  13.821 -1.3916 -0.4865  0.9994
 7477TIP3    H243923   0.535   2.832  13.720 -0.3586  1.2813 -0.7343
 7478TIP3   OH243924   3.458   1.942   5.660  0.4853 -0.7285 -0.3527
 7478TIP3    H143925   3.378   1.987   5.687  0.5533 -1.0320  0.3566
 7478TIP3    H243926   3.450   1.934   5.565 -0.8227 -1.7115 -0.1821
 7479TIP3   OH243927   3.446   3.705  14.581 -0.0058  0.2804 -0.0914
 7479TIP3    H143928   3.356   3.673  14.588 -0.2931  1.2632  0.8498
 7479TIP3    H243929   3.439   3.785  14.529  0.0999  1.1689  1.2156
 7480TIP3   OH243930   2.492   3.563  12.720 -0.3733 -0.0145  0.4885
 7480TIP3    H143931   2.525   3.478  12.690 -0.2434  0.9714 -2.4792
 7480TIP3    H243932   2.553   3.626  12.683 -1.9789  1.5203  0.3413
 7481TIP3   OH243933   0.859   5.392   4.445  0.2525  0.4177 -0.6005
 7481TIP3    H143934   0.787   5.454   4.438  0.7862  0.9372 -1.6031
 7481TIP3    H243935   0.848   5.332   4.371 -0.6420 -1.1367  0.7153
 7482TIP3   OH243936   1.231   2.981   6.776  0.4416 -0.0655 -0.1367
 7482TIP3    H143937   1.152   2.958   6.824 -0.1455  0.7029 -0.7088
 7482TIP3    H243938   1.202   2.993   6.686  0.9460  1.5594 -0.1146
 7483TIP3   OH243939   4.224   1.079  16.215 -1.3371 -0.2627  0.2500
 7483TIP3    H143940   4.156   1.140  16.244  0.9681  1.2413  2.9377
 7483TIP3    H243941   4.291   1.135  16.174 -0.5172 -1.3740  0.0158
 7484TIP3   OH243942   5.676   3.134   2.100  0.1657 -0.0416 -0.3375
 7484TIP3    H143943   5.719   3.066   2.049  0.9907  0.1397  0.1105
 7484TIP3    H243944   5.746   3.190   2.131 -0.4871  0.8904 -0.5046
 7485TIP3   OH243945   1.342   6.647  14.054  0.1028 -0.1076 -0.2422
 7485TIP3    H143946   1.251   6.625  14.035 -0.3928  0.6875  1.0546
 7485TIP3    H243947   1.347   6.647  14.150  1.5075 -0.2701 -0.2852
 7486TIP3   OH243948   1.718   0.260   0.391 -0.5382  0.2609  0.1361
 7486TIP3    H143949   1.720   0.349   0.355 -1.9096  0.9205  1.5653
 7486TIP3    H243950   1.799   0.253   0.442 -0.0337  0.3892 -0.6348
 7487TIP3   OH243951   1.010   1.418  17.099 -0.3290  0.3910 -0.3419
 7487TIP3    H143952   1.011   1.404  17.005  1.1485  0.3766 -0.3528
 7487TIP3    H243953   0.965   1.341  17.134 -0.0340 -0.0857 -0.9791
 7488TIP3   OH243954   4.431   5.218  16.594  0.2674  0.1698 -0.1122
 7488TIP3    H143955   4.440   5.136  16.546 -0.2213 -0.1265  0.2896
 7488TIP3    H243956   4.447   5.286  16.528 -0.3398 -0.2273 -0.6872
 7489TIP3   OH243957   4.438   3.276   3.145  0.7070  0.6513 -0.1197
 7489TIP3    H143958   4.392   3.216   3.202 -1.7419  0.7360 -1.8771
 7489TIP3    H243959   4.447   3.357   3.196  2.8404 -0.6551  1.7586
 7490TIP3   OH243960   4.444   6.080  16.255  0.2343 -0.4110  0.5064
 7490TIP3    H143961   4.455   5.988  16.229 -0.1410 -0.7413  1.4944
 7490TIP3    H243962   4.401   6.076  16.340 -0.1389  0.6996  0.3801
 7491TIP3   OH243963   3.410   2.832   3.944 -0.0431 -0.0817 -0.0710
 7491TIP3    H143964   3.341   2.891   3.973 -0.2056 -0.7012  0.8251
 7491TIP3    H243965   3.472   2.829   4.017  0.0871 -0.8224 -0.2017
 7492TIP3   OH243966   2.442   1.992   1.560 -0.2841 -0.8470  0.7571
 7492TIP3    H143967   2.429   1.980   1.654 -3.4081 -1.0669  0.3985
 7492TIP3    H243968   2.441   2.086   1.547 -0.9698 -0.8447  0.8239
 7493TIP3   OH243969   5.150   5.832  15.112 -0.1038 -0.2953 -0.0256
 7493TIP3    H143970   5.141   5.925  15.092 -0.7366 -0.3368  0.0389
 7493TIP3    H243971   5.101   5.787  15.044  0.1524 -0.5813 -0.0248
 7494TIP3   OH243972   0.324   4.962   0.665 -0.1791 -0.8492 -0.1701
 7494TIP3    H143973   0.292   4.895   0.726 -1.2941 -0.0543  0.1367
 7494TIP3    H243974   0.250   4.977   0.605 -0.7819  1.6285  1.0592
 7495TIP3   OH243975   5.865   0.457  14.851  0.4515 -0.2147 -0.1113
 7495TIP3    H143976   5.886   0.524  14.916  1.0111 -0.2493 -0.2582
 7495TIP3    H243977   5.811   0.393  14.899  0.4490  0.0133  0.1884
 7496TIP3   OH243978   0.808   6.220   3.328  0.0960 -0.2968 -0.5100
 7496TIP3    H143979   0.824   6.125   3.333 -0.2813 -0.3590 -0.4417
 7496TIP3    H243980   0.793   6.246   3.419  2.4191  0.2378 -0.2204
 7497TIP3   OH243981   0.783   2.829   5.870  0.1985 -0.5595 -1.0959
 7497TIP3    H143982   0.850   2.896   5.882 -1.1824  1.0076 -1.6950
 7497TIP3    H243983   0.830   2.752   5.838  2.0124 -0.3520  0.8828
 7498TIP3   OH243984   6.058   4.913   0.939  0.2217 -0.1919  0.1245
 7498TIP3    H143985   5.984   4.960   0.977  1.7514  1.6657  0.9232
 7498TIP3    H243986   6.063   4.943   0.849  1.0656  1.0853  0.5744
 7499TIP3   OH243987   6.852   4.298  10.681 -0.0895 -0.2448 -0.1043
 7499TIP3    H143988   6.788   4.328  10.617 -0.7709  0.1239  0.7186
 7499TIP3    H243989   6.859   4.204  10.665  0.2160 -0.0597 -1.1110
 7500TIP3   OH243990   1.841   0.277  11.603  0.6702 -0.0754  0.2858
 7500TIP3    H143991   1.763   0.230  11.632  1.2803 -1.1812  0.2009
 7500TIP3    H243992   1.817   0.369  11.607 -1.4369 -0.4274 -1.9543
 7501TIP3   OH243993   1.071   4.322   3.231  0.0804  0.4495 -0.4153
 7501TIP3    H143994   1.006   4.282   3.289 -0.7344  0.1731 -1.4843
 7501TIP3    H243995   1.035   4.408   3.210  1.1717  1.2391  0.7713
 7502TIP3   OH243996   2.345   5.521   1.614  0.0987  0.2695 -0.0895
 7502TIP3    H143997   2.420   5.549   1.563 -0.8340  2.4191 -0.3742
 7502TIP3    H243998   2.366   5.547   1.704 -1.0937  2.8336 -0.4655
 7503TIP3   OH243999   0.525   6.723   3.915  0.0261  0.7090  0.2440
 7503TIP3    H144000   0.522   6.777   3.994  0.7964  0.2292  0.6073
 7503TIP3    H244001   0.530   6.787   3.843 -0.3513  1.1380  0.5895
 7504TIP3   OH244002   5.393   1.252   4.113 -0.6802 -0.4964 -0.3621
 7504TIP3    H144003   5.340   1.176   4.139 -0.4192 -0.6573 -0.2932
 7504TIP3    H244004   5.474   1.214   4.080  0.4268 -0.2030  1.8221
 7505TIP3   OH244005   5.004   6.086   0.809 -1.0501 -0.4287  0.0187
 7505TIP3    H144006   4.931   6.132   0.768 -0.4008 -0.3301 -1.0768
 7505TIP3    H244007   5.053   6.050   0.735  0.9236  0.8917  0.6216
 7506TIP3   OH244008   1.398   0.295  15.626  0.2707  0.0879  0.1816
 7506TIP3    H144009   1.449   0.370  15.655 -1.7753  1.2437  1.0588
 7506TIP3    H244010   1.393   0.238  15.703 -0.2661  0.3023  0.3140
 7507TIP3   OH244011   2.291   3.291  16.672  0.1180 -0.2876  0.3233
 7507TIP3    H144012   2.257   3.304  16.760 -1.7765 -0.5794 -0.3225
 7507TIP3    H244013   2.214   3.294  16.616  1.2363 -0.4906 -1.2938
 7508TIP3   OH244014   3.878   2.271  16.717 -0.1653  0.1026  0.2336
 7508TIP3    H144015   3.971   2.247  16.716 -0.1272  0.2410  0.4112
 7508TIP3    H244016   3.876   2.355  16.763 -0.1231  1.1680 -1.6185
 7509TIP3   OH244017   4.175   6.315   4.492  0.3717  0.4551 -0.4027
 7509TIP3    H144018   4.161   6.273   4.407 -1.3601 -2.3062  1.0862
 7509TIP3    H244019   4.122   6.394   4.489  1.5820  1.2766 -2.3730
 7510TIP3   OH244020   2.767   6.019  14.864  0.0353  0.4217  0.1245
 7510TIP3    H144021   2.694   6.048  14.918  0.2815  1.1101  0.0963
 7510TIP3    H244022   2.757   5.924  14.858  0.6692  0.1643  2.3579
 7511TIP3   OH244023   3.301   4.447  16.860  0.1709  0.2489 -0.2823
 7511TIP3    H144024   3.208   4.460  16.877  0.6066  0.0892  2.5935
 7511TIP3    H244025   3.316   4.355  16.877  1.2696  0.7564  1.7298
 7512TIP3   OH244026   5.911   5.053   1.397 -0.1321 -0.2416  0.0751
 7512TIP3    H144027   5.979   5.011   1.344 -0.0725 -1.8326  1.3401
 7512TIP3    H244028   5.832   5.048   1.342  0.2086 -0.6931 -0.3862
 7513TIP3   OH244029   4.822   5.728  13.863  0.1831 -0.4276 -0.0416
 7513TIP3    H144030   4.897   5.674  13.838  1.3909 -0.0458  2.4210
 7513TIP3    H244031   4.819   5.722  13.958 -0.9879  2.0706  0.1690
 7514TIP3   OH244032   1.050   2.791  11.136  0.4438 -0.1605  0.0324
 7514TIP3    H144033   1.086   2.743  11.211 -1.2279 -2.6441 -0.6487
 7514TIP3    H244034   0.959   2.809  11.160  0.5652  1.2235 -0.4469
 7515TIP3   OH244035   2.550   6.114   4.707  0.4543 -0.0863 -0.3824
 7515TIP3    H144036   2.461   6.095   4.737  0.2798 -0.6293 -1.2163
 7515TIP3    H244037   2.566   6.204   4.736  0.0024 -0.3136  0.6162
 7516TIP3   OH244038   3.279   2.327  16.649  0.0540  0.2584  0.4824
 7516TIP3    H144039   3.255   2.235  16.637 -0.6726  0.3206  1.3594
 7516TIP3    H244040   3.222   2.374  16.588 -1.5498  0.3307  1.9465
 7517TIP3   OH244041   1.468   2.232  11.502 -0.1038 -0.3336 -0.3451
 7517TIP3    H144042   1.416   2.209  11.426 -1.3822  0.7445  0.1695
 7517TIP3    H244043   1.413   2.209  11.577  1.1919 -1.5221  0.2922
 7518TIP3   OH244044   3.168   2.631  14.642  0.4372 -0.5343  0.3351
 7518TIP3    H144045   3.135   2.721  14.641  2.7717  0.4423  2.0367
 7518TIP3    H244046   3.178   2.610  14.735  0.6029 -2.3247 -0.0369
 7519TIP3   OH244047   6.089   1.374   4.752  0.2188 -0.1390  0.6571
 7519TIP3    H144048   5.997   1.401   4.756  0.2146 -0.1979  1.0025
 7519TIP3    H244049   6.124   1.398   4.838 -0.6300 -4.2679  2.3921
 7520TIP3   OH244050   1.209   1.797   1.336  0.0689  0.2990 -0.2839
 7520TIP3    H144051   1.117   1.786   1.358  0.0129 -0.7317 -0.9747
 7520TIP3    H244052   1.212   1.795   1.241  0.7481  0.9015 -0.2874
 7521TIP3   OH244053   6.133   6.643  12.127 -0.2717 -0.3085  0.2460
 7521TIP3    H144054   6.221   6.612  12.150 -0.1628  0.0667  0.3429
 7521TIP3    H244055   6.134   6.649  12.032 -0.3424 -0.7398  0.2143
 7522TIP3   OH244056   3.885   0.619   1.593 -0.2041  0.0940  0.2805
 7522TIP3    H144057   3.857   0.660   1.675 -1.7713 -0.0986 -0.1179
 7522TIP3    H244058   3.868   0.526   1.605  0.0728 -0.0057 -0.0657
 7523TIP3   OH244059   1.349   1.485   5.018  0.2551 -0.3503  0.7866
 7523TIP3    H144060   1.400   1.462   4.940  0.1885 -0.0902  0.6682
 7523TIP3    H244061   1.321   1.401   5.053  2.9229 -0.7036  2.3021
 7524TIP3   OH244062   1.461   2.325   3.929 -0.2833 -0.2581 -0.3057
 7524TIP3    H144063   1.478   2.270   3.852 -0.0225 -0.0053 -0.4289
 7524TIP3    H244064   1.547   2.362   3.952  0.0049 -1.6772  1.1454
 7525TIP3   OH244065   4.604   0.764  15.634 -0.0216 -0.0380 -0.3852
 7525TIP3    H144066   4.622   0.835  15.695  2.4804 -0.0596 -0.9817
 7525TIP3    H244067   4.646   0.687  15.674 -1.2948 -0.8487 -0.5323
 7526TIP3   OH244068   2.342   5.754  15.257  0.4270  0.0848  0.0342
 7526TIP3    H144069   2.341   5.803  15.175 -0.7822  0.0464  0.0044
 7526TIP3    H244070   2.266   5.695  15.251  1.1109 -0.8855  0.6064
 7527TIP3   OH244071   2.060   3.622  13.528 -0.2881 -0.7013 -0.3902
 7527TIP3    H144072   1.972   3.619  13.491 -0.5563  0.9631  0.0107
 7527TIP3    H244073   2.115   3.577  13.463 -1.0631  0.3134 -1.8193
 7528TIP3   OH244074   1.868   2.249  16.391  0.0556 -0.5959  0.3946
 7528TIP3    H144075   1.829   2.316  16.447  0.3033  0.6269 -0.8105
 7528TIP3    H244076   1.924   2.198  16.449  2.4757  2.3030  0.9221
 7529TIP3   OH244077   5.925   5.517  13.917 -0.2248  0.4349  0.9204
 7529TIP3    H144078   5.977   5.555  13.847  0.3950 -0.2657  0.9890
 7529TIP3    H244079   5.956   5.561  13.996  0.8713 -0.5652  1.0682
 7530TIP3   OH244080   6.084   2.813  14.057  0.3326  0.1680 -0.3937
 7530TIP3    H144081   6.085   2.721  14.085  0.2273  0.5981  1.1189
 7530TIP3    H244082   6.036   2.813  13.975 -0.7404 -0.9791  0.2014
 7531TIP3   OH244083   1.823   4.301  14.440  0.7240  0.7809  0.4054
 7531TIP3    H144084   1.855   4.231  14.384 -0.4093  0.5148  0.0535
 7531TIP3    H244085   1.753   4.261  14.491  0.0298  1.6464  0.1685
 7532TIP3   OH244086   4.716   0.594  16.827  0.0176 -0.1832  0.1291
 7532TIP3    H144087   4.644   0.639  16.871 -0.7403 -1.8476  0.6401
 7532TIP3    H244088   4.747   0.529  16.890  3.4307  1.8409  0.7695
 7533TIP3   OH244089   6.728   3.469   5.249  0.2640  0.0042 -0.8759
 7533TIP3    H144090   6.736   3.440   5.340  0.2963  0.3734 -0.7550
 7533TIP3    H244091   6.640   3.508   5.244 -0.4952 -1.7135 -1.5094
 7534TIP3   OH244092   0.193   5.973   2.635  0.3546 -0.2933  0.4360
 7534TIP3    H144093   0.176   6.020   2.716 -1.1748 -0.1331  0.0707
 7534TIP3    H244094   0.266   6.019   2.594 -0.0939  0.8012  0.8394
 7535TIP3   OH244095   2.333   4.126   0.472 -0.0866  0.0400  0.0705
 7535TIP3    H144096   2.403   4.090   0.419 -0.1102 -1.6096  1.0822
 7535TIP3    H244097   2.253   4.106   0.423 -0.0431 -0.6749  0.2761
 7536TIP3   OH244098   5.525   0.164  11.258 -0.1152  0.0309 -0.4298
 7536TIP3    H144099   5.490   0.080  11.227  1.1393  0.2549 -2.6183
 7536TIP3    H244100   5.544   0.213  11.178 -1.4248  2.7115  0.7779
 7537TIP3   OH244101   5.257   5.784   5.214 -0.3156  0.4028  0.0284
 7537TIP3    H144102   5.166   5.759   5.198 -0.4431  0.4099  0.6816
 7537TIP3    H244103   5.256   5.880   5.211  0.0132  0.3713 -1.6640
 7538TIP3   OH244104   3.050   6.208   0.495  0.0128  0.0890  0.0054
 7538TIP3    H144105   3.073   6.116   0.504 -0.9994  0.0007  2.2665
 7538TIP3    H244106   3.100   6.252   0.564 -1.2577  0.8859  0.4507
 7539TIP3   OH244107   4.309   4.553  16.444  0.4217 -0.1974  0.2010
 7539TIP3    H144108   4.320   4.585  16.534 -2.4707 -1.6706  1.2150
 7539TIP3    H244109   4.249   4.479  16.453  0.9432 -1.1118 -2.8688
 7540TIP3   OH244110   0.427   5.232  15.457 -0.0265  0.7972  0.0018
 7540TIP3    H144111   0.514   5.258  15.426  0.4710 -1.6531 -0.9262
 7540TIP3    H244112   0.372   5.233  15.378  0.2764 -1.6848 -0.3399
 7541TIP3   OH244113   4.795   2.097   2.641  0.5017  0.2922 -0.2499
 7541TIP3    H144114   4.859   2.148   2.690  1.7571  0.0252 -1.5466
 7541TIP3    H244115   4.717   2.153   2.637  0.5926  0.5847  1.4119
 7542TIP3   OH244116   5.696   6.227   2.332  0.1077  0.0071 -0.0690
 7542TIP3    H144117   5.671   6.262   2.247  0.8709  0.7356 -0.0040
 7542TIP3    H244118   5.756   6.292   2.368  1.6636 -1.3999  0.0023
 7543TIP3   OH244119   1.986   4.495   2.614 -0.2780 -0.2920 -0.6924
 7543TIP3    H144120   2.026   4.579   2.593  0.6311 -0.3122  0.8209
 7543TIP3    H244121   2.039   4.431   2.567 -0.2949 -0.1109 -0.9631
 7544TIP3   OH244122   2.559   1.619   6.549  0.1228  0.6690 -0.3010
 7544TIP3    H144123   2.555   1.689   6.615  0.0776  0.5145 -0.1375
 7544TIP3    H244124   2.468   1.590   6.540  0.2818 -0.0616  0.3880
 7545TIP3   OH244125   4.837   6.000  16.547  0.9129  0.0561  0.5488
 7545TIP3    H144126   4.765   6.022  16.607  0.7303 -0.2946  0.4648
 7545TIP3    H244127   4.816   6.047  16.466 -1.3348 -3.0074 -0.8449
 7546TIP3   OH244128   4.824   1.104  13.844 -0.4001  0.6302  0.2205
 7546TIP3    H144129   4.907   1.106  13.796 -1.4345  1.6813 -1.6245
 7546TIP3    H244130   4.850   1.108  13.936  1.6398 -0.7653 -0.2161
 7547TIP3   OH244131   3.118   5.583  12.733 -0.1875  0.1661  0.6022
 7547TIP3    H144132   3.205   5.568  12.768 -0.1242  1.3927  1.0178
 7547TIP3    H244133   3.083   5.657  12.784 -0.7021  0.9740 -0.8384
 7548TIP3   OH244134   4.615   0.792   0.823 -0.3146  0.5843  0.0152
 7548TIP3    H144135   4.552   0.852   0.863 -2.9313 -1.0298 -1.4528
 7548TIP3    H244136   4.611   0.812   0.730  0.8161 -0.0855 -0.1910
 7549TIP3   OH244137   4.967   2.321   4.399  0.8960 -0.0054  0.4373
 7549TIP3    H144138   4.989   2.228   4.409  1.5654 -0.0101 -0.8443
 7549TIP3    H244139   5.044   2.367   4.433  0.0261  0.1367  2.3173
 7550TIP3   OH244140   3.732   0.367  14.210 -0.0364 -0.2378 -0.0445
 7550TIP3    H144141   3.645   0.347  14.247 -0.1740  0.2276 -0.1125
 7550TIP3    H244142   3.735   0.463  14.207  0.2005 -0.2599 -0.6984
 7551TIP3   OH244143   3.587   2.784  14.144  0.5962  0.2313 -0.2177
 7551TIP3    H144144   3.584   2.779  14.048  1.0676 -1.4924 -0.1791
 7551TIP3    H244145   3.671   2.743  14.167  0.4927  0.6326  0.9327
 7552TIP3   OH244146   3.518   5.907  14.185 -0.4333 -0.9296  0.3772
 7552TIP3    H144147   3.572   5.971  14.232 -1.5001 -0.4503  0.9994
 7552TIP3    H244148   3.581   5.844  14.149  0.6481  0.3905 -0.1506
 7553TIP3   OH244149   4.597   5.140   1.566  0.6744 -0.2150 -0.2016
 7553TIP3    H144150   4.541   5.206   1.524  1.1233 -0.1217 -0.6558
 7553TIP3    H244151   4.649   5.189   1.629  0.2440 -0.3035  0.2294
 7554TIP3   OH244152   5.640   5.847   2.241  0.4013  0.6167 -0.2768
 7554TIP3    H144153   5.663   5.889   2.324 -0.7844  3.2360 -1.1574
 7554TIP3    H244154   5.633   5.919   2.179 -1.4689 -0.9377 -2.0209
 7555TIP3   OH244155   4.832   4.875  11.991 -0.1346 -0.3661 -0.5666
 7555TIP3    H144156   4.897   4.939  12.019 -1.0886  1.2095 -1.7864
 7555TIP3    H244157   4.748   4.917  12.007 -0.8700 -2.0608  0.2744
 7556TIP3   OH244158   1.787   1.044  15.408  0.4937 -0.6082 -0.3302
 7556TIP3    H144159   1.778   1.066  15.315 -1.2843  0.4136  0.0344
 7556TIP3    H244160   1.735   0.965  15.420  0.0760 -0.3023 -0.0765
 7557TIP3   OH244161   3.184   0.008  14.458 -0.0273  0.1275  0.1391
 7557TIP3    H144162   3.189   0.088  14.510 -0.6868  0.6692 -0.6138
 7557TIP3    H244163   3.151   0.036  14.372 -1.4537 -1.1135  0.2349
 7558TIP3   OH244164   5.060   3.496  12.268 -0.1661  0.2756 -0.1157
 7558TIP3    H144165   5.136   3.441  12.285  0.3784  1.3036  0.8483
 7558TIP3    H244166   4.987   3.451  12.312 -0.2925 -1.0348 -1.5569
 7559TIP3   OH244167   1.656   3.198   0.242  0.1900 -0.2529 -0.0426
 7559TIP3    H144168   1.697   3.265   0.296 -0.0846  0.2495 -0.4537
 7559TIP3    H244169   1.724   3.131   0.232  1.3186  1.0464 -1.5701
 7560TIP3   OH244170   4.939   1.136  14.133 -0.4129 -0.3987  0.5968
 7560TIP3    H144171   4.965   1.122  14.224  1.3630 -0.1150  0.1721
 7560TIP3    H244172   4.968   1.225  14.113 -2.5136  0.2751  0.2840
 7561TIP3   OH244173   0.938   1.099   1.609  0.1907  0.0293  0.7470
 7561TIP3    H144174   0.953   1.120   1.701  1.9286  2.0864  0.0898
 7561TIP3    H244175   0.862   1.151   1.584  0.2947  0.2003  0.7869
 7562TIP3   OH244176   1.469   2.905  12.917 -0.1476 -0.3850  0.0344
 7562TIP3    H144177   1.470   2.855  12.836  2.5878  2.4158 -1.9240
 7562TIP3    H244178   1.552   2.883  12.960 -0.4764 -0.0517  0.8690
 7563TIP3   OH244179   2.765   1.379  12.478  0.1352  0.1416  0.0573
 7563TIP3    H144180   2.722   1.296  12.459  2.2196 -1.0326  0.1034
 7563TIP3    H244181   2.732   1.404  12.564 -1.3954  0.0008 -0.4584
 7564TIP3   OH244182   5.774   5.591  13.062  0.3860 -0.0108 -0.3770
 7564TIP3    H144183   5.793   5.538  13.139 -0.2620 -1.4363 -1.1623
 7564TIP3    H244184   5.680   5.585  13.050  0.5315 -0.2573 -1.5736
 7565TIP3   OH244185   0.383   5.871   4.705  0.0518 -0.6503 -0.2630
 7565TIP3    H144186   0.290   5.873   4.725 -0.1934 -0.1557 -1.3557
 7565TIP3    H244187   0.417   5.798   4.756 -0.7825 -0.3565  0.7452
 7566TIP3   OH244188   4.300   2.938  15.695 -0.4071 -0.5686 -0.0202
 7566TIP3    H144189   4.251   2.965  15.772 -0.8995  0.0990 -0.5535
 7566TIP3    H244190   4.369   2.881  15.729 -0.0461  0.4500  1.0100
 7567TIP3   OH244191   6.342   6.384  13.957 -0.4725 -0.0232  0.6022
 7567TIP3    H144192   6.289   6.316  13.915 -0.5610  0.0535  0.5897
 7567TIP3    H244193   6.282   6.426  14.019 -1.3791  2.1810 -1.6040
 7568TIP3   OH244194   2.483   4.780  16.287 -0.8113 -0.9535  0.9543
 7568TIP3    H144195   2.455   4.822  16.206  0.0701 -0.6413  0.8029
 7568TIP3    H244196   2.536   4.706  16.258  1.4456  0.4856  1.2210
 7569TIP3   OH244197   5.202   0.863   4.938 -0.1738  0.1121  0.2069
 7569TIP3    H144198   5.117   0.907   4.944  0.2067  0.8354  0.4502
 7569TIP3    H244199   5.235   0.887   4.851 -0.3914 -0.5114 -0.0569
 7570TIP3   OH244200   4.769   2.085   0.412  0.3611 -0.0767 -0.1238
 7570TIP3    H144201   4.686   2.115   0.449 -0.3095 -1.1498 -0.6990
 7570TIP3    H244202   4.813   2.165   0.382  1.2458  0.9798  3.4542
 7571TIP3   OH244203   5.665   2.240   4.479 -0.2495 -0.5996 -0.1274
 7571TIP3    H144204   5.660   2.306   4.548 -0.5002 -1.9983  1.2482
 7571TIP3    H244205   5.574   2.227   4.451 -0.1926 -0.3301 -0.4490
 7572TIP3   OH244206   2.835   6.380   0.551  0.2665  0.8914 -0.4162
 7572TIP3    H144207   2.908   6.318   0.546 -1.4228 -1.1446 -1.7009
 7572TIP3    H244208   2.865   6.448   0.612  2.1148 -1.3713  1.4041
 7573TIP3   OH244209   2.243   4.896   1.127 -0.1390  0.0148 -0.4201
 7573TIP3    H144210   2.159   4.906   1.083  0.0604  0.3951 -0.7147
 7573TIP3    H244211   2.244   4.965   1.194  0.9317  1.5950 -1.9822
 7574TIP3   OH244212   1.936   2.780   4.566  0.0850  0.1557  0.4659
 7574TIP3    H144213   1.989   2.835   4.508 -1.4185  1.4352  0.2187
 7574TIP3    H244214   1.971   2.797   4.654 -0.3768  1.6264  0.4047
 7575TIP3   OH244215   0.007   4.436  10.280  0.0165  0.0860  0.2113
 7575TIP3    H144216  -0.016   4.363  10.338  0.1826 -1.1333 -1.2027
 7575TIP3    H244217   0.101   4.425  10.263 -0.0085  0.4859 -0.2146
 7576TIP3   OH244218   6.271   4.076   1.789  0.1945  0.0920  0.5395
 7576TIP3    H144219   6.212   4.009   1.821  0.2111 -0.3358 -0.2818
 7576TIP3    H244220   6.217   4.155   1.781 -1.1407 -0.9979 -3.0408
 7577TIP3   OH244221   0.062   3.186  14.389 -0.0212  0.9273 -0.0115
 7577TIP3    H144222   0.067   3.122  14.459  0.5727  0.7525 -0.2025
 7577TIP3    H244223   0.154   3.204  14.367 -0.1926  0.1804 -1.4640
 7578TIP3   OH244224   1.798   5.392  13.524 -0.6449  0.0686 -0.4801
 7578TIP3    H144225   1.736   5.327  13.492 -2.0135  0.9056  0.3509
 7578TIP3    H244226   1.754   5.476  13.511  0.5659  0.7454 -0.3961
 7579TIP3   OH244227   1.689   0.935  16.215 -0.1393 -0.7399 -0.1350
 7579TIP3    H144228   1.621   0.908  16.154 -0.4462 -1.8544  0.6648
 7579TIP3    H244229   1.663   0.895  16.298  1.2456 -0.8030  0.2883
 7580TIP3   OH244230   4.952   2.859   2.018  0.3605 -0.1228  0.9379
 7580TIP3    H144231   4.958   2.908   1.936  0.0179 -0.8213  0.4801
 7580TIP3    H244232   5.027   2.799   2.015  0.3692 -0.1218  1.1536
 7581TIP3   OH244233   0.633   2.589  14.294  0.5550 -0.2064 -0.5704
 7581TIP3    H144234   0.609   2.600  14.386  1.7803  0.9096 -0.3419
 7581TIP3    H244235   0.640   2.679  14.260  2.2838 -0.5020 -1.1290
 7582TIP3   OH244236   5.629   4.617  16.496 -0.6397 -0.7097  0.0118
 7582TIP3    H144237   5.546   4.618  16.448  0.0909 -0.6333 -1.2815
 7582TIP3    H244238   5.625   4.536  16.548 -1.0285 -1.3114 -0.9386
 7583TIP3   OH244239   3.813   4.735   4.547 -0.3020 -0.2245 -0.0524
 7583TIP3    H144240   3.872   4.720   4.622 -1.6956  1.5832  1.4975
 7583TIP3    H244241   3.864   4.789   4.487  0.4716 -0.8273  0.0347
 7584TIP3   OH244242   0.536   2.027   3.005  0.0990  0.5545 -0.1023
 7584TIP3    H144243   0.477   2.044   3.079  0.8689 -1.0263  0.9277
 7584TIP3    H244244   0.604   2.094   3.012 -0.0271  0.6301  0.3955
 7585TIP3   OH244245   1.948   5.757  13.704  0.5853 -0.2312  0.0742
 7585TIP3    H144246   1.871   5.734  13.652  0.3918  0.5237  0.0187
 7585TIP3    H244247   2.013   5.691  13.680  0.0708 -0.6755 -0.1300
 7586TIP3   OH244248   1.993   6.266   5.049 -0.1497 -0.6403 -0.1054
 7586TIP3    H144249   2.007   6.361   5.056  0.6170 -0.4369 -2.9257
 7586TIP3    H244250   1.915   6.249   5.101 -1.2043  1.8330 -0.7435
 7587TIP3   OH244251   0.531   4.579  11.544 -0.2121 -0.0239  0.2373
 7587TIP3    H144252   0.579   4.536  11.616  4.2825  1.6123 -1.4372
 7587TIP3    H244253   0.519   4.669  11.574  1.3816  0.5783 -0.8170
 7588TIP3   OH244254   3.130   1.264   4.107 -1.3040 -0.4531 -0.0477
 7588TIP3    H144255   3.199   1.307   4.157  0.1002 -2.1127 -0.4792
 7588TIP3    H244256   3.088   1.336   4.058  0.7157  0.5150 -0.4890
 7589TIP3   OH244257   5.715   4.477  12.474  0.0592 -0.0287 -0.2582
 7589TIP3    H144258   5.657   4.551  12.460 -0.6634  0.1742  3.0119
 7589TIP3    H244259   5.791   4.514  12.519 -0.2733 -1.1755  1.3438
 7590TIP3   OH244260   5.145   1.373  10.746  0.8100 -1.1825 -0.0847
 7590TIP3    H144261   5.182   1.299  10.699 -1.9370 -1.0214 -2.8227
 7590TIP3    H244262   5.060   1.342  10.779  2.0123 -0.8757  3.9131
 7591TIP3   OH244263   4.914   5.094   5.132  0.0287  0.1229 -1.1874
 7591TIP3    H144264   4.833   5.139   5.154  0.6375 -0.0497  1.8012
 7591TIP3    H244265   4.903   5.005   5.166  1.1798 -0.1377 -1.4355
 7592TIP3   OH244266   3.651   1.576  12.984  0.3719  0.2034  0.3774
 7592TIP3    H144267   3.667   1.497  12.933  0.2948  1.0531 -1.0166
 7592TIP3    H244268   3.724   1.634  12.964  0.1243  0.7243  0.9137
 7593TIP3   OH244269   3.895   3.431   3.613 -0.6121 -0.0857  0.1216
 7593TIP3    H144270   3.849   3.514   3.617 -1.7901 -0.6543 -0.9054
 7593TIP3    H244271   3.828   3.365   3.628  0.2576 -0.8631  0.6647
 7594TIP3   OH244272   2.048   0.887  13.897  0.4956 -0.2913 -0.3559
 7594TIP3    H144273   2.026   0.895  13.804 -0.8088  0.0318 -0.0410
 7594TIP3    H244274   2.138   0.853  13.897  0.8023  0.4192 -1.7303
 7595TIP3   OH244275   0.271   1.402   1.048 -0.0045  0.3172  0.0364
 7595TIP3    H144276   0.342   1.340   1.032 -0.1822  0.2662 -0.6283
 7595TIP3    H244277   0.245   1.387   1.138 -0.2164 -0.7707 -0.1868
 7596TIP3   OH244278   1.407   2.984  14.095 -0.9250  0.7756  0.4201
 7596TIP3    H144279   1.318   3.019  14.098 -0.3249  2.3106  0.8923
 7596TIP3    H244280   1.461   3.057  14.066  0.2664  0.0146  0.6628
 7597TIP3   OH244281   5.743   3.024   6.040 -0.0413 -0.0949  0.2076
 7597TIP3    H144282   5.795   3.042   5.962 -1.0773  0.5979 -0.3435
 7597TIP3    H244283   5.704   3.108   6.063  0.7314 -0.1422  1.8572
 7598TIP3   OH244284   0.179   2.037  12.981 -0.3317 -0.3264  0.0848
 7598TIP3    H144285   0.106   1.984  13.012  0.8969 -3.0219 -1.2470
 7598TIP3    H244286   0.227   2.062  13.060  0.3746 -3.3690  0.7584
 7599TIP3   OH244287   3.783   6.166  10.735 -0.0950  0.8525  0.3214
 7599TIP3    H144288   3.847   6.114  10.688 -1.9685  0.8404 -2.4586
 7599TIP3    H244289   3.835   6.228  10.786  2.1184  0.3335 -1.1610
 7600TIP3   OH244290   1.109   6.530  16.367 -0.2172  0.5927  0.1930
 7600TIP3    H144291   1.036   6.474  16.393 -0.6275  1.2797  0.5497
 7600TIP3    H244292   1.154   6.550  16.450  0.2788  0.3081 -0.0037
 7601TIP3   OH244293   0.085   1.623  11.416 -0.0131  0.4152  0.2396
 7601TIP3    H144294   0.106   1.716  11.407 -2.1221  0.7016 -3.5837
 7601TIP3    H244295   0.004   1.622  11.468  0.0578  0.7033  0.3571
 7602TIP3   OH244296   6.339   3.428   5.061 -0.1124 -0.4206 -0.1311
 7602TIP3    H144297   6.395   3.502   5.085  1.1833 -1.5801  0.5922
 7602TIP3    H244298   6.327   3.436   4.967 -1.1084  1.4286  0.1049
 7603TIP3   OH244299   1.692   4.381   1.408 -0.0235 -0.0290 -0.2554
 7603TIP3    H144300   1.633   4.426   1.347  0.3485  0.2228 -0.4349
 7603TIP3    H244301   1.660   4.292   1.411 -1.0678  0.3624  0.4755
 7604TIP3   OH244302   1.402   0.250  16.316  0.1100  0.1067  0.4360
 7604TIP3    H144303   1.311   0.223  16.308 -0.1863  1.3738 -1.0766
 7604TIP3    H244304   1.408   0.291  16.402 -1.1892  1.4403 -0.0588
 7605TIP3   OH244305   0.392   3.316   5.156  0.2333 -0.1835  0.4341
 7605TIP3    H144306   0.334   3.345   5.085  0.3864  0.8605  0.7193
 7605TIP3    H244307   0.442   3.394   5.179  1.6468 -1.0247  0.3094
 7606TIP3   OH244308   6.603   1.564  12.157  0.2172  0.4035  0.2835
 7606TIP3    H144309   6.662   1.499  12.118 -1.1645 -0.0797 -1.1016
 7606TIP3    H244310   6.661   1.626  12.200  1.9022  0.8388 -2.3474
 7607TIP3   OH244311   1.978   1.120   2.410  0.3245 -0.6034  0.4051
 7607TIP3    H144312   1.925   1.072   2.474 -1.0089 -0.2246 -0.3818
 7607TIP3    H244313   2.056   1.146   2.459 -1.3396  1.0661  2.3850
 7608TIP3   OH244314   0.310   0.808  11.739  0.6749  0.1912  0.0625
 7608TIP3    H144315   0.334   0.900  11.741 -2.1827  1.0508 -0.1113
 7608TIP3    H244316   0.287   0.791  11.647 -1.8148  0.2830  0.5875
 7609TIP3   OH244317   6.411   6.669  11.115 -0.0508  0.3295  0.0235
 7609TIP3    H144318   6.449   6.650  11.201  1.5202 -1.5242 -0.9933
 7609TIP3    H244319   6.462   6.743  11.081  2.3359 -1.6455 -1.0029
 7610TIP3   OH244320   2.033   3.551  12.972  0.0465  0.9168  0.0425
 7610TIP3    H144321   2.009   3.641  12.994  0.7771  0.9725  0.6566
 7610TIP3    H244322   2.123   3.557  12.941  0.0513  0.4148 -0.0417
 7611TIP3   OH244323   0.178   4.386  11.947 -0.1513 -0.4179  0.2990
 7611TIP3    H144324   0.208   4.329  11.876  0.8345 -0.3810  0.6580
 7611TIP3    H244325   0.083   4.384  11.941 -0.1011  0.2310 -1.5324
 7612TIP3   OH244326   6.287   0.784   2.105 -0.5137  0.7797 -0.7870
 7612TIP3    H144327   6.238   0.857   2.066 -0.1708  0.7419 -1.3034
 7612TIP3    H244328   6.310   0.729   2.030 -1.9815 -0.6230 -0.2789
 7613TIP3   OH244329   1.770   3.651   5.591 -0.4723  0.4793  0.5906
 7613TIP3    H144330   1.813   3.709   5.529  0.2218 -0.4260  0.1944
 7613TIP3    H244331   1.687   3.628   5.550 -0.8438  1.3301  0.8417
 7614TIP3   OH244332   0.701   5.509  13.905 -0.0373 -0.1197 -0.5366
 7614TIP3    H144333   0.759   5.526  13.831 -0.1198 -0.3849 -0.6654
 7614TIP3    H244334   0.733   5.426  13.941 -0.3870 -0.3081 -0.6585
 7615TIP3   OH244335   5.500   1.650   1.159  0.9107  0.5279 -0.2097
 7615TIP3    H144336   5.493   1.740   1.190  1.1976  0.5679 -0.2662
 7615TIP3    H244337   5.585   1.645   1.116  1.6351 -0.2194  1.2553
 7616TIP3   OH244338   3.065   6.246   3.408  0.0743  0.1681  0.4643
 7616TIP3    H144339   3.121   6.204   3.343 -0.2737 -0.9766  0.8829
 7616TIP3    H244340   3.089   6.339   3.404 -0.5033  0.2896 -1.8839
 7617TIP3   OH244341   4.896   6.313   6.789 -0.3103  0.0424  0.4037
 7617TIP3    H144342   4.968   6.366   6.753  1.3013 -1.4627  1.2701
 7617TIP3    H244343   4.820   6.372   6.787  0.7408  1.4529 -1.2453
 7618TIP3   OH244344   2.399   4.116   4.502  0.0109 -0.4942  0.0685
 7618TIP3    H144345   2.343   4.171   4.557 -1.0939 -0.9346 -0.5709
 7618TIP3    H244346   2.381   4.026   4.531  0.1704 -0.6626 -0.3376
 7619TIP3   OH244347   1.541   5.512   2.952 -0.3621 -0.0925  0.3142
 7619TIP3    H144348   1.512   5.437   3.004 -0.2051 -0.1253  0.3554
 7619TIP3    H244349   1.484   5.513   2.876 -0.2869 -0.3227  0.2559
 7620TIP3   OH244350   0.152   1.641   0.975  0.0531 -0.2571  0.5662
 7620TIP3    H144351   0.199   1.574   1.025 -2.1474 -1.3190  1.3485
 7620TIP3    H244352   0.123   1.596   0.896  0.2560  0.3602  0.1308
 7621TIP3   OH244353   2.104   5.416   1.678 -0.4619 -0.0585  0.0694
 7621TIP3    H144354   2.109   5.474   1.754  0.8101 -0.9655  0.7104
 7621TIP3    H244355   2.181   5.438   1.626 -0.0410 -1.0539  0.2501
 7622TIP3   OH244356   2.366   0.334  11.710 -0.1685  0.3972  0.1143
 7622TIP3    H144357   2.404   0.377  11.787 -0.8669 -0.0643  0.7175
 7622TIP3    H244358   2.433   0.271  11.682 -0.1394  0.1786  0.6725
 7623TIP3   OH244359   0.734   4.535   5.645  0.2989  0.3280 -0.2379
 7623TIP3    H144360   0.786   4.512   5.568 -0.1279  0.5217 -0.5896
 7623TIP3    H244361   0.662   4.472   5.646  0.0030  0.6588 -0.3084
 7624TIP3   OH244362   5.154   1.684  12.391 -0.2968 -0.8742  0.2905
 7624TIP3    H144363   5.072   1.719  12.428  0.2524  1.9345 -0.8538
 7624TIP3    H244364   5.206   1.660  12.467 -0.7599  0.8977  1.2371
 7625TIP3   OH244365   4.412   1.574  11.925 -0.6885 -0.2916  0.3450
 7625TIP3    H144366   4.317   1.565  11.920 -1.1453  2.7674  1.4621
 7625TIP3    H244367   4.430   1.579  12.019  0.6159 -0.8259  0.1467
 7626TIP3   OH244368   4.315   4.313   0.910 -0.2098 -0.0847 -0.0014
 7626TIP3    H144369   4.279   4.232   0.945 -1.5750 -0.1646 -1.4770
 7626TIP3    H244370   4.253   4.340   0.843  0.7538  1.6427 -0.2618
 7627TIP3   OH244371   4.654   5.865   3.446  0.5236  0.2869  0.2194
 7627TIP3    H144372   4.741   5.843   3.481  0.1947  0.6978  1.3642
 7627TIP3    H244373   4.672   5.909   3.363  1.5469  1.9351  1.2491
 7628TIP3   OH244374   3.913   2.839   2.637  0.1020  0.2832  0.3908
 7628TIP3    H144375   3.836   2.787   2.658  0.7143 -1.5392 -1.5239
 7628TIP3    H244376   3.889   2.929   2.661 -2.7486 -0.1551 -0.4747
 7629TIP3   OH244377   1.244   1.411   0.746  0.5347 -0.6728  0.0012
 7629TIP3    H144378   1.270   1.336   0.800  2.3573  0.0010  0.1231
 7629TIP3    H244379   1.294   1.401   0.665  0.8357  0.4273  0.0404
 7630TIP3   OH244380   3.159   0.644  14.758 -0.2902 -0.3055  0.3388
 7630TIP3    H144381   3.217   0.610  14.690  0.2143  1.5926 -0.2417
 7630TIP3    H244382   3.217   0.657  14.834 -0.4754 -0.7208  0.5517
 7631TIP3   OH244383   0.602   4.296   5.094  0.6534  0.1645 -0.2926
 7631TIP3    H144384   0.681   4.254   5.129  0.3250  0.6262  1.0515
 7631TIP3    H244385   0.615   4.389   5.111  0.3778  0.3895 -1.2429
 7632TIP3   OH244386   3.391   5.735   0.637  0.2075 -0.0126 -0.1160
 7632TIP3    H144387   3.359   5.768   0.721  0.3626 -1.7982  0.6948
 7632TIP3    H244388   3.486   5.734   0.647  0.2783  0.7368 -0.7028
 7633TIP3   OH244389   6.311   1.229   2.736 -0.4060 -0.9055 -0.3796
 7633TIP3    H144390   6.355   1.286   2.674 -0.9554 -0.2703 -0.2011
 7633TIP3    H244391   6.293   1.149   2.687  2.1706 -1.7526 -0.0645
 7634TIP3   OH244392   5.617   0.492  11.187 -0.1386  0.2064  0.3281
 7634TIP3    H144393   5.596   0.450  11.105 -0.2228 -1.4358  1.1601
 7634TIP3    H244394   5.567   0.574  11.185  0.4363  0.5526 -1.5416
 7635TIP3   OH244395   3.172   1.897   1.039 -0.0173  0.3914 -0.2219
 7635TIP3    H144396   3.127   1.859   1.114  2.4785  0.4889  1.4536
 7635TIP3    H244397   3.212   1.977   1.073  2.1893 -0.1860 -1.2666
 7636TIP3   OH244398   3.180   1.448   5.265  0.0101 -0.0904 -0.0899
 7636TIP3    H144399   3.231   1.519   5.224 -0.4284  0.4984  0.3698
 7636TIP3    H244400   3.090   1.478   5.260 -0.3696 -1.3585 -1.3540
 7637TIP3   OH244401   1.230   2.947  12.032 -0.0554  0.2509  0.0367
 7637TIP3    H144402   1.198   3.035  12.015 -0.8342 -0.2024 -0.9224
 7637TIP3    H244403   1.221   2.936  12.127 -0.8262  0.8641  0.0365
 7638TIP3   OH244404   4.390   5.382   1.219 -0.3045 -0.0580 -0.3789
 7638TIP3    H144405   4.391   5.292   1.186  0.4540 -0.0155 -0.4828
 7638TIP3    H244406   4.482   5.403   1.234 -0.5135  0.5523  0.0575
 7639TIP3   OH244407   2.319   1.076   2.529 -0.5579 -0.2763 -0.0803
 7639TIP3    H144408   2.282   1.143   2.587 -2.0243 -2.1855  1.3031
 7639TIP3    H244409   2.389   1.037   2.580  1.1981  1.0122 -1.3967
 7640TIP3   OH244410   5.593   5.404  15.557  0.1851  0.7370 -0.1053
 7640TIP3    H144411   5.647   5.438  15.486 -0.4599  1.5849 -0.2024
 7640TIP3    H244412   5.654   5.358  15.613  0.9047  1.1079 -0.5684
 7641TIP3   OH244413   0.594   4.411   2.038 -0.3774  0.0999  0.5082
 7641TIP3    H144414   0.524   4.365   2.084 -0.9810 -0.1970 -0.6865
 7641TIP3    H244415   0.674   4.365   2.064 -0.6899 -0.0347  1.2735
 7642TIP3   OH244416   1.045   5.742  14.724 -0.2377 -0.3566  0.2159
 7642TIP3    H144417   1.097   5.800  14.780 -0.1263  0.5271 -0.7604
 7642TIP3    H244418   1.068   5.770  14.635 -1.9267 -0.3746 -0.2429
 7643TIP3   OH244419   4.955   6.255  15.457  0.2346 -0.0327 -0.2480
 7643TIP3    H144420   4.963   6.219  15.545  0.9401  1.8352  0.4876
 7643TIP3    H244421   4.940   6.179  15.401 -1.2497 -1.1684  1.5999
 7644TIP3   OH244422   1.821   5.462   2.968 -0.4873 -0.5448 -0.6083
 7644TIP3    H144423   1.736   5.505   2.965 -0.3259 -0.2266 -0.7055
 7644TIP3    H244424   1.861   5.494   3.050  0.6851  1.5461 -1.9038
 7645TIP3   OH244425   6.172   1.197  16.521  0.2134  0.5434 -0.6720
 7645TIP3    H144426   6.237   1.130  16.500  0.7885  0.0707  2.1948
 7645TIP3    H244427   6.178   1.260  16.450  0.5315 -1.7714 -2.8342
 7646TIP3   OH244428   2.050   2.198  12.170 -0.1727  0.7226  0.0553
 7646TIP3    H144429   2.043   2.157  12.083  2.3382 -0.3864  0.2787
 7646TIP3    H244430   1.965   2.239  12.184 -0.8845  0.3889 -2.6464
 7647TIP3   OH244431   2.205   4.213  15.602 -0.8541  0.4002  0.2036
 7647TIP3    H144432   2.211   4.249  15.513 -0.7010 -0.3052 -0.0760
 7647TIP3    H244433   2.295   4.193  15.626 -0.9808 -0.2224  0.1754
 7648TIP3   OH244434   0.544   2.208  15.622  0.2784 -0.4515 -0.1668
 7648TIP3    H144435   0.450   2.196  15.633  0.1703 -0.1870 -0.7402
 7648TIP3    H244436   0.571   2.137  15.564  0.6159 -1.1151  0.7839
 7649TIP3   OH244437   6.381   5.568   3.841  0.1724 -0.4943 -0.5224
 7649TIP3    H144438   6.474   5.570   3.821  0.4192  0.9017  0.5847
 7649TIP3    H244439   6.377   5.549   3.935 -0.6016  0.3426 -0.3717
 7650TIP3   OH244440   3.601   1.168  12.199  0.1220 -0.4484 -0.4096
 7650TIP3    H144441   3.521   1.174  12.250  0.9298  1.1292  0.7708
 7650TIP3    H244442   3.596   1.083  12.155 -0.5652 -1.9477  2.3642
 7651TIP3   OH244443   5.762   3.675   3.776 -0.1315 -0.2160 -0.8261
 7651TIP3    H144444   5.690   3.620   3.748 -0.8799  0.3874 -0.1313
 7651TIP3    H244445   5.741   3.762   3.742 -0.9883  0.5061  1.3750
 7652TIP3   OH244446   2.540   3.288   5.031 -0.0283 -0.2508 -0.1119
 7652TIP3    H144447   2.510   3.377   5.049  0.1064 -0.1915 -0.1764
 7652TIP3    H244448   2.460   3.237   5.021 -0.1220 -0.4237  1.2963
 7653TIP3   OH244449   3.066   5.380   4.578 -0.3710 -0.1816  0.6657
 7653TIP3    H144450   3.001   5.399   4.509 -0.3499 -0.2668  0.6227
 7653TIP3    H244451   3.146   5.359   4.530  0.0551  1.2007  0.7236
 7654TIP3   OH244452   2.746   1.393   2.761 -0.2706  0.3898  0.1336
 7654TIP3    H144453   2.669   1.368   2.811 -0.1902 -2.0378 -0.8197
 7654TIP3    H244454   2.796   1.450   2.820 -1.9421  0.6491  1.3760
 7655TIP3   OH244455   3.133   0.517  13.684 -0.0484  0.4229  0.0396
 7655TIP3    H144456   3.038   0.509  13.691  0.0278 -0.0822  0.5580
 7655TIP3    H244457   3.150   0.610  13.696 -0.3487  0.2932  1.7493
 7656TIP3   OH244458   2.941   2.906   5.589 -0.5440 -0.4155 -0.6947
 7656TIP3    H144459   2.877   2.909   5.661  1.0827  0.5908  0.7994
 7656TIP3    H244460   2.931   2.991   5.545  0.4514  0.2123  0.2311
 7657TIP3   OH244461   1.922   1.762   5.112 -0.2468 -0.3387 -0.3411
 7657TIP3    H144462   1.833   1.762   5.078 -0.4730 -0.6933  0.2306
 7657TIP3    H244463   1.933   1.847   5.154 -0.4124 -0.4058 -0.1642
 7658TIP3   OH244464   4.350   4.694  12.037 -0.3879  0.1997 -0.3703
 7658TIP3    H144465   4.416   4.708  11.970 -0.5997  0.8657 -0.4488
 7658TIP3    H244466   4.296   4.622  12.003 -0.5425  0.5901 -0.9494
 7659TIP3   OH244467   2.499   4.495   4.792 -0.6257  0.0066 -0.2480
 7659TIP3    H144468   2.557   4.565   4.761 -1.5734  0.7716 -0.3621
 7659TIP3    H244469   2.475   4.522   4.881  0.8796 -1.4106  0.6435
 7660TIP3   OH244470   6.838   2.900  15.920 -0.5691 -0.5684 -0.3343
 7660TIP3    H144471   6.815   2.982  15.876  1.1852 -0.3286 -0.8783
 7660TIP3    H244472   6.818   2.916  16.012 -1.2575  0.0809 -0.5818
 7661TIP3   OH244473   5.177   3.821  11.742  0.2922  0.2364  0.4328
 7661TIP3    H144474   5.206   3.730  11.743  1.3295  0.5491 -0.3883
 7661TIP3    H244475   5.086   3.816  11.711 -0.2550 -0.6529  2.0720
 7662TIP3   OH244476   1.340   3.742  13.195 -0.2421 -0.1757 -0.2363
 7662TIP3    H144477   1.357   3.653  13.225  0.9481 -0.9202 -2.8200
 7662TIP3    H244478   1.418   3.792  13.221 -1.0515  0.2619  1.5037
 7663TIP3   OH244479   1.757   0.025  11.021 -0.4922 -0.5188  0.3654
 7663TIP3    H144480   1.768  -0.034  10.947 -0.1083  0.5214 -0.4309
 7663TIP3    H244481   1.817  -0.008  11.088  1.1412  0.0526 -0.7668
 7664TIP3   OH244482   6.585   0.550   0.567 -0.8331 -0.3674 -0.0878
 7664TIP3    H144483   6.673   0.585   0.577  0.3416 -2.4969 -1.9165
 7664TIP3    H244484   6.540   0.612   0.510 -0.4690  0.6162  0.6701
 7665TIP3   OH244485   1.560   2.701   0.295 -0.5234  0.3337  0.2529
 7665TIP3    H144486   1.512   2.644   0.355 -0.5015  0.0263 -0.0180
 7665TIP3    H244487   1.493   2.731   0.233 -0.0701 -1.5780 -1.2654
 7666TIP3   OH244488   1.058   2.570  11.589 -0.0278  0.0861 -0.3056
 7666TIP3    H144489   0.978   2.616  11.614 -0.4481 -1.5387  1.5364
 7666TIP3    H244490   1.033   2.518  11.513 -0.0075  1.4879 -1.3108
 7667TIP3   OH244491   3.277   0.348  16.768 -0.5406 -0.4304  0.2434
 7667TIP3    H144492   3.354   0.401  16.750 -0.3130 -0.0871  2.0752
 7667TIP3    H244493   3.310   0.258  16.771 -0.6124 -0.5268 -1.0192
 7668TIP3   OH244494   0.337   0.156  16.072  0.2838  0.1378 -0.3078
 7668TIP3    H144495   0.295   0.070  16.061 -0.2464  0.4846 -1.1749
 7668TIP3    H244496   0.268   0.211  16.107 -0.0159  0.7135 -1.7325
 7669TIP3   OH244497   5.564   0.180  12.989  0.4419 -0.3233  0.5040
 7669TIP3    H144498   5.582   0.191  13.082  1.6927 -0.7860  0.3360
 7669TIP3    H244499   5.539   0.088  12.980 -0.4835 -0.0741  0.4990
 7670TIP3   OH244500   5.279   6.853  12.524 -0.6665 -0.1288  0.5251
 7670TIP3    H144501   5.280   6.877  12.617 -0.8527  0.3102  0.4180
 7670TIP3    H244502   5.294   6.759  12.523  0.2813  0.0039  0.9608
 7671TIP3   OH244503   3.073   1.210  15.559  0.1511 -0.3404  0.4532
 7671TIP3    H144504   2.982   1.236  15.571  0.2243 -0.1671  0.6218
 7671TIP3    H244505   3.077   1.119  15.589 -0.4022 -1.0166 -1.3580
 7672TIP3   OH244506   3.945   5.389   1.878 -0.3414 -0.2619 -0.6649
 7672TIP3    H144507   3.901   5.432   1.804  0.0612  1.6717  0.1462
 7672TIP3    H244508   4.018   5.448   1.900 -0.9852 -0.2618  1.8163
 7673TIP3   OH244509   1.253   3.924  12.635  0.4070  0.0034  0.4611
 7673TIP3    H144510   1.229   3.996  12.693  1.1961 -0.4931  1.4303
 7673TIP3    H244511   1.288   3.967  12.557  2.7403  0.7351  1.8085
 7674TIP3   OH244512   2.109   6.820  12.699  0.4115 -0.4145 -0.0085
 7674TIP3    H144513   2.076   6.900  12.659 -0.7422 -0.0646  1.5528
 7674TIP3    H244514   2.185   6.848  12.750 -0.1363 -0.2448  0.7335
 7675TIP3   OH244515   4.161   5.721  16.180 -0.3409  0.0788  0.1750
 7675TIP3    H144516   4.129   5.777  16.251 -1.4394  1.6284 -1.4515
 7675TIP3    H244517   4.111   5.640  16.190  0.6288 -0.3372  2.0395
 7676TIP3   OH244518   0.443   6.429  14.503 -0.1326 -0.6149 -0.1432
 7676TIP3    H144519   0.440   6.472  14.589  0.3880 -1.7127  0.4408
 7676TIP3    H244520   0.387   6.352  14.513 -1.3259  0.0529 -1.2829
 7677TIP3   OH244521   6.100   1.742  11.319 -0.2481  0.3442 -0.1828
 7677TIP3    H144522   6.086   1.777  11.407  0.1223  2.0411 -0.7489
 7677TIP3    H244523   6.189   1.769  11.297 -1.1088  1.9845 -1.9181
 7678TIP3   OH244524   0.173   5.440   2.846 -0.5360 -0.2012  0.3889
 7678TIP3    H144525   0.127   5.500   2.904  0.2218  0.4217  0.3630
 7678TIP3    H244526   0.250   5.489   2.817 -0.4569 -0.8104 -0.4663
 7679TIP3   OH244527   0.078   3.609  11.562 -0.1526  0.4262  0.0068
 7679TIP3    H144528   0.125   3.686  11.532  2.1076 -0.5482  0.7923
 7679TIP3    H244529   0.134   3.573  11.631 -1.3552 -1.6508 -0.0265
 7680TIP3   OH244530   5.717   6.424   5.336 -0.2517 -0.1371 -0.2214
 7680TIP3    H144531   5.752   6.444   5.249  1.8967  1.1238  0.8355
 7680TIP3    H244532   5.771   6.351   5.367  2.5053  2.5274  1.8692
 7681TIP3   OH244533   5.785   4.918  14.134  0.8499  0.0194  0.5303
 7681TIP3    H144534   5.717   4.975  14.098 -0.5529 -2.3336 -0.8439
 7681TIP3    H244535   5.857   4.925  14.072  0.1181 -0.7157 -0.4494
 7682TIP3   OH244536   4.576   3.356   3.857 -0.3288  0.2572  0.2219
 7682TIP3    H144537   4.514   3.296   3.898 -1.0498 -0.5510 -1.9215
 7682TIP3    H244538   4.659   3.338   3.900 -0.8918 -1.1036  0.7822
 7683TIP3   OH244539   0.469   5.444   1.645 -0.6844 -0.0924  0.2791
 7683TIP3    H144540   0.555   5.403   1.639 -0.9835 -0.8318  0.8668
 7683TIP3    H244541   0.481   5.530   1.607  0.4919  0.0741  0.9667
 7684TIP3   OH244542   5.112   2.561  14.900  0.1611 -0.9065  0.2873
 7684TIP3    H144543   5.118   2.500  14.973  1.9518  0.5280  1.4446
 7684TIP3    H244544   5.165   2.636  14.927 -2.8606  1.7343 -0.5033
 7685TIP3   OH244545   2.706   6.558   1.702 -0.0650 -0.0139  0.2459
 7685TIP3    H144546   2.618   6.555   1.741 -0.2124 -1.0834 -0.1316
 7685TIP3    H244547   2.757   6.611   1.762 -0.1815 -1.9159  2.1517
 7686TIP3   OH244548   3.994   5.955  15.006  0.5332  0.4470  0.2391
 7686TIP3    H144549   3.985   5.971  15.099  0.3570 -0.6023  0.4123
 7686TIP3    H244550   3.918   5.903  14.982  0.1699  1.3490 -0.6595
 7687TIP3   OH244551   0.603   3.063   1.132  0.1925  0.0937 -0.2436
 7687TIP3    H144552   0.532   3.007   1.101  0.8576 -1.0659  0.2616
 7687TIP3    H244553   0.598   3.141   1.077 -1.6015  0.1363 -0.0663
 7688TIP3   OH244554   4.718   4.170   5.915 -0.5784  0.1487  0.3590
 7688TIP3    H144555   4.802   4.157   5.870 -0.3584 -0.4330  0.9167
 7688TIP3    H244556   4.695   4.083   5.947 -0.4220  0.6294  1.8906
 7689TIP3   OH244557   5.032   2.276  12.582  0.3395  0.1774 -0.4299
 7689TIP3    H144558   5.045   2.234  12.667  0.6799  0.0070 -0.5603
 7689TIP3    H244559   4.937   2.286  12.574  0.2498 -0.6341 -0.4248
 7690TIP3   OH244560   0.039   2.053   9.969 -0.1336 -0.2107  0.1227
 7690TIP3    H144561   0.042   2.142  10.006  0.5256  0.4432 -1.3812
 7690TIP3    H244562   0.129   2.022   9.976 -0.4231 -0.8836  0.9029
 7691TIP3   OH244563   5.122   6.312   2.056  0.4113 -0.4104  0.3902
 7691TIP3    H144564   5.037   6.272   2.074  0.6019 -1.2816 -0.5845
 7691TIP3    H244565   5.155   6.338   2.142  0.7262 -3.2623  1.2290
 7692TIP3   OH244566   6.255   4.120   0.752 -0.6245  0.2685  0.6327
 7692TIP3    H144567   6.238   4.062   0.678  2.0467  0.0700  0.0550
 7692TIP3    H244568   6.203   4.198   0.733 -2.0157 -0.7783 -0.0708
 7693TIP3   OH244569   1.251   3.494   3.540 -0.8480 -0.1314 -0.5196
 7693TIP3    H144570   1.203   3.570   3.507 -0.0675  0.6345  0.0872
 7693TIP3    H244571   1.333   3.529   3.575 -1.6027 -0.8793  2.2663
 7694TIP3   OH244572   3.345   3.909  11.729  0.0539  0.8868 -1.0622
 7694TIP3    H144573   3.277   3.944  11.786  0.0892  0.3514 -0.6906
 7694TIP3    H244574   3.384   3.987  11.688  1.3602  1.4617  1.1262
 7695TIP3   OH244575   2.018   5.380   5.404  0.4437  0.3108 -0.1296
 7695TIP3    H144576   2.012   5.396   5.498 -2.2325  1.9829 -0.4567
 7695TIP3    H244577   1.931   5.346   5.380  1.0720 -0.0865 -1.9875
 7696TIP3   OH244578   1.164   0.529   0.892 -0.4920  0.1719  0.2255
 7696TIP3    H144579   1.254   0.560   0.881 -0.4003 -0.7254 -2.2598
 7696TIP3    H244580   1.134   0.569   0.974  1.5378  1.9900  0.1620
 7697TIP3   OH244581   1.400   6.090   3.299 -0.1214  0.0631 -0.2029
 7697TIP3    H144582   1.350   6.135   3.232 -0.5635 -0.4822 -0.2459
 7697TIP3    H244583   1.387   6.142   3.378  1.0582  1.1597 -0.7002
 7698TIP3   OH244584   4.719   1.219  12.098 -0.1696 -0.7804  0.1165
 7698TIP3    H144585   4.666   1.222  12.178  1.7431 -0.0415  1.4263
 7698TIP3    H244586   4.701   1.133  12.061 -0.9670 -1.2179  1.4494
 7699TIP3   OH244587   2.389   3.551   5.622  0.0755  0.0327  0.1341
 7699TIP3    H144588   2.351   3.466   5.647  0.4227  0.6853  3.2290
 7699TIP3    H244589   2.453   3.569   5.690  0.6204  2.4157 -0.9288
 7700TIP3   OH244590   1.335   3.015   2.058  0.5907 -0.0977 -0.7989
 7700TIP3    H144591   1.312   2.932   2.016 -0.9612  0.3472 -0.8656
 7700TIP3    H244592   1.252   3.051   2.089  1.5122  0.3303  1.3273
 7701TIP3   OH244593   5.776   1.720   1.744 -0.1912 -0.2793  0.5701
 7701TIP3    H144594   5.754   1.733   1.652  0.0604 -1.8805  0.2633
 7701TIP3    H244595   5.843   1.786   1.762  1.5646 -1.5346 -1.0821
 7702TIP3   OH244596   0.982   2.622   6.372 -0.2202  0.0889  0.2388
 7702TIP3    H144597   1.030   2.580   6.302  0.5938  1.0305  0.2045
 7702TIP3    H244598   1.040   2.617   6.448 -0.2143  0.8964  0.2972
 7703TIP3   OH244599   0.056   5.713   0.272  0.2480 -0.7496 -0.3009
 7703TIP3    H144600   0.100   5.629   0.287  0.9743 -0.4760 -0.8288
 7703TIP3    H244601  -0.028   5.705   0.316  1.3864 -0.7817  2.0400
 7704TIP3   OH244602   6.771   4.185  14.975 -0.7235  0.5491  0.6675
 7704TIP3    H144603   6.822   4.266  14.967 -1.3987  0.8854 -0.3563
 7704TIP3    H244604   6.732   4.172  14.889  0.3805 -1.5607  0.4219
 7705TIP3   OH244605   3.959   4.943   1.424  0.5544  0.2698 -0.1970
 7705TIP3    H144606   3.894   4.957   1.356  0.5638 -2.5954 -0.9544
 7705TIP3    H244607   3.909   4.949   1.506 -0.7111 -1.6738 -0.7531
 7706TIP3   OH244608   6.289   0.893   1.255 -0.6125 -0.1833 -0.3104
 7706TIP3    H144609   6.339   0.954   1.309 -0.2178 -0.7608 -0.0171
 7706TIP3    H244610   6.207   0.880   1.303 -1.0701  0.7801 -0.8021
 7707TIP3   OH244611   4.200   2.863  14.490 -0.1069 -0.0203  0.0534
 7707TIP3    H144612   4.172   2.772  14.502 -2.5578  0.5651 -0.6674
 7707TIP3    H244613   4.233   2.866  14.400  0.7397 -0.3585  0.3469
 7708TIP3   OH244614   5.278   5.731  13.195  0.2305  0.5087  0.5682
 7708TIP3    H144615   5.277   5.816  13.238 -0.3672  0.3448  0.8870
 7708TIP3    H244616   5.210   5.738  13.127  0.8781  0.6249 -0.0793
 7709TIP3   OH244617   0.583   5.118   2.389  0.1514  0.0742  0.1753
 7709TIP3    H144618   0.628   5.066   2.322 -0.0946 -1.8817  1.4688
 7709TIP3    H244619   0.497   5.077   2.398 -0.3566  1.2117  0.6811
 7710TIP3   OH244620   5.779   3.727   4.832 -0.3510  0.4371 -0.6827
 7710TIP3    H144621   5.777   3.647   4.779  0.9025  1.3455 -2.1903
 7710TIP3    H244622   5.805   3.796   4.771  0.3270  1.7017  0.9406
 7711TIP3   OH244623   2.036   4.752  12.221 -0.0710 -0.7911  0.2886
 7711TIP3    H144624   2.023   4.840  12.186  2.5528 -0.2879  0.4170
 7711TIP3    H244625   2.032   4.763  12.316 -0.8885 -1.0563  0.2994
 7712TIP3   OH244626   3.044   6.477   4.057  0.0284 -0.1975 -0.0243
 7712TIP3    H144627   2.967   6.533   4.063 -0.1280 -0.5136  1.1706
 7712TIP3    H244628   3.092   6.492   4.138  0.5776 -0.9231 -0.1992
 7713TIP3   OH244629   2.626   0.384  11.527 -0.0951 -0.5933  0.0186
 7713TIP3    H144630   2.532   0.400  11.512 -0.0007 -1.7824 -2.1385
 7713TIP3    H244631   2.670   0.447  11.470  0.4555 -0.3325  0.7110
 7714TIP3   OH244632   6.473   5.611  15.006  0.1994  0.5287 -0.1263
 7714TIP3    H144633   6.565   5.590  15.024 -0.3084 -0.5551  1.5044
 7714TIP3    H244634   6.460   5.586  14.915  1.3889  0.2423 -0.2449
 7715TIP3   OH244635   5.613   3.000  13.392 -0.3021  0.3864 -0.0411
 7715TIP3    H144636   5.539   2.940  13.388 -0.4726  0.6551 -2.0174
 7715TIP3    H244637   5.589   3.064  13.459 -1.1342 -0.4463  0.4702
 7716TIP3   OH244638   2.563   4.942  13.312  0.1294  0.1473  0.5755
 7716TIP3    H144639   2.547   4.951  13.218  0.9215 -2.6899  0.0589
 7716TIP3    H244640   2.618   5.017  13.334 -0.5901  1.2215 -1.0626
 7717TIP3   OH244641   6.663   5.327  13.734 -0.3151  0.2668  0.1449
 7717TIP3    H144642   6.665   5.349  13.827 -0.1644  1.1589 -0.0602
 7717TIP3    H244643   6.660   5.231  13.732  0.6122  0.2066  1.0483
 7718TIP3   OH244644   0.621   0.362  12.401  0.0087 -0.2850 -0.2471
 7718TIP3    H144645   0.593   0.434  12.457 -1.6572 -0.4091 -0.8740
 7718TIP3    H244646   0.548   0.348  12.341  0.2142 -2.5950 -0.0590
 7719TIP3   OH244647   2.602   4.704  14.177  0.5205  0.2279 -0.2379
 7719TIP3    H144648   2.513   4.732  14.198  0.6837 -0.2732  1.2985
 7719TIP3    H244649   2.609   4.712  14.082 -0.5871  1.9360 -0.2038
 7720TIP3   OH244650   0.768   1.666  11.742  0.3713 -0.6434 -0.0642
 7720TIP3    H144651   0.708   1.620  11.682 -0.1693  0.3956 -0.3458
 7720TIP3    H244652   0.799   1.598  11.802  1.2216 -1.8152 -1.7373
 7721TIP3   OH244653   2.607   1.460   4.908  0.2802  0.2226 -0.9774
 7721TIP3    H144654   2.663   1.473   4.831  0.5354  0.8548 -0.6973
 7721TIP3    H244655   2.540   1.527   4.899  0.1253  0.0878 -0.8150
 7722TIP3   OH244656   3.664   2.202   1.350  0.3150 -0.0153  0.1004
 7722TIP3    H144657   3.624   2.251   1.421  0.8581 -0.0064  0.4119
 7722TIP3    H244658   3.729   2.146   1.393  0.7757  0.1155 -0.4042
 7723TIP3   OH244659   2.988   6.039   2.796  0.7670 -0.2558  0.4971
 7723TIP3    H144660   2.976   6.117   2.851  0.0946 -0.1200  0.1752
 7723TIP3    H244661   3.080   6.041   2.771  0.6879  0.6226  0.2329
 7724TIP3   OH244662   0.324   3.917  12.121  0.6117 -1.0022  0.1365
 7724TIP3    H144663   0.345   3.944  12.211 -1.0266 -3.2444  1.2911
 7724TIP3    H244664   0.345   3.824  12.119 -0.8319 -1.3278 -1.3328
 7725TIP3   OH244665   4.881   3.249  15.017 -0.1378 -0.0396  0.8294
 7725TIP3    H144666   4.807   3.207  14.972 -0.0189  2.0163 -1.4789
 7725TIP3    H244667   4.840   3.300  15.087 -0.8496  0.4376  0.0841
 7726TIP3   OH244668   3.534   2.398  16.543  0.6535 -0.4559 -0.0835
 7726TIP3    H144669   3.451   2.390  16.589  0.8155 -0.9403  0.1280
 7726TIP3    H244670   3.527   2.336  16.470  0.5148  0.0910 -0.5397
 7727TIP3   OH244671   2.041   1.064   4.334 -0.5302 -0.4895  0.2266
 7727TIP3    H144672   1.977   1.101   4.395  0.5180  1.8103  0.0526
 7727TIP3    H244673   2.001   1.075   4.248  0.3066  1.6819  0.0408
 7728TIP3   OH244674   2.437   4.669   0.593  0.6241 -0.2252 -0.4078
 7728TIP3    H144675   2.519   4.718   0.592 -0.1327  1.0696 -0.7361
 7728TIP3    H244676   2.458   4.587   0.547  1.7065  0.1228 -0.5606
 7729TIP3   OH244677   3.042   1.298  12.428 -0.4213  0.9506  0.5477
 7729TIP3    H144678   2.947   1.301  12.431 -0.6395  1.0755 -2.5954
 7729TIP3    H244679   3.071   1.376  12.475 -1.8729  1.2271  1.0206
 7730TIP3   OH244680   4.882   5.744  14.691  0.1993 -0.3800 -0.1229
 7730TIP3    H144681   4.824   5.801  14.641  0.7334 -1.0254 -1.5237
 7730TIP3    H244682   4.907   5.675  14.630  2.1392 -0.3445  0.5673
 7731TIP3   OH244683   4.354   3.773   3.192 -0.0795 -0.5953  0.6059
 7731TIP3    H144684   4.447   3.765   3.171 -0.2042  0.3696 -0.4682
 7731TIP3    H244685   4.317   3.687   3.173  0.4774 -0.7881  0.3726
 7732TIP3   OH244686   4.460   6.800   3.382 -0.2471 -0.1365 -0.4068
 7732TIP3    H144687   4.370   6.818   3.410 -0.1211  0.1335 -0.1634
 7732TIP3    H244688   4.501   6.887   3.376 -0.2433 -0.1899 -1.3467
 7733TIP3   OH244689   3.137   5.313  15.914 -0.2203  0.1151  0.2764
 7733TIP3    H144690   3.083   5.366  15.856  2.1775  0.4662 -1.8582
 7733TIP3    H244691   3.202   5.273  15.856  1.3611 -0.8467  2.5432
 7734TIP3   OH244692   6.623   1.823  13.981  0.5538  0.3025 -0.8179
 7734TIP3    H144693   6.592   1.892  14.039  0.7906  0.3303 -0.7209
 7734TIP3    H244694   6.704   1.792  14.022 -0.0296 -0.6631 -0.3721
 7735TIP3   OH244695   4.189   3.321   5.913 -0.1642 -1.0580 -0.0957
 7735TIP3    H144696   4.249   3.255   5.948  0.7407  0.2790  0.9363
 7735TIP3    H244697   4.108   3.272   5.894  0.2853 -2.3494  1.1829
 7736TIP3   OH244698   5.143   1.458   4.979 -0.3061  0.6537  0.1785
 7736TIP3    H144699   5.218   1.513   4.959  1.5710 -2.1430 -1.0160
 7736TIP3    H244700   5.133   1.464   5.074  1.9256  0.5542  0.4617
 7737TIP3   OH244701   5.416   5.864   0.522 -0.5708 -0.0784  0.0385
 7737TIP3    H144702   5.469   5.942   0.538 -1.9696  1.2836 -1.7017
 7737TIP3    H244703   5.459   5.796   0.575  1.3128  1.5699  0.7756
 7738TIP3   OH244704   2.449   1.608   4.057  0.1036  0.3650  0.0222
 7738TIP3    H144705   2.372   1.554   4.074  0.3801 -0.3211 -0.8590
 7738TIP3    H244706   2.417   1.680   4.004  0.1256 -0.1110 -0.6447
 7739TIP3   OH244707   3.192   2.059   0.329 -0.3241  0.0503  0.2446
 7739TIP3    H144708   3.160   1.993   0.268 -0.1798 -0.0930  0.3221
 7739TIP3    H244709   3.117   2.117   0.344 -1.1159 -1.2729  1.7850
 7740TIP3   OH244710   1.274   0.346   3.134  0.3161 -0.4378  0.1027
 7740TIP3    H144711   1.352   0.311   3.091  0.6643  1.1063 -0.6089
 7740TIP3    H244712   1.308   0.408   3.198 -0.3105 -0.1831  0.1955
 7741TIP3   OH244713   4.097   4.083  11.161 -0.4501 -0.0305  0.5771
 7741TIP3    H144714   4.126   4.103  11.072  1.0751 -0.2203  1.0142
 7741TIP3    H244715   4.107   3.988  11.169 -0.6747 -0.0265  0.9232
 7742TIP3   OH244716   4.718   5.508   3.886  0.2180  0.2279 -0.2792
 7742TIP3    H144717   4.792   5.564   3.864  0.4572 -0.3451 -0.9663
 7742TIP3    H244718   4.754   5.439   3.941  0.3998 -0.5944 -1.3976
 7743TIP3   OH244719   2.912   0.914   0.954  0.3576  0.0200 -0.0318
 7743TIP3    H144720   2.902   0.953   0.867  1.7094 -0.9795 -0.6638
 7743TIP3    H244721   2.973   0.971   1.000 -1.4662  1.3735  0.8288
 7744TIP3   OH244722   2.767   0.257  12.239  0.2358 -0.3623  0.0887
 7744TIP3    H144723   2.809   0.254  12.154 -1.5396  1.1647 -0.9325
 7744TIP3    H244724   2.760   0.351  12.260 -0.3864 -0.6608  1.3591
 7745TIP3   OH244725   4.432   0.091  13.767  0.3885  0.0465 -0.0689
 7745TIP3    H144726   4.501   0.047  13.718  1.6518  0.3495  1.3902
 7745TIP3    H244727   4.469   0.176  13.790 -0.1862 -0.0535  1.3268
 7746TIP3   OH244728   1.864   4.109   6.267 -0.2670 -0.5438 -0.4495
 7746TIP3    H144729   1.803   4.172   6.306 -0.1195 -0.0578 -0.9931
 7746TIP3    H244730   1.895   4.057   6.341  0.4701  0.7577  0.1944
 7747TIP3   OH244731   4.705   2.854   2.096  0.0934  0.1627 -0.4431
 7747TIP3    H144732   4.793   2.859   2.060  0.1619  1.5746 -0.1142
 7747TIP3    H244733   4.713   2.797   2.172  0.5464 -0.3784 -0.8868
 7748TIP3   OH244734   5.820   1.376   4.013  0.2814 -0.2547  0.2714
 7748TIP3    H144735   5.852   1.351   3.927 -3.3832 -2.3788 -0.6911
 7748TIP3    H244736   5.853   1.308   4.072  2.2008  0.8097  0.4949
 7749TIP3   OH244737   3.886   5.145   2.596  0.3385  0.8667 -0.1838
 7749TIP3    H144738   3.803   5.175   2.558 -0.0062  2.6400  1.8261
 7749TIP3    H244739   3.953   5.195   2.549  0.7101 -2.4402 -3.7275
 7750TIP3   OH244740   6.847   1.832   5.405  0.5376  0.1683 -0.2382
 7750TIP3    H144741   6.761   1.830   5.448  1.5004 -0.4342  1.7588
 7750TIP3    H244742   6.875   1.741   5.403  2.2667  0.5958  1.6152
 7751TIP3   OH244743   4.609   6.563  17.123  0.5085 -0.1175  0.3405
 7751TIP3    H144744   4.568   6.485  17.162  1.7260 -1.1739 -0.4254
 7751TIP3    H244745   4.625   6.621  17.197 -0.3007 -0.6418  0.9477
 7752TIP3   OH244746   2.936   6.659   2.710 -0.0832 -0.0454 -0.7207
 7752TIP3    H144747   2.948   6.567   2.686 -0.0343 -0.0767 -0.5752
 7752TIP3    H244748   2.844   6.666   2.733 -0.0263 -0.1187 -0.4685
 7753TIP3   OH244749   5.880   2.570   3.456 -0.2541 -0.3563  0.1145
 7753TIP3    H144750   5.933   2.648   3.439 -1.1384  0.1576 -0.4194
 7753TIP3    H244751   5.867   2.569   3.550  1.4822 -1.0329  0.3763
 7754TIP3   OH244752   3.419   0.568   1.497  0.5247 -0.3086  0.3902
 7754TIP3    H144753   3.355   0.573   1.427 -1.8932  1.0297  2.5206
 7754TIP3    H244754   3.400   0.485   1.541 -1.8785  1.2859  2.7147
 7755TIP3   OH244755   2.745   5.093  15.710 -0.5546 -0.1886  0.4328
 7755TIP3    H144756   2.667   5.143  15.735 -0.9258 -2.2844  4.0146
 7755TIP3    H244757   2.721   5.052  15.627 -1.4535  2.7381 -0.8985
 7756TIP3   OH244758   2.330   0.373   0.945  1.0758  0.1577 -0.4063
 7756TIP3    H144759   2.237   0.372   0.923  0.6370 -0.1652  1.2676
 7756TIP3    H244760   2.354   0.281   0.954  0.9084  0.2521  1.4755
 7757TIP3   OH244761   2.647   3.504   4.610  0.1585 -0.8635 -0.5356
 7757TIP3    H144762   2.705   3.531   4.681  1.4929  1.3682 -2.3309
 7757TIP3    H244763   2.570   3.468   4.654  0.6162  1.0467  2.0727
 7758TIP3   OH244764   1.386   1.922  14.255  0.2409 -0.1303  0.4160
 7758TIP3    H144765   1.436   1.911  14.336  0.7015 -0.9698  0.0246
 7758TIP3    H244766   1.428   1.996  14.211  1.0585 -0.7372  0.1603
 7759TIP3   OH244767   1.839   4.398  13.168 -0.5010 -0.6474 -0.0762
 7759TIP3    H144768   1.923   4.391  13.123 -0.5414 -0.4879 -0.1771
 7759TIP3    H244769   1.801   4.311  13.161 -0.0548 -0.8996  0.5337
 7760TIP3   OH244770   5.750   5.836   4.041  0.4418 -0.4000  0.7479
 7760TIP3    H144771   5.774   5.806   3.953  1.3153  2.2679 -0.0251
 7760TIP3    H244772   5.663   5.800   4.056  1.1707 -2.7355 -0.2621
 7761TIP3   OH244773   3.394   2.321  16.935  0.4936 -0.0472 -0.1966
 7761TIP3    H144774   3.469   2.328  16.876  0.1351 -0.0051 -0.6525
 7761TIP3    H244775   3.318   2.319  16.877  0.1756 -0.7180  0.2279
 7762TIP3   OH244776   2.214   2.272   4.089 -0.4160  0.0557  0.4936
 7762TIP3    H144777   2.206   2.260   4.183  1.0171  0.2535  0.6681
 7762TIP3    H244778   2.209   2.183   4.052 -0.7627 -0.0398  0.7743
 7763TIP3   OH244779   1.193   1.864   4.671  0.4313  0.2525  0.0901
 7763TIP3    H144780   1.269   1.809   4.655 -0.1860 -0.4092 -0.6678
 7763TIP3    H244781   1.120   1.817   4.631 -0.3718  0.9016  0.7496
 7764TIP3   OH244782   5.627   2.216  13.569 -0.0476  0.7148  0.0704
 7764TIP3    H144783   5.617   2.271  13.647 -1.4222 -0.3797  0.7138
 7764TIP3    H244784   5.594   2.130  13.596 -0.0119  0.1517 -1.5615
 7765TIP3   OH244785   6.095   0.262   3.015 -0.5666  0.2461  0.2492
 7765TIP3    H144786   6.117   0.355   3.012 -1.3903  0.6513  3.2091
 7765TIP3    H244787   6.122   0.234   3.103  2.0727 -3.0321 -1.3424
 7766TIP3   OH244788   6.731   0.585  13.031  0.1386  0.2392 -0.2805
 7766TIP3    H144789   6.799   0.518  13.045  1.2753  1.5034  0.4939
 7766TIP3    H244790   6.723   0.628  13.116  0.0416  1.6382 -0.9812
 7767TIP3   OH244791   4.602   0.588  14.625  0.2788 -0.1745  0.1397
 7767TIP3    H144792   4.672   0.535  14.587  0.1780 -0.5608  0.4723
 7767TIP3    H244793   4.628   0.600  14.717 -0.4170 -0.9205  0.4548
 7768TIP3   OH244794   0.795   6.188  11.646  0.4486 -0.5623 -0.2659
 7768TIP3    H144795   0.756   6.266  11.687 -0.3832 -1.5444  0.8913
 7768TIP3    H244796   0.889   6.195  11.667  0.3997  0.1716 -0.2548
 7769TIP3   OH244797   6.483   0.459  15.164  0.1354 -0.3715  0.5674
 7769TIP3    H144798   6.454   0.367  15.163  1.1733 -0.7142 -0.8255
 7769TIP3    H244799   6.573   0.456  15.132  0.0904  1.1703  0.2099
 7770TIP3   OH244800   1.185   6.747   2.019  0.0554 -0.2118  0.4230
 7770TIP3    H144801   1.091   6.748   2.039 -0.3073 -2.1114 -1.0006
 7770TIP3    H244802   1.219   6.823   2.067 -2.3586  1.2053  0.1029
 7771TIP3   OH244803   5.663   1.477  10.839 -0.1621 -0.1465  0.7986
 7771TIP3    H144804   5.703   1.517  10.917 -0.4943 -0.3650  1.0826
 7771TIP3    H244805   5.582   1.526  10.826 -0.3479 -0.4339  0.8793
 7772TIP3   OH244806   5.767   4.592  14.359 -0.5687  0.1891 -0.8278
 7772TIP3    H144807   5.796   4.558  14.274  4.2804  2.1195 -0.2886
 7772TIP3    H244808   5.806   4.531  14.422 -0.7694  0.9222  0.0126
 7773TIP3   OH244809   2.964   0.090   0.059 -0.1026 -0.3389  0.1975
 7773TIP3    H144810   3.037   0.072  -0.000 -0.2379 -1.4917  0.3644
 7773TIP3    H244811   2.947   0.007   0.102  0.0761  0.5075  1.9796
 7774TIP3   OH244812   5.775   3.575  16.520  0.5832  0.9241 -0.8802
 7774TIP3    H144813   5.682   3.597  16.524  0.0520 -1.2644  0.7580
 7774TIP3    H244814   5.802   3.567  16.612  2.0721  0.3066 -1.3360
 7775TIP3   OH244815   0.051   3.051  12.928 -0.0736 -0.1852 -0.7954
 7775TIP3    H144816  -0.016   2.984  12.941 -2.0305  2.0426  1.5494
 7775TIP3    H244817   0.133   3.008  12.954 -1.2238 -1.6760  0.5768
 7776TIP3   OH244818   0.272   2.685  13.681 -0.1396  0.1466 -0.0898
 7776TIP3    H144819   0.226   2.617  13.633  0.1340  0.9112 -1.5115
 7776TIP3    H244820   0.314   2.738  13.612  0.7631  0.9381  1.0352
 7777TIP3   OH244821   2.947   6.572   4.317  0.4974  0.2581  0.8708
 7777TIP3    H144822   3.011   6.523   4.369  0.6584 -0.1314  0.3125
 7777TIP3    H244823   2.919   6.643   4.374  0.4898 -0.3059  1.5771
 7778TIP3   OH244824   4.034   6.483   2.486  0.2644  0.0203  0.3945
 7778TIP3    H144825   3.960   6.477   2.426  1.0298  1.4012 -0.7396
 7778TIP3    H244826   4.047   6.576   2.500  1.4031 -0.2183  1.0726
 7779TIP3   OH244827   3.246   5.275  14.565 -0.0517 -0.0755 -0.1198
 7779TIP3    H144828   3.316   5.280  14.630  0.8318  1.1453 -1.1038
 7779TIP3    H244829   3.286   5.311  14.485 -1.1558 -1.3116 -1.2788
 7780TIP3   OH244830   0.232   4.061   2.284  0.1202 -0.2572  0.3450
 7780TIP3    H144831   0.255   4.018   2.367  1.4632  1.1008  0.7421
 7780TIP3    H244832   0.152   4.109   2.304 -0.7940 -1.6697  0.1970
 7781TIP3   OH244833   4.930   2.827  11.556  0.0829  0.7746 -0.3577
 7781TIP3    H144834   4.998   2.781  11.605 -1.3598 -0.0885  0.9104
 7781TIP3    H244835   4.977   2.868  11.483  2.2865  1.7978  1.4781
 7782TIP3   OH244836   1.502   5.066  15.448 -0.1053 -0.3923  0.2983
 7782TIP3    H144837   1.426   5.008  15.450  1.1306 -2.0820  1.5349
 7782TIP3    H244838   1.488   5.126  15.521 -1.0687  0.4617 -0.5668
 7783TIP3   OH244839   0.577   4.836   5.267 -0.0089  0.2721 -0.7511
 7783TIP3    H144840   0.561   4.768   5.333  0.6161  0.2346 -0.6369
 7783TIP3    H244841   0.666   4.819   5.236 -0.7664 -0.5942 -2.6244
 7784TIP3   OH244842   2.879   5.022  11.035 -0.5275  0.1463 -0.4014
 7784TIP3    H144843   2.922   5.086  11.093  0.3996 -0.6040 -0.2433
 7784TIP3    H244844   2.877   4.941  11.086 -1.6828  0.0336 -0.6067
 7785TIP3   OH244845   3.342   6.435   2.126  0.0810  0.0401  0.1406
 7785TIP3    H144846   3.406   6.495   2.088 -2.3933  2.0737 -1.0817
 7785TIP3    H244847   3.371   6.424   2.217  2.3696  0.4911 -0.4708
 7786TIP3   OH244848   4.705   4.948  14.116  0.3195 -0.6510 -0.2063
 7786TIP3    H144849   4.775   4.929  14.054  0.1178 -1.0430 -0.3138
 7786TIP3    H244850   4.694   4.867  14.166 -0.3488 -0.7282 -0.4737
 7787TIP3   OH244851   0.947   5.765  10.863 -0.5516  0.5359 -0.3244
 7787TIP3    H144852   0.898   5.824  10.805  0.4425  0.3276 -1.4205
 7787TIP3    H244853   0.980   5.696  10.805 -0.1738 -0.1044  0.6319
 7788TIP3   OH244854   2.769   2.672  16.658  0.1122  0.0239 -0.2027
 7788TIP3    H144855   2.827   2.599  16.676 -0.1311 -0.2765 -0.6037
 7788TIP3    H244856   2.700   2.666  16.725  0.9061  0.8019  0.7179
 7789TIP3   OH244857   6.781   4.916   2.194  0.0545 -0.1809  0.3524
 7789TIP3    H144858   6.745   4.933   2.281  0.2444 -0.9014  0.5764
 7789TIP3    H244859   6.868   4.879   2.211 -0.3121 -1.2865 -0.1184
 7790TIP3   OH244860   0.276   6.261   4.281 -0.3186 -0.0256  0.1575
 7790TIP3    H144861   0.182   6.280   4.284 -0.0935  1.1070  0.5200
 7790TIP3    H244862   0.290   6.221   4.195 -1.1791 -0.4871  0.2260
 7791TIP3   OH244863   4.527   4.095  15.379 -0.1941 -0.1235 -0.3475
 7791TIP3    H144864   4.569   4.052  15.454  0.7259 -0.3092 -0.9541
 7791TIP3    H244865   4.539   4.034  15.306 -0.9464  0.1233 -0.6928
 7792TIP3   OH244866   6.451   6.715   5.816 -0.0259  0.1674  0.7841
 7792TIP3    H144867   6.416   6.787   5.763 -1.7199 -1.7984 -0.9472
 7792TIP3    H244868   6.379   6.691   5.874  0.0537 -0.9137  0.4585
 7793TIP3   OH244869   3.785   5.597   1.048  0.3257 -0.0500 -0.3504
 7793TIP3    H144870   3.808   5.550   1.128 -2.2026 -2.4630 -0.8908
 7793TIP3    H244871   3.690   5.604   1.051  0.3810  2.3274 -1.8540
 7794TIP3   OH244872   4.238   6.556   5.258 -0.2273  0.3821  0.1475
 7794TIP3    H144873   4.309   6.517   5.208  0.2122 -0.2099  1.2053
 7794TIP3    H244874   4.244   6.650   5.240 -0.5730  0.1138 -1.5066
 7795TIP3   OH244875   4.414   6.539  14.249 -0.1824 -0.5211  0.4315
 7795TIP3    H144876   4.502   6.574  14.266 -0.3954  0.0137  0.4385
 7795TIP3    H244877   4.427   6.444  14.244  0.2895 -0.5039  1.1168
 7796TIP3   OH244878   2.994   2.347   4.805 -0.3775 -0.0745 -0.1323
 7796TIP3    H144879   3.057   2.292   4.851 -0.5534  0.2585  0.5092
 7796TIP3    H244880   3.042   2.380   4.729  0.5745  1.0576  0.9306
 7797TIP3   OH244881   0.953   3.991   6.382 -0.1874  0.4354 -0.4594
 7797TIP3    H144882   0.980   3.956   6.467 -0.1176  1.2325 -0.1496
 7797TIP3    H244883   0.898   4.066   6.403 -1.7917 -0.5069 -1.0933
 7798TIP3   OH244884   3.461   2.020  11.469  0.0878  0.5167  0.1365
 7798TIP3    H144885   3.402   2.086  11.433 -1.9217 -1.1397  0.2199
 7798TIP3    H244886   3.412   1.981  11.541  0.7774 -1.7683 -0.5639
 7799TIP3   OH244887   6.533   4.245  12.801  0.3737  0.9091  0.4087
 7799TIP3    H144888   6.548   4.178  12.867  1.3026  0.5109 -0.1861
 7799TIP3    H244889   6.570   4.325  12.839  2.6801  0.2870 -0.3489
 7800TIP3   OH244890   2.014   6.566   3.515 -0.8102  0.9290 -0.2544
 7800TIP3    H144891   2.079   6.565   3.586 -2.9903 -0.4955  1.8763
 7800TIP3    H244892   2.064   6.545   3.437  1.1881 -1.0157  1.4205
 7801TIP3   OH244893   4.087   4.361   2.640 -0.0991 -0.3188  0.0261
 7801TIP3    H144894   4.104   4.423   2.568 -0.7587  0.3315  0.4208
 7801TIP3    H244895   4.115   4.408   2.719 -0.4401 -0.5976  0.3133
 7802TIP3   OH244896   3.616   6.488  12.795 -0.4812  0.3888 -0.3290
 7802TIP3    H144897   3.692   6.520  12.746 -1.3422 -0.1679 -2.1143
 7802TIP3    H244898   3.617   6.393  12.782 -1.1413  0.3183  0.1114
 7803TIP3   OH244899   3.974   5.526   6.152  0.0447  0.6059  0.1588
 7803TIP3    H144900   4.001   5.435   6.162 -1.0241  0.2250 -0.2213
 7803TIP3    H244901   3.887   5.521   6.113 -0.2338  1.7814  0.5681
 7804TIP3   OH244902   4.101   6.839  15.331 -0.4460 -0.2230 -0.1264
 7804TIP3    H144903   4.132   6.869  15.245 -1.4037  1.2502  0.0056
 7804TIP3    H244904   4.098   6.919  15.384 -1.5024 -0.8295  0.7561
 7805TIP3   OH244905   3.267   1.034   3.447  0.1971 -0.6636  0.2320
 7805TIP3    H144906   3.212   1.094   3.396  1.6807 -0.5881 -1.3533
 7805TIP3    H244907   3.260   0.950   3.401  0.5772 -0.9230  0.6432
 7806TIP3   OH244908   6.091   4.750   0.678 -0.0971  0.2808 -0.2222
 7806TIP3    H144909   6.063   4.841   0.667 -1.8269 -0.3414 -1.5120
 7806TIP3    H244910   6.062   4.727   0.766 -1.5954  0.3958 -0.6492
 7807TIP3   OH244911   3.970   1.445   5.338  0.1402 -0.1556  0.6290
 7807TIP3    H144912   3.977   1.487   5.424 -0.0492 -0.1282  0.6325
 7807TIP3    H244913   3.889   1.481   5.301  0.4155  0.1167  0.2859
 7808TIP3   OH244914   2.863   5.866   4.576  0.1691 -0.0881 -0.2932
 7808TIP3    H144915   2.870   5.923   4.653 -0.3033 -1.8046  1.1055
 7808TIP3    H244916   2.807   5.914   4.516 -0.3369  0.8664  0.8879
 7809TIP3   OH244917   4.753   0.950  14.807  0.2202 -0.2848  1.1576
 7809TIP3    H144918   4.685   0.974  14.745  1.1251 -2.0175 -0.6212
 7809TIP3    H244919   4.712   0.960  14.893 -1.9753 -0.4330  0.1904
 7810TIP3   OH244920   1.191   5.580   1.075  0.1269  0.8015 -0.0492
 7810TIP3    H144921   1.136   5.649   1.038  0.7279  2.6234  2.2010
 7810TIP3    H244922   1.278   5.595   1.037 -0.2165 -0.1470 -1.2507
 7811TIP3   OH244923   4.542   2.986  16.028  0.0319  0.7150 -0.2482
 7811TIP3    H144924   4.511   3.048  16.094 -0.5106  1.1934 -0.9445
 7811TIP3    H244925   4.519   2.900  16.063 -1.0319  1.0046 -0.2031
 7812TIP3   OH244926   0.198   0.434   4.703 -0.2502 -0.5653  0.6028
 7812TIP3    H144927   0.197   0.517   4.655  0.1957  0.2727  1.9880
 7812TIP3    H244928   0.125   0.384   4.666  0.0074  0.0807 -0.8493
 7813TIP3   OH244929   3.469   5.475  17.077  0.0005 -0.3673 -0.3201
 7813TIP3    H144930   3.553   5.479  17.032 -0.7567  0.0043 -1.7437
 7813TIP3    H244931   3.460   5.382  17.100  1.7882 -0.0955  1.9104
 7814TIP3   OH244932   0.508   6.011   2.083  0.3822  0.4853 -0.0516
 7814TIP3    H144933   0.592   6.055   2.072 -0.8255  3.4463  1.3131
 7814TIP3    H244934   0.443   6.082   2.075 -1.9073 -1.4563  0.1631
 7815TIP3   OH244935   6.665   1.073   4.552  0.5248 -0.0795  0.2385
 7815TIP3    H144936   6.634   1.039   4.468 -0.0397  0.7543  0.0970
 7815TIP3    H244937   6.613   1.027   4.617  0.2433 -0.0011  0.0750
 7816TIP3   OH244938   1.217   0.069  14.931  0.3849 -0.0916 -0.2514
 7816TIP3    H144939   1.174   0.017  14.999 -0.4330  1.0001  0.0892
 7816TIP3    H244940   1.155   0.138  14.910  1.8772  1.4389  0.1362
 7817TIP3   OH244941   0.996   6.146   2.988  0.4220 -0.2868 -0.5991
 7817TIP3    H144942   1.013   6.151   2.894 -1.9220 -0.3838 -1.0914
 7817TIP3    H244943   0.911   6.189   2.999 -0.0127 -1.5326  1.2702
 7818TIP3   OH244944   0.776   0.101  15.880 -0.2045  0.2360  0.0591
 7818TIP3    H144945   0.793   0.027  15.821  0.3179 -0.6298  1.2512
 7818TIP3    H244946   0.765   0.061  15.966  0.1523  1.5694  0.7529
 7819TIP3   OH244947   2.368   4.839   0.877  0.5158 -0.0245 -0.2357
 7819TIP3    H144948   2.371   4.746   0.900 -0.9516 -0.0753 -0.2031
 7819TIP3    H244949   2.345   4.883   0.959  2.4687  0.5406  0.0794
 7820TIP3   OH244950   1.787   5.990   2.660 -0.5814  0.1839 -0.0032
 7820TIP3    H144951   1.798   6.061   2.597 -0.4492  1.6146  1.5554
 7820TIP3    H244952   1.727   6.025   2.726 -0.3432 -1.0678  0.9306
 7821TIP3   OH244953   3.604   5.486  14.198  0.3338  0.0122 -0.3227
 7821TIP3    H144954   3.676   5.547  14.211 -0.7895  1.5685 -1.1738
 7821TIP3    H244955   3.527   5.541  14.185 -1.0506 -1.5967  0.6258
 7822TIP3   OH244956   0.089   5.962   5.109 -0.3712 -0.3790  0.1265
 7822TIP3    H144957   0.051   6.037   5.154 -2.7092 -1.3335 -0.0900
 7822TIP3    H244958   0.090   5.892   5.175  0.2897 -0.6088 -0.1149
 7823TIP3   OH244959   5.699   6.468   5.959 -0.3284  0.5708  0.3822
 7823TIP3    H144960   5.698   6.561   5.982  1.3787  0.6129  0.4302
 7823TIP3    H244961   5.673   6.423   6.040  0.9971  0.9360  1.0459
 7824TIP3   OH244962   1.339   4.554   4.780 -0.6740 -0.0944  0.7564
 7824TIP3    H144963   1.331   4.632   4.835 -1.6215  0.9003 -0.7189
 7824TIP3    H244964   1.256   4.550   4.731  0.5676 -0.2248 -1.4906
 7825TIP3   OH244965   3.896   3.747   2.919 -0.3115 -0.1086 -0.0053
 7825TIP3    H144966   3.920   3.654   2.922  1.1313  0.2626  1.1651
 7825TIP3    H244967   3.974   3.790   2.883 -1.1661  0.6015 -1.0285
 7826TIP3   OH244968   1.281   1.986  12.648  0.2807  0.4299  0.4078
 7826TIP3    H144969   1.246   2.060  12.597 -3.4356 -0.8747  0.7777
 7826TIP3    H244970   1.262   1.909  12.594  0.6338 -0.5731  1.6792
 7827TIP3   OH244971   3.849   1.138  12.576  0.0420 -0.3323 -0.1806
 7827TIP3    H144972   3.940   1.154  12.599  0.6909  0.1000 -2.7871
 7827TIP3    H244973   3.852   1.069  12.509 -1.7346 -1.7884  1.1124
 7828TIP3   OH244974   3.106   4.523  13.346 -0.5559 -0.4765  0.1785
 7828TIP3    H144975   3.055   4.472  13.409  0.5721 -0.5383  1.0724
 7828TIP3    H244976   3.153   4.587  13.399  1.4100 -1.3598 -0.4090
 7829TIP3   OH244977   0.344   0.366   6.122 -0.2098  0.3450 -0.3959
 7829TIP3    H144978   0.298   0.311   6.186 -0.8215 -1.6732 -2.4098
 7829TIP3    H244979   0.338   0.316   6.040  2.1943  1.8997 -1.6140
 7830TIP3   OH244980   6.407   1.219  16.096  0.0667 -0.2414 -0.0935
 7830TIP3    H144981   6.351   1.296  16.085 -0.3746 -0.2376  1.8924
 7830TIP3    H244982   6.490   1.244  16.056 -0.3416  0.9423 -0.2447
 7831TIP3   OH244983   5.736   5.271   2.973 -0.0982 -0.4185  0.1010
 7831TIP3    H144984   5.667   5.283   2.908  0.2780  0.5610 -0.1352
 7831TIP3    H244985   5.753   5.177   2.973 -1.3172 -0.6542  0.0558
 7832TIP3   OH244986   0.675   6.558  13.309  0.3505  0.0090  0.1813
 7832TIP3    H144987   0.750   6.546  13.251  1.0924 -0.0609  1.1264
 7832TIP3    H244988   0.631   6.474  13.309  0.5882 -0.1161  0.0433
 7833TIP3   OH244989   4.559   3.372   5.977 -0.1286 -0.0377 -0.0092
 7833TIP3    H144990   4.647   3.390   6.010  0.0383 -2.0664  0.8221
 7833TIP3    H244991   4.500   3.412   6.040  0.2157 -2.1590  1.7811
 7834TIP3   OH244992   3.727   5.930  11.209  0.0585  0.7744  0.6846
 7834TIP3    H144993   3.727   5.888  11.123  1.0992  1.9802  0.0528
 7834TIP3    H244994   3.793   6.000  11.201  0.7818  0.3962  2.7218
 7835TIP3   OH244995   4.837   1.036   0.371  0.5748 -0.3531  0.0701
 7835TIP3    H144996   4.783   1.113   0.389 -0.4127 -1.1137  0.4753
 7835TIP3    H244997   4.897   1.065   0.302 -0.9200  0.2847 -1.0184
 7836TIP3   OH244998   0.956   1.017   0.555  0.0078 -0.1771  0.2164
 7836TIP3    H144999   0.942   0.937   0.504 -0.6429  0.4470 -0.6115
 7836TIP3    H245000   0.987   0.986   0.640  2.9405 -1.2017 -1.0750
 7837TIP3   OH245001   6.371   2.794  15.594 -0.1393 -0.4989 -0.0264
 7837TIP3    H145002   6.287   2.748  15.603 -0.4920  0.1995  0.2720
 7837TIP3    H245003   6.426   2.733  15.545 -1.2388 -0.4316 -1.4066
 7838TIP3   OH245004   1.616   3.682  13.872 -0.0518  0.3136 -0.0084
 7838TIP3    H145005   1.635   3.758  13.817 -0.4367  0.2859 -0.1811
 7838TIP3    H245006   1.687   3.681  13.937  0.2450  0.5141 -0.3233
 7839TIP3   OH245007   1.416   1.430  13.225  0.7291 -0.4334 -0.4185
 7839TIP3    H145008   1.413   1.382  13.307 -2.0611  1.7128  0.8926
 7839TIP3    H245009   1.337   1.401  13.178  0.2914  1.0252 -0.6380
 7840TIP3   OH245010   0.190   2.103  12.167 -0.0957  0.2385  0.2248
 7840TIP3    H145011   0.265   2.064  12.212  0.0971  2.0624  1.5746
 7840TIP3    H245012   0.125   2.116  12.236 -1.1520 -0.0675 -0.6881
 7841TIP3   OH245013   4.400   2.046  16.653  0.0318  0.2172 -0.4513
 7841TIP3    H145014   4.491   2.041  16.625 -0.9355 -0.0093 -4.0034
 7841TIP3    H245015   4.349   2.030  16.574 -3.1399  0.5290  1.3452
 7842TIP3   OH245016   2.765   4.181  12.142 -0.0310  0.2412 -0.1074
 7842TIP3    H145017   2.753   4.141  12.056  1.0048 -0.1518 -0.0821
 7842TIP3    H245018   2.716   4.263  12.137 -1.8462 -0.7931 -0.3085
 7843TIP3   OH245019   0.367   2.725  12.640 -0.4849 -0.1078  0.0276
 7843TIP3    H145020   0.347   2.816  12.662 -1.8813 -0.2403 -0.6370
 7843TIP3    H245021   0.347   2.717  12.547  1.7906 -0.5299 -0.4912
 7844TIP3   OH245022   2.657   0.757   3.454  0.2500  0.2745  0.4649
 7844TIP3    H145023   2.600   0.682   3.469 -0.6743  0.5395 -1.3987
 7844TIP3    H245024   2.705   0.736   3.375  1.2399  0.9384  0.8720
 7845TIP3   OH245025   1.682   2.765  11.911 -0.4243 -0.5807  0.4102
 7845TIP3    H145026   1.621   2.748  11.982 -0.0159 -0.4108  0.8049
 7845TIP3    H245027   1.755   2.706  11.926  0.7737  1.0754  1.5171
 7846TIP3   OH245028   3.406   3.807   2.057  0.2590  0.2747 -0.1314
 7846TIP3    H145029   3.358   3.880   2.096 -0.3669  0.0657 -0.5008
 7846TIP3    H245030   3.494   3.813   2.096 -0.2714  0.2114  1.1092
 7847TIP3   OH245031   4.801   2.269   3.152  0.0600 -0.3526 -0.4028
 7847TIP3    H145032   4.797   2.279   3.057 -0.9024 -1.4554 -0.4905
 7847TIP3    H245033   4.785   2.176   3.168 -1.4879  0.0887  0.9110
 7848TIP3   OH245034   2.027   1.195  13.895  0.0515 -0.0369  0.1477
 7848TIP3    H145035   2.025   1.288  13.876 -1.7479 -0.3822 -1.7884
 7848TIP3    H245036   1.950   1.159  13.850  0.6215 -2.4482  0.8978
 7849TIP3   OH245037   2.018   0.706  11.952 -0.4936  0.1549 -0.4440
 7849TIP3    H145038   1.931   0.711  11.913 -0.2741 -0.0687 -0.9820
 7849TIP3    H245039   2.054   0.794  11.942 -0.8525  0.3828  0.2505
 7850TIP3   OH245040   1.362   4.869   0.767  0.0124 -0.4290 -0.3635
 7850TIP3    H145041   1.277   4.891   0.728  0.2955  1.7050  0.1203
 7850TIP3    H245042   1.398   4.953   0.795  3.6884 -0.8311 -3.2538
 7851TIP3   OH245043   1.996   5.603   2.449  0.2648  0.0527  0.7408
 7851TIP3    H145044   1.934   5.581   2.518  0.1388 -0.8451  0.3527
 7851TIP3    H245045   2.076   5.628   2.496  0.0028  0.0116  1.2181
 7852TIP3   OH245046   1.511   3.176   2.557 -0.1915 -0.0149  1.5010
 7852TIP3    H145047   1.562   3.139   2.485 -0.3682  0.5390  1.0844
 7852TIP3    H245048   1.546   3.134   2.635 -1.5968 -2.4632  0.9230
 7853TIP3   OH245049   2.744   4.864   6.008  0.2552 -0.5786 -0.2630
 7853TIP3    H145050   2.681   4.829   6.070 -0.4535  0.0013 -0.6484
 7853TIP3    H245051   2.736   4.959   6.016  2.2116 -0.4484  0.8352
 7854TIP3   OH245052   5.230   0.785   5.813  0.3766 -0.1284  0.5705
 7854TIP3    H145053   5.321   0.813   5.803  1.6009 -2.9009  2.6822
 7854TIP3    H245054   5.190   0.856   5.864  2.0135  0.1365  1.5915
 7855TIP3   OH245055   1.888   4.246  12.894 -0.5212 -0.3114  0.1216
 7855TIP3    H145056   1.814   4.233  12.954  1.5154 -0.3611  2.8093
 7855TIP3    H245057   1.940   4.166  12.904 -0.2473 -0.4475 -2.0322
 7856TIP3   OH245058   2.555   3.613   2.119  0.6362 -0.3071 -0.1955
 7856TIP3    H145059   2.507   3.530   2.118 -0.2949  0.0932  2.3766
 7856TIP3    H245060   2.626   3.598   2.182  0.8856  0.6335 -0.2351
 7857TIP3   OH245061   3.103   5.172   4.349 -0.2604 -0.0848 -0.3114
 7857TIP3    H145062   3.080   5.263   4.365  0.8116  0.6787 -2.6270
 7857TIP3    H245063   3.032   5.139   4.294 -0.5036 -0.5648  0.2855
 7858TIP3   OH245064   1.001   4.389  11.789 -0.5047  0.5852 -0.6945
 7858TIP3    H145065   1.062   4.433  11.847 -1.7105  2.0079 -0.4428
 7858TIP3    H245066   0.916   4.426  11.811 -0.9989  1.3434 -3.4656
 7859TIP3   OH245067   5.544   1.944  11.920 -0.2279  0.6631 -0.2784
 7859TIP3    H145068   5.500   1.916  11.839 -0.2994 -0.5342  0.1575
 7859TIP3    H245069   5.637   1.938  11.900 -0.2426  0.0911 -0.1880
 7860TIP3   OH245070   4.466   6.715   1.724 -0.0623 -0.2449  0.0189
 7860TIP3    H145071   4.428   6.703   1.811 -0.3060  0.3424 -0.0026
 7860TIP3    H245072   4.542   6.771   1.738 -0.1450 -0.0877 -0.1550
 7861TIP3   OH245073   3.264   0.875  13.024  0.1716  0.2619  0.7394
 7861TIP3    H145074   3.234   0.788  12.999  0.7199  0.1764  0.3454
 7861TIP3    H245075   3.279   0.871  13.118 -0.2832  0.0752  0.8004
 7862TIP3   OH245076   1.795   3.756  17.100 -0.2846  0.0160  0.3734
 7862TIP3    H145077   1.727   3.821  17.120 -0.7984 -0.8337  1.4972
 7862TIP3    H245078   1.805   3.707  17.181  0.3009 -1.1350 -0.3750
 7863TIP3   OH245079   1.691   4.858   1.438 -0.1462  0.5519 -1.0064
 7863TIP3    H145080   1.601   4.828   1.445 -0.2186  1.1834  1.6246
 7863TIP3    H245081   1.741   4.799   1.495  0.8464  1.2123 -1.1624
 7864TIP3   OH245082   5.510   1.508  11.777  0.0854  0.2485  0.7395
 7864TIP3    H145083   5.521   1.501  11.872 -1.4650  1.0303  1.0119
 7864TIP3    H245084   5.535   1.422  11.743  0.4540 -0.1068  1.8723
 7865TIP3   OH245085   2.605   4.848   3.421 -0.5875  0.0243  0.2642
 7865TIP3    H145086   2.576   4.782   3.484  0.4697  1.5990  2.5107
 7865TIP3    H245087   2.701   4.847   3.428 -0.2018 -1.5339 -3.2807
 7866TIP3   OH245088   4.984   6.572  14.944  0.0033  0.1903 -0.3700
 7866TIP3    H145089   5.079   6.565  14.958 -0.1343  1.8292  2.0419
 7866TIP3    H245090   4.974   6.643  14.881  0.3697  0.1528 -0.4738
 7867TIP3   OH245091   2.151   1.206  16.375  0.3878  0.0261  0.0619
 7867TIP3    H145092   2.154   1.281  16.435  0.2074  0.8152 -0.9018
 7867TIP3    H245093   2.060   1.177  16.378  0.1778  0.6273 -0.5142
 7868TIP3   OH245094   0.506   5.207  10.363  0.9034 -0.6213 -0.0386
 7868TIP3    H145095   0.478   5.225  10.453  0.2138 -2.2775  0.1087
 7868TIP3    H245096   0.500   5.292  10.319 -0.5276 -0.1285  1.0257
 7869TIP3   OH245097   6.399   6.437   0.191  0.2747 -0.6966 -0.1421
 7869TIP3    H145098   6.419   6.454   0.283  1.2329 -2.4292  0.0192
 7869TIP3    H245099   6.473   6.475   0.143  0.8135 -1.5451 -0.0155
 7870TIP3   OH245100   1.387   1.969   0.121 -0.1365  0.3899 -0.1181
 7870TIP3    H145101   1.403   2.044   0.064 -0.4616 -0.2359 -1.0418
 7870TIP3    H245102   1.293   1.973   0.140 -0.4506 -0.6071 -1.3683
 7871TIP3   OH245103   1.129   3.402   1.342 -0.5011 -0.2954 -0.2142
 7871TIP3    H145104   1.198   3.469   1.339 -0.8063  0.0075 -0.5485
 7871TIP3    H245105   1.162   3.337   1.404 -0.6601  0.6717  0.9236
 7872TIP3   OH245106   2.825   4.132   1.340  0.9503 -0.5155 -0.0689
 7872TIP3    H145107   2.893   4.130   1.273  1.2744  0.1879  0.2272
 7872TIP3    H245108   2.836   4.217   1.383  0.8820 -1.0191  1.0028
 7873TIP3   OH245109   1.667   2.943  12.264 -0.1562 -0.6143  0.2069
 7873TIP3    H145110   1.638   2.981  12.347  0.2877  0.1161  0.0439
 7873TIP3    H245111   1.618   2.992  12.198 -0.3814 -1.0747  0.0350
 7874TIP3   OH245112   4.332   3.667  14.671 -0.3912  0.0157 -0.5283
 7874TIP3    H145113   4.245   3.631  14.653 -0.6217 -0.3093  1.0290
 7874TIP3    H245114   4.335   3.674  14.767  0.5563  1.9270 -0.6534
 7875TIP3   OH245115   0.426   4.330  13.830 -0.0892 -0.5580 -0.4298
 7875TIP3    H145116   0.383   4.278  13.897 -2.7299  0.1240 -1.4892
 7875TIP3    H245117   0.376   4.411  13.825  0.6190 -0.1801 -2.5411
 7876TIP3   OH245118   2.771   3.556   2.318  0.0574 -0.5217 -0.4823
 7876TIP3    H145119   2.797   3.619   2.385 -0.9570 -0.4007 -0.1827
 7876TIP3    H245120   2.797   3.471   2.355 -1.7230 -0.5945  0.7334
 7877TIP3   OH245121   5.538   1.666  13.873 -0.2417  0.1317 -0.9804
 7877TIP3    H145122   5.551   1.740  13.932  0.1859 -0.3150 -0.5128
 7877TIP3    H245123   5.594   1.597  13.908 -0.1775 -0.2200 -1.7650
 7878TIP3   OH245124   5.103   4.990   5.800 -0.5222 -0.0881  0.3999
 7878TIP3    H145125   5.069   4.930   5.867 -0.2268  0.1908  0.8092
 7878TIP3    H245126   5.187   5.019   5.835  0.2042 -0.8536 -0.6498
 7879TIP3   OH245127   1.390   4.712  14.249  0.5615  0.1845  0.0463
 7879TIP3    H145128   1.404   4.620  14.274  0.3450  0.4517  1.2447
 7879TIP3    H245129   1.322   4.708  14.182 -0.6180 -0.4526  1.2301
 7880TIP3   OH245130   4.448   3.733  16.745 -0.5999  0.1073  0.3514
 7880TIP3    H145131   4.466   3.682  16.824 -2.0871 -1.5086 -0.3182
 7880TIP3    H245132   4.434   3.822  16.778 -0.1859 -0.3218  1.7884
 7881TIP3   OH245133   2.318   3.311   0.797  0.2047  0.3464  0.5849
 7881TIP3    H145134   2.243   3.269   0.755  0.9449 -0.0308 -0.4188
 7881TIP3    H245135   2.369   3.238   0.833  1.6155  0.2796 -1.3659
 7882TIP3   OH245136   1.924   5.992   4.034  0.1424 -0.5068  0.0583
 7882TIP3    H145137   1.943   6.074   4.080  0.2340 -1.1439  1.2211
 7882TIP3    H245138   1.931   5.925   4.103  0.1653 -1.4941 -0.8845
 7883TIP3   OH245139   5.650   2.549  13.578  0.4293  0.2723  0.3528
 7883TIP3    H145140   5.667   2.637  13.612 -1.3338  0.4670  0.8138
 7883TIP3    H245141   5.666   2.491  13.652  0.4515  0.3134  0.3805
 7884TIP3   OH245142   2.583   1.603  11.053  0.1172  0.1988  0.3976
 7884TIP3    H145143   2.569   1.697  11.064  1.2622  0.2387  1.8244
 7884TIP3    H245144   2.665   1.597  11.003  0.2959 -0.0398  0.7204
 7885TIP3   OH245145   6.718   4.121   2.695 -0.5321  0.1723 -0.2276
 7885TIP3    H145146   6.657   4.117   2.769  1.3577 -2.3709  1.3857
 7885TIP3    H245147   6.700   4.041   2.645  0.6719 -0.0281 -0.3625
 7886TIP3   OH245148   6.326   4.688  15.245  0.5791  0.2245  0.1677
 7886TIP3    H145149   6.389   4.620  15.271 -0.6094 -0.5059  1.2682
 7886TIP3    H245150   6.379   4.767  15.232  1.8773 -0.6918 -0.2792
 7887TIP3   OH245151   4.456   5.398   2.404 -0.4028 -0.5743 -0.4750
 7887TIP3    H145152   4.377   5.430   2.448 -0.5407  2.5357 -2.6810
 7887TIP3    H245153   4.506   5.354   2.474 -2.9774 -0.6198  1.4821
 7888TIP3   OH245154   2.168   3.335   5.462 -0.1026 -0.4498 -0.2375
 7888TIP3    H145155   2.110   3.408   5.484  1.7187  0.7429  0.8553
 7888TIP3    H245156   2.158   3.274   5.535 -0.4727 -0.5754 -0.3899
 7889TIP3   OH245157   6.187   4.484  15.479 -0.3029  0.3447  0.0568
 7889TIP3    H145158   6.213   4.557  15.423 -0.3241 -0.1244 -0.5645
 7889TIP3    H245159   6.270   4.439  15.499 -0.5424 -0.9233 -1.6072
 7890TIP3   OH245160   2.667   5.906   5.658  0.2550 -0.3089  0.1471
 7890TIP3    H145161   2.583   5.868   5.685 -0.5135  1.0982 -0.1411
 7890TIP3    H245162   2.707   5.839   5.603  0.6817 -2.1811  2.5919
 7891TIP3   OH245163   0.824   3.693   5.191 -0.4119 -0.2104  0.8711
 7891TIP3    H145164   0.788   3.759   5.131  1.0801  0.4745  0.6882
 7891TIP3    H245165   0.916   3.687   5.167 -0.3985 -1.9916  1.2596
 7892TIP3   OH245166   1.664   4.591  15.619  0.0142  0.3256 -0.1024
 7892TIP3    H145167   1.737   4.622  15.672  0.3939  0.7038 -0.8210
 7892TIP3    H245168   1.689   4.614  15.529 -1.4416  1.3646 -0.2611
 7893TIP3   OH245169   1.179   3.691  11.494 -0.5298 -0.9067  0.0117
 7893TIP3    H145170   1.212   3.613  11.540 -0.7988 -0.0606  1.7554
 7893TIP3    H245171   1.149   3.658  11.410  0.5860 -2.4612  0.1614
 7894TIP3   OH245172   4.263   6.345  15.134  0.5474  0.9069 -0.4371
 7894TIP3    H145173   4.202   6.297  15.078  0.2023  1.2165 -0.3280
 7894TIP3    H245174   4.233   6.436  15.131  2.4003  1.5602 -2.3342
 7895TIP3   OH245175   0.171   2.541   2.755 -0.5274 -0.0617  0.0344
 7895TIP3    H145176   0.219   2.483   2.814 -3.1210 -1.5308  0.8777
 7895TIP3    H245177   0.203   2.518   2.668 -0.3320 -1.6539  0.4904
 7896TIP3   OH245178   1.452   2.800   5.141  0.3132 -0.5802  0.2781
 7896TIP3    H145179   1.398   2.817   5.064 -3.0266  0.9542  2.7188
 7896TIP3    H245180   1.423   2.715   5.173  0.7264 -0.6138  0.5748
 7897TIP3   OH245181   2.885   4.796   3.452  0.0370 -0.1917  0.0847
 7897TIP3    H145182   2.904   4.729   3.518 -1.9416 -1.1601 -0.2416
 7897TIP3    H245183   2.969   4.813   3.409  0.7819 -1.7113  0.8827
 7898TIP3   OH245184   0.379   4.730   2.367 -0.0885 -0.1447  0.1997
 7898TIP3    H145185   0.350   4.646   2.402 -0.1018 -0.2742 -0.1196
 7898TIP3    H245186   0.464   4.745   2.407 -0.6619  0.3148  1.2757
 7899TIP3   OH245187   5.674   2.356   2.948 -0.0843  0.5514  0.0822
 7899TIP3    H145188   5.607   2.304   2.992  0.4938 -1.3723 -1.2027
 7899TIP3    H245189   5.734   2.382   3.018  1.0272 -2.7403  0.5078
 7900TIP3   OH245190   5.703   6.276  15.741 -0.5726 -0.3294  0.0689
 7900TIP3    H145191   5.769   6.345  15.748 -1.2641  0.2521  1.0062
 7900TIP3    H245192   5.690   6.245  15.830 -1.9493 -0.0709 -0.0170
 7901TIP3   OH245193   4.560   2.547   1.123  0.3768 -0.1367 -0.1345
 7901TIP3    H145194   4.520   2.610   1.182  0.9318 -0.8844  1.0706
 7901TIP3    H245195   4.617   2.600   1.066 -0.7627  0.6786 -0.5545
 7902TIP3   OH245196   0.832   5.314  11.266  0.4983 -0.1263 -0.1105
 7902TIP3    H145197   0.817   5.320  11.172 -0.9664 -0.7544  0.0489
 7902TIP3    H245198   0.765   5.371  11.305  1.1973  0.2664  0.5451
 7903TIP3   OH245199   5.153   2.281   2.501  0.8883 -0.5737 -0.2953
 7903TIP3    H145200   5.143   2.197   2.547 -0.5403 -0.1143  0.2788
 7903TIP3    H245201   5.074   2.330   2.524  2.3336  1.4873  0.5303
 7904TIP3   OH245202   5.510   0.949  13.251 -0.4017 -0.1392  0.9818
 7904TIP3    H145203   5.529   0.941  13.345 -0.0967 -1.1002  0.8408
 7904TIP3    H245204   5.595   0.943  13.208 -0.5410  0.2913  0.6293
 7905TIP3   OH245205   5.685   4.573  12.144 -0.4652  0.0102  0.2386
 7905TIP3    H145206   5.633   4.551  12.067  0.8489 -1.0678 -0.3841
 7905TIP3    H245207   5.750   4.636  12.112 -0.8484  0.7137  0.8174
 7906TIP3   OH245208   0.368   5.651  15.474 -0.2256  0.0539 -0.3908
 7906TIP3    H145209   0.457   5.645  15.439 -0.6828  0.7572 -1.7802
 7906TIP3    H245210   0.354   5.568  15.519  1.3221  0.1660  0.3334
 7907TIP3   OH245211   2.246   2.205  15.764 -0.1438  0.0980  0.1950
 7907TIP3    H145212   2.280   2.165  15.684 -0.9826  0.9743 -0.6337
 7907TIP3    H245213   2.160   2.238  15.739 -1.4340 -1.5632  2.0513
 7908TIP3   OH245214   1.813   6.531  13.393  0.1578 -0.1782 -0.1945
 7908TIP3    H145215   1.861   6.591  13.336  0.1222 -0.0970 -0.1389
 7908TIP3    H245216   1.816   6.573  13.479  0.1515 -0.2663 -0.1519
 7909TIP3   OH245217   3.634   1.360   5.576  0.2291  0.2533 -0.0075
 7909TIP3    H145218   3.686   1.400   5.646  0.5272  1.3021 -0.7930
 7909TIP3    H245219   3.585   1.433   5.538 -1.1040 -0.5631  0.1003
 7910TIP3   OH245220   6.551   0.052  15.144  0.4513 -0.1436  0.2023
 7910TIP3    H145221   6.569   0.106  15.067 -1.2754  2.0704  1.2327
 7910TIP3    H245222   6.619   0.077  15.207  0.8194 -0.6691  0.0246
 7911TIP3   OH245223   4.752   2.713   2.315  0.4993 -0.1835 -0.1555
 7911TIP3    H145224   4.844   2.689   2.332 -0.2135 -2.8798  0.3710
 7911TIP3    H245225   4.707   2.693   2.397 -1.0510 -1.8876 -1.3519
 7912TIP3   OH245226   4.733   6.192  16.783  0.2768 -0.5170 -0.5808
 7912TIP3    H145227   4.749   6.220  16.873  0.2971 -1.6387 -0.2145
 7912TIP3    H245228   4.723   6.273  16.734  1.6898  0.1573  0.1659
 7913TIP3   OH245229   0.710   4.871  12.861 -0.1599  0.6169  0.5089
 7913TIP3    H145230   0.761   4.806  12.812 -0.9830 -0.7111  1.3261
 7913TIP3    H245231   0.773   4.938  12.886  0.8493 -0.1651  0.1167
 7914TIP3   OH245232   0.096   1.780  16.401 -0.1383  0.0665  0.7791
 7914TIP3    H145233   0.073   1.718  16.470 -0.5459  0.3577  0.9100
 7914TIP3    H245234   0.080   1.731  16.320 -0.7391  0.0884  0.8760
 7915TIP3   OH245235   1.219   1.623   3.009 -0.0200  0.4847  0.0252
 7915TIP3    H145236   1.137   1.672   3.004 -1.1426 -1.1292  1.3504
 7915TIP3    H245237   1.212   1.575   3.091  1.7697 -0.5647 -0.3967
 7916TIP3   OH245238   6.281   1.283   6.319 -0.2502 -0.1851 -0.1848
 7916TIP3    H145239   6.270   1.201   6.368 -1.2590  0.7136  1.1439
 7916TIP3    H245240   6.341   1.335   6.372 -0.2696  0.2666 -0.6014
 7917TIP3   OH245241   4.393   2.231   4.924 -0.3505 -0.4134 -0.0347
 7917TIP3    H145242   4.367   2.311   4.969  1.4478  0.3958 -0.3450
 7917TIP3    H245243   4.366   2.245   4.833  0.0186 -0.1318 -0.1010
 7918TIP3   OH245244   4.179   1.169  12.192 -0.3205  0.5034  0.0797
 7918TIP3    H145245   4.170   1.133  12.280 -2.3055  0.0127 -0.2856
 7918TIP3    H245246   4.121   1.116  12.138  1.3866  0.3361 -1.7043
 7919TIP3   OH245247   2.112   4.389   5.331 -0.0683 -0.3697 -0.2742
 7919TIP3    H145248   2.079   4.417   5.246 -0.2405 -2.5986 -1.0162
 7919TIP3    H245249   2.056   4.433   5.395 -0.9146  0.1701 -1.3617
 7920TIP3   OH245250   5.226   2.206  17.016 -0.0706  0.2518  0.1976
 7920TIP3    H145251   5.240   2.297  17.043  1.4262  0.0680  0.1277
 7920TIP3    H245252   5.131   2.199  17.005 -0.1558  2.0757 -0.7315
 7921TIP3   OH245253   3.417   1.666   0.771  0.0042 -0.2576 -0.0799
 7921TIP3    H145254   3.493   1.634   0.821  0.7126 -0.2840 -1.1457
 7921TIP3    H245255   3.454   1.698   0.689 -1.2260 -0.8949 -0.9128
 7922TIP3   OH245256   3.384   4.064  12.969 -0.1077  0.0587  0.3323
 7922TIP3    H145257   3.438   4.077  13.047 -1.8583  0.7727  1.4972
 7922TIP3    H245258   3.376   3.969  12.960  0.3008 -0.0321  0.9062
 7923TIP3   OH245259   1.137   5.820   3.602 -0.9685  0.2602  0.4615
 7923TIP3    H145260   1.135   5.834   3.697  0.0780  1.0292  0.3854
 7923TIP3    H245261   1.203   5.752   3.590  0.8966  2.0421  0.1115
 7924TIP3   OH245262   1.873   1.560   3.898 -0.4044 -0.6054  0.0040
 7924TIP3    H145263   1.935   1.632   3.895 -1.0361 -0.0045  0.9258
 7924TIP3    H245264   1.822   1.568   3.817 -0.0234 -0.4479 -0.2244
 7925TIP3   OH245265   0.791   6.676  12.083  0.0058  0.3737 -0.0121
 7925TIP3    H145266   0.762   6.708  11.997  0.4070  0.7496 -0.0126
 7925TIP3    H245267   0.742   6.595  12.096  1.8759 -1.2088 -1.8521
 7926TIP3   OH245268   0.462   1.203  13.321  0.0966 -0.0680  0.5157
 7926TIP3    H145269   0.551   1.235  13.337 -0.0097  0.1437  0.6749
 7926TIP3    H245270   0.405   1.277  13.342 -0.0738  0.0635 -0.3778
 7927TIP3   OH245271   5.493   1.532   3.570 -0.0071  0.5359 -0.1520
 7927TIP3    H145272   5.419   1.526   3.629  0.5886 -2.8883  0.4706
 7927TIP3    H245273   5.478   1.464   3.505  2.1036  0.3848 -0.5703
 7928TIP3   OH245274   5.621   5.691  15.630 -0.1104 -0.6763  0.3728
 7928TIP3    H145275   5.709   5.667  15.602  0.0204  1.0872 -0.8810
 7928TIP3    H245276   5.575   5.608  15.637  1.3040 -1.5412 -0.1724
 7929TIP3   OH245277   1.734   6.520  14.330 -0.6323  0.3297 -0.2447
 7929TIP3    H145278   1.687   6.458  14.274  0.0065  0.0001 -0.4284
 7929TIP3    H245279   1.666   6.581  14.360 -0.9478  0.7010 -1.6276
 7930TIP3   OH245280   2.456   6.553  13.402 -0.1504  0.0870  0.0576
 7930TIP3    H145281   2.519   6.575  13.470  0.3359  0.8366 -0.6147
 7930TIP3    H245282   2.501   6.489  13.346 -0.0809  0.4134 -0.2655
 7931TIP3   OH245283   0.951   2.135  12.379  0.3191 -0.2758 -0.0866
 7931TIP3    H145284   0.933   2.068  12.445  1.5319  0.3629  0.9298
 7931TIP3    H245285   1.010   2.093  12.317  0.1419 -0.5092 -0.0972
 7932TIP3   OH245286   1.407   0.093  11.620  0.0169  0.6249  0.1520
 7932TIP3    H145287   1.365   0.010  11.643  2.4207 -0.6196  0.3467
 7932TIP3    H245288   1.415   0.139  11.704  2.4685 -0.8731  0.8499
 7933TIP3   OH245289   4.711   0.897   2.309  0.3183 -0.1930  0.6006
 7933TIP3    H145290   4.662   0.897   2.391  1.5107  2.0022  1.4018
 7933TIP3    H245291   4.645   0.916   2.241 -0.3359  0.2589  1.3419
 7934TIP3   OH245292   2.162   4.491   1.640  0.1546  0.8819 -0.0194
 7934TIP3    H145293   2.092   4.518   1.579  0.4956 -0.7491 -1.1915
 7934TIP3    H245294   2.151   4.550   1.715 -1.4707  1.7256 -0.8412
 7935TIP3   OH245295   2.676   0.983  16.513  0.3595 -0.6074  0.4020
 7935TIP3    H145296   2.629   1.048  16.564  0.4929  0.6742 -1.0301
 7935TIP3    H245297   2.737   0.943  16.575 -1.9618 -1.7149  2.0801
 7936TIP3   OH245298   3.658   3.965  13.565  0.0541 -0.3630  0.0911
 7936TIP3    H145299   3.627   3.920  13.644 -1.7313  0.4341 -0.1143
 7936TIP3    H245300   3.590   3.948  13.500 -0.2028  1.8156 -0.2644
 7937TIP3   OH245301   1.000   3.140  15.719  0.2169  0.5101  0.1951
 7937TIP3    H145302   1.085   3.101  15.701  0.3312  0.6908  0.3424
 7937TIP3    H245303   1.016   3.234  15.719  0.1854  0.5172  1.0790
 7938TIP3   OH245304   1.934   5.460   0.129 -0.5618 -0.0636  0.5148
 7938TIP3    H145305   2.015   5.463   0.077  0.6449  1.1624  2.3463
 7938TIP3    H245306   1.912   5.367   0.133 -0.3697 -0.2552 -1.6330
 7939TIP3   OH245307   5.754   3.846   0.484  0.0725  0.2456 -0.1777
 7939TIP3    H145308   5.717   3.923   0.442 -1.2214 -0.4087 -0.2729
 7939TIP3    H245309   5.695   3.827   0.557  1.5875  0.6178  1.2087
 7940TIP3   OH245310   0.275   3.259  14.757 -0.2170  0.2606 -0.9567
 7940TIP3    H145311   0.240   3.172  14.738 -0.0573  0.4538 -2.2381
 7940TIP3    H245312   0.239   3.281  14.843 -0.5006 -0.9416 -0.7527
 7941TIP3   OH245313   4.720   3.350   3.131 -0.8835 -0.4657  0.6787
 7941TIP3    H145314   4.737   3.350   3.037 -0.1160 -2.6071  0.7688
 7941TIP3    H245315   4.626   3.330   3.138 -0.8257 -0.8800  0.3545
 7942TIP3   OH245316   3.476   6.586   0.463 -0.0382  0.0100 -0.3255
 7942TIP3    H145317   3.484   6.625   0.376  1.5383 -0.7361 -0.5488
 7942TIP3    H245318   3.385   6.602   0.488 -0.7786 -0.5310 -2.4828
 7943TIP3   OH245319   4.053   1.678  12.738  0.0141  0.0870  0.2227
 7943TIP3    H145320   4.016   1.596  12.705  3.4304 -1.5972  0.1619
 7943TIP3    H245321   4.061   1.664  12.832  1.6054 -0.1926  0.0825
 7944TIP3   OH245322   6.659   5.612   3.762  0.2723  0.6109 -0.2180
 7944TIP3    H145323   6.742   5.634   3.805  0.0776  0.7358  0.0983
 7944TIP3    H245324   6.627   5.695   3.727  0.3017  0.5544 -0.3834
 7945TIP3   OH245325   4.921   4.431   3.409  0.1612 -0.0831  0.3936
 7945TIP3    H145326   4.997   4.413   3.354 -0.4120 -2.5148  0.2871
 7945TIP3    H245327   4.898   4.522   3.390  1.0715 -0.3010 -2.0030
 7946TIP3   OH245328   3.609   5.527   4.563 -0.1690  0.6221 -0.6234
 7946TIP3    H145329   3.565   5.462   4.508  2.3993  0.5710 -2.8602
 7946TIP3    H245330   3.674   5.477   4.612  1.6789  1.3196 -2.1969
 7947TIP3   OH245331   2.038   0.577   4.037 -0.1040 -0.0941  0.0968
 7947TIP3    H145332   2.085   0.497   4.061 -0.1175  0.2698  1.4687
 7947TIP3    H245333   1.959   0.575   4.091 -0.8730  0.0933 -0.9992
 7948TIP3   OH245334   5.422   3.247  16.919 -0.2448  0.4431  0.1385
 7948TIP3    H145335   5.401   3.210  17.005 -0.3324  2.2646  0.9347
 7948TIP3    H245336   5.517   3.256  16.920 -0.3098  1.1334  0.3367
 7949TIP3   OH245337   2.351   0.104  15.476 -0.2996 -0.5394 -0.3005
 7949TIP3    H145338   2.281   0.052  15.436 -1.5773  1.2747 -0.5229
 7949TIP3    H245339   2.418   0.110  15.407  0.0967 -2.2186 -0.1093
 7950TIP3   OH245340   5.336   0.362   6.129 -0.4140  0.4461 -0.6663
 7950TIP3    H145341   5.377   0.416   6.196  0.7204 -0.5068 -0.5462
 7950TIP3    H245342   5.295   0.424   6.068  0.7695  1.4183 -0.4958
 7951TIP3   OH245343   1.651   5.601  14.427  0.3335 -0.1800 -0.0180
 7951TIP3    H145344   1.612   5.517  14.403 -0.8069  0.5858 -1.0277
 7951TIP3    H245345   1.588   5.666  14.394  1.9648  1.1011 -0.7474
 7952TIP3   OH245346   4.538   5.489   3.352  0.5204  0.2286  0.0676
 7952TIP3    H145347   4.603   5.418   3.347  0.2339 -0.2629  2.2010
 7952TIP3    H245348   4.559   5.535   3.433  0.1558  2.1001 -0.8378
 7953TIP3   OH245349   5.204   4.392  16.830 -0.5867  0.0812 -0.0247
 7953TIP3    H145350   5.112   4.381  16.854 -0.5643  1.8770  1.0820
 7953TIP3    H245351   5.252   4.347  16.899 -0.6150  1.3711  0.8672
 7954TIP3   OH245352   0.517   3.023   2.401  0.4692  0.4250  0.5501
 7954TIP3    H145353   0.425   2.999   2.413  1.0762 -1.2830  2.4337
 7954TIP3    H245354   0.539   3.075   2.478  1.3889 -0.2786  0.7821
 7955TIP3   OH245355   3.087   4.583  16.203 -0.7111 -0.0869  0.7586
 7955TIP3    H145356   3.103   4.511  16.141 -0.6678  0.8402 -0.3409
 7955TIP3    H245357   3.018   4.635  16.163  0.4775  1.4777  0.6353
 7956TIP3   OH245358   0.934   6.511   0.101 -0.0682  0.6671 -0.5862
 7956TIP3    H145359   0.886   6.581   0.143 -0.9035  1.5900 -2.9204
 7956TIP3    H245360   0.868   6.462   0.052  0.6721 -1.0903  0.0925
 7957TIP3   OH245361   3.190   4.087  16.232  0.1746 -0.3069  0.3120
 7957TIP3    H145362   3.253   4.145  16.187 -0.7007  0.7758  0.4411
 7957TIP3    H245363   3.179   4.126  16.318 -0.8535 -0.3358  0.2086
 7958TIP3   OH245364   2.501   2.556  12.037 -0.2426  0.7248 -0.0108
 7958TIP3    H145365   2.447   2.478  12.050 -0.5991  0.8569 -0.6375
 7958TIP3    H245366   2.512   2.592  12.125 -1.9243  1.1877  0.0381
 7959TIP3   OH245367   0.708   3.202  15.620 -0.1689  0.1805  0.1189
 7959TIP3    H145368   0.778   3.260  15.651 -1.7407  2.4187 -0.2817
 7959TIP3    H245369   0.687   3.235  15.533 -1.9832 -0.1517  0.3870
 7960TIP3   OH245370   1.424   5.523   0.114 -0.6595  0.4370  1.0275
 7960TIP3    H145371   1.509   5.504   0.075 -1.5651 -0.3062 -0.7199
 7960TIP3    H245372   1.412   5.454   0.180 -0.4289 -0.2055  0.4131
 7961TIP3   OH245373   3.728   6.424   4.469 -0.0289  0.6160  0.0921
 7961TIP3    H145374   3.763   6.342   4.505 -0.3698  0.5597  0.2920
 7961TIP3    H245375   3.634   6.410   4.465 -0.0074  0.6570 -0.7378
 7962TIP3   OH245376   5.812   5.594  11.113  0.0224  0.9055  0.0274
 7962TIP3    H145377   5.825   5.686  11.138 -0.5510  0.8074  0.7327
 7962TIP3    H245378   5.718   5.587  11.099 -0.1215  0.1234  1.2587
 7963TIP3   OH245379   5.072   1.080   3.885 -0.4302  0.2675  0.3427
 7963TIP3    H145380   5.165   1.103   3.879  0.0697 -1.8024 -0.6887
 7963TIP3    H245381   5.040   1.082   3.795 -1.3462  0.7022  0.6608
 7964TIP3   OH245382   3.085   6.816   2.843 -0.6848  0.0741 -0.4116
 7964TIP3    H145383   3.057   6.768   2.765  0.3612 -2.5250  0.7072
 7964TIP3    H245384   3.026   6.785   2.912  0.3770 -0.0145  0.4712
 7965TIP3   OH245385   0.264   1.733  13.653 -0.0897  0.0257 -0.1271
 7965TIP3    H145386   0.314   1.732  13.571 -0.6170 -1.8118 -0.4770
 7965TIP3    H245387   0.179   1.771  13.628  0.5038  1.5900  0.1071
 7966TIP3   OH245388   1.858   4.179  14.797 -0.1365 -0.2456 -0.3863
 7966TIP3    H145389   1.783   4.158  14.852  1.9781  0.2146  2.9403
 7966TIP3    H245390   1.863   4.275  14.798  0.1410 -0.2437 -1.1331
 7967TIP3   OH245391   4.062   0.654  14.946 -0.0676 -0.3097 -0.4473
 7967TIP3    H145392   3.979   0.608  14.959 -0.0774 -0.6049 -1.4967
 7967TIP3    H245393   4.048   0.739  14.988 -1.9115  0.7094 -2.9043
 7968TIP3   OH245394   6.857   3.874  15.539 -0.3906  0.1781 -0.0822
 7968TIP3    H145395   6.815   3.895  15.455 -1.2754  1.4176  0.6367
 7968TIP3    H245396   6.801   3.806  15.578  0.7016 -1.3167 -0.9933
 7969TIP3   OH245397   3.765   4.262   4.754  0.2210  0.4479 -0.2666
 7969TIP3    H145398   3.799   4.176   4.781 -1.7468 -0.2772  0.0393
 7969TIP3    H245399   3.732   4.301   4.835  0.2750  1.1200 -0.5629
 7970TIP3   OH245400   1.464   0.551   5.839  0.9050 -0.3020  0.1513
 7970TIP3    H145401   1.398   0.535   5.907 -0.0418 -2.0266 -1.0962
 7970TIP3    H245402   1.473   0.468   5.794  2.4651  0.4544 -1.0355
 7971TIP3   OH245403   1.712   6.132  14.239  0.6069 -0.5334 -0.7836
 7971TIP3    H145404   1.750   6.044  14.238  1.1245 -0.3106 -1.7039
 7971TIP3    H245405   1.685   6.145  14.329  0.9248 -1.4725 -0.5405
 7972TIP3   OH245406   0.275   0.675  11.994 -0.3655  0.0990  0.3232
 7972TIP3    H145407   0.317   0.752  11.956 -0.3773  0.4408  0.9846
 7972TIP3    H245408   0.297   0.604  11.934 -0.2664  0.5951 -0.2405
 7973TIP3   OH245409   3.991   6.367   1.896 -0.7954 -0.0133  0.4164
 7973TIP3    H145410   4.000   6.453   1.854  0.9587 -0.3741 -0.0208
 7973TIP3    H245411   3.991   6.305   1.823  2.9422 -0.7009  0.8057
 7974TIP3   OH245412   3.135   4.772   1.486 -0.0687 -0.2624  0.0082
 7974TIP3    H145413   3.076   4.727   1.425 -0.9552  1.3048 -0.3261
 7974TIP3    H245414   3.080   4.792   1.562  0.5619 -0.5309  0.5492
 7975TIP3   OH245415   6.517   3.868   4.998  0.1638  0.5211  0.2772
 7975TIP3    H145416   6.425   3.893   4.987  0.0711 -0.7877 -2.8964
 7975TIP3    H245417   6.566   3.947   4.978 -0.2580  0.6464 -0.2896
 7976TIP3   OH245418   6.669   1.956  10.852 -0.6247  0.1467 -0.1849
 7976TIP3    H145419   6.702   1.882  10.802  0.3274 -0.3074  1.0661
 7976TIP3    H245420   6.742   2.019  10.851 -0.9106  0.4800 -0.0611
 7977TIP3   OH245421   5.377   6.474   1.138 -0.7737  0.0091 -0.4157
 7977TIP3    H145422   5.443   6.428   1.087 -1.0424 -0.3033 -0.4886
 7977TIP3    H245423   5.301   6.479   1.080 -1.3843 -1.1482  0.2560
 7978TIP3   OH245424   5.123   1.617  14.505  0.1305 -0.1758  0.5219
 7978TIP3    H145425   5.198   1.612  14.564  2.2047 -0.1622 -1.9172
 7978TIP3    H245426   5.116   1.528  14.468  0.4237  0.3666 -0.9110
 7979TIP3   OH245427   3.767   4.392  11.530  0.5184 -0.1708 -0.1136
 7979TIP3    H145428   3.831   4.461  11.509  0.7939 -0.6185 -0.7592
 7979TIP3    H245429   3.773   4.331  11.458  0.1750 -0.8163  0.3962
 7980TIP3   OH245430   2.130   4.479  12.729  0.3590 -0.0330  0.1873
 7980TIP3    H145431   2.066   4.532  12.681 -0.5033  0.0067  1.3237
 7980TIP3    H245432   2.196   4.456  12.664  0.3630  1.7925 -0.5310
 7981TIP3   OH245433   0.162   3.694  14.191  0.1176 -0.3992  0.0718
 7981TIP3    H145434   0.143   3.728  14.278 -2.8647 -1.5846 -0.0247
 7981TIP3    H245435   0.198   3.769  14.143  1.4329  0.3694  2.1404
 7982TIP3   OH245436   6.344   4.346  13.073 -0.0688  0.3686 -0.4342
 7982TIP3    H145437   6.289   4.380  13.002 -1.6284 -0.9983  0.0584
 7982TIP3    H245438   6.359   4.254  13.049 -2.3188 -0.7304  1.8878
 7983TIP3   OH245439   0.568   4.965  14.214  0.4348 -0.2171 -0.9114
 7983TIP3    H145440   0.473   4.959  14.203  0.3594 -0.0725 -0.3877
 7983TIP3    H245441   0.603   4.897  14.156 -0.0172 -0.6168 -0.7290
 7984TIP3   OH245442   3.850   2.552  11.325 -0.4063  0.0852  0.0403
 7984TIP3    H145443   3.762   2.529  11.297 -0.9646  2.0261  0.0204
 7984TIP3    H245444   3.845   2.553  11.421 -0.6128  0.7952  0.0339
 7985TIP3   OH245445   1.859   5.562  15.512  0.1810  0.0557 -0.0013
 7985TIP3    H145446   1.919   5.491  15.488 -1.1103 -1.2085  0.3824
 7985TIP3    H245447   1.885   5.635  15.456  1.8148 -0.5736 -0.1278
 7986TIP3   OH245448   5.689   6.527  14.238  0.4966  0.4375 -0.1037
 7986TIP3    H145449   5.623   6.487  14.181  0.9775 -0.1680 -0.2511
 7986TIP3    H245450   5.681   6.621  14.221 -1.3002  0.5136  0.9417
 7987TIP3   OH245451   2.807   2.382  16.116 -0.0788 -0.5615 -0.3768
 7987TIP3    H145452   2.850   2.413  16.036 -0.5416  0.1001 -0.3759
 7987TIP3    H245453   2.713   2.386  16.096 -0.5147  3.7854  1.5957
 7988TIP3   OH245454   1.678   1.738  15.028  0.3543  0.5539 -0.3179
 7988TIP3    H145455   1.755   1.751  14.973 -0.1031  0.4882 -0.9822
 7988TIP3    H245456   1.604   1.750  14.968 -0.1392 -1.4925 -0.1660
 7989TIP3   OH245457   6.128   0.937  14.382 -0.5455 -0.4670 -0.5172
 7989TIP3    H145458   6.082   0.854  14.370 -0.3934 -0.5802 -0.3263
 7989TIP3    H245459   6.117   0.957  14.475 -1.1174  0.0466 -0.6959
 7990TIP3   OH245460   0.634   4.651  14.120 -0.1935  0.3071 -0.3285
 7990TIP3    H145461   0.639   4.641  14.024 -0.1074  1.6786 -0.4937
 7990TIP3    H245462   0.691   4.582  14.154  0.6692  0.4900 -1.3149
 7991TIP3   OH245463   6.318   0.557   1.642 -0.0455 -0.0978 -0.2270
 7991TIP3    H145464   6.336   0.556   1.736  0.5058  1.0947 -0.3040
 7991TIP3    H245465   6.248   0.492   1.631 -0.1620 -0.2163  1.0076
 7992TIP3   OH245466   5.039   5.093  16.285  0.3138  0.1691 -0.2886
 7992TIP3    H145467   5.134   5.085  16.295  0.1066  0.8515  4.4130
 7992TIP3    H245468   5.003   5.034  16.351 -2.6107  0.1174 -1.7562
 7993TIP3   OH245469   2.806   4.321   0.992  0.3900  0.5096 -0.2210
 7993TIP3    H145470   2.892   4.336   1.033 -0.0072  0.2591  0.7445
 7993TIP3    H245471   2.809   4.229   0.963  0.9622  0.9152 -1.5043
 7994TIP3   OH245472   5.068   1.174   5.137  0.6660 -0.0220  0.3759
 7994TIP3    H145473   5.025   1.186   5.222  0.5593  1.6725  0.1002
 7994TIP3    H245474   5.139   1.237   5.136  1.9360 -1.3963 -0.0215
 7995TIP3   OH245475   0.008   2.276   1.647  0.3240 -0.1324 -0.6502
 7995TIP3    H145476  -0.016   2.234   1.729  1.1709 -0.0370 -0.3390
 7995TIP3    H245477   0.104   2.270   1.644  0.3935  0.8935 -1.0682
 7996TIP3   OH245478   6.084   4.255  12.270 -0.9077 -0.5259  0.6637
 7996TIP3    H145479   6.041   4.169  12.271 -1.9443 -0.0672 -0.7713
 7996TIP3    H245480   6.149   4.248  12.200 -1.8379  0.2159 -0.2987
 7997TIP3   OH245481   4.388   6.846  13.343 -0.6533 -0.2427 -0.1648
 7997TIP3    H145482   4.434   6.764  13.328 -0.6697 -0.1475 -0.7293
 7997TIP3    H245483   4.399   6.896  13.263 -0.4508  0.4037  0.2569
 7998TIP3   OH245484   3.433   4.758   2.577 -0.2163  0.0659  0.3955
 7998TIP3    H145485   3.418   4.791   2.666  0.5472 -1.9113  1.3343
 7998TIP3    H245486   3.505   4.811   2.543  0.9749 -0.5440  1.8372
 7999TIP3   OH245487   6.444   4.143  15.310 -0.2809  0.2120 -0.1683
 7999TIP3    H145488   6.422   4.181  15.395 -0.8874  1.9821 -1.0622
 7999TIP3    H245489   6.383   4.070  15.298  1.0748 -1.3418  1.7041
 8000TIP3   OH245490   1.258   2.247  10.557 -0.0487 -0.1919 -0.0736
 8000TIP3    H145491   1.189   2.292  10.509  0.6436 -0.0325 -0.9433
 8000TIP3    H245492   1.248   2.155  10.533 -0.2609 -0.2338  0.1789
 8001TIP3   OH245493   0.394   1.733   3.566 -0.1215 -0.6510 -0.2948
 8001TIP3    H145494   0.481   1.753   3.531 -0.7179 -1.0817 -2.1524
 8001TIP3    H245495   0.394   1.771   3.653  1.4676  0.5407 -0.7647
 8002TIP3   OH245496   3.590   2.774   6.438  0.1048 -0.0753  0.2554
 8002TIP3    H145497   3.501   2.748   6.462  0.2102 -0.9549 -0.2695
 8002TIP3    H245498   3.580   2.816   6.353  0.1681 -0.0149  0.2781
 8003TIP3   OH245499   0.889   2.435  12.416  0.0678  0.1792 -0.2962
 8003TIP3    H145500   0.831   2.485  12.474  1.3489  0.5075  0.7643
 8003TIP3    H245501   0.855   2.345  12.419 -1.0635  0.5784 -0.6357
 8004TIP3   OH245502   6.575   3.866  16.941  1.1806 -0.1739  0.0131
 8004TIP3    H145503   6.482   3.879  16.961  0.8678 -1.5421 -0.4396
 8004TIP3    H245504   6.619   3.940  16.983 -0.1483  0.7277 -0.1277
 8005TIP3   OH245505   0.702   4.072   4.880  0.1794 -0.0093 -0.4311
 8005TIP3    H145506   0.729   4.103   4.794  2.6069 -1.0008 -0.1073
 8005TIP3    H245507   0.721   4.145   4.939  1.4827 -0.4065 -0.3301
 8006TIP3   OH245508   5.325   0.840   1.969  0.5472  0.0105 -0.7738
 8006TIP3    H145509   5.303   0.807   2.056 -2.2478  0.2038 -1.3037
 8006TIP3    H245510   5.338   0.761   1.916 -3.7062 -0.4452 -1.4693
 8007TIP3   OH245511   5.144   5.500   1.708 -0.2444 -0.7866 -0.0081
 8007TIP3    H145512   5.125   5.406   1.697 -1.3258 -0.3578 -2.1644
 8007TIP3    H245513   5.074   5.531   1.765 -1.1068 -0.9182 -0.9621
 8008TIP3   OH245514   0.546   5.334   2.763 -0.0380  0.0752 -0.1358
 8008TIP3    H145515   0.504   5.292   2.688 -0.8929  0.6969 -0.0149
 8008TIP3    H245516   0.487   5.317   2.836  0.8769 -0.6842  0.4545
 8009TIP3   OH245517   1.919   3.936   6.482  0.4611  0.1127 -0.0564
 8009TIP3    H145518   1.900   3.843   6.499 -2.3891  0.2118 -1.9488
 8009TIP3    H245519   1.874   3.983   6.552  1.1261  0.1199  0.3745
 8010TIP3   OH245520   2.907   1.453  14.949  0.7134  0.3110  0.6244
 8010TIP3    H145521   2.879   1.396  15.021  0.1488 -0.5386 -0.2505
 8010TIP3    H245522   2.826   1.494  14.918  0.4420 -1.6595 -1.4947
 8011TIP3   OH245523   2.656   2.902  14.311 -0.3125  0.1489 -0.2735
 8011TIP3    H145524   2.585   2.964  14.332 -0.8532 -1.0070  1.5738
 8011TIP3    H245525   2.730   2.933  14.363 -0.2746 -0.1599 -0.1422
 8012TIP3   OH245526   2.782   1.567   2.020  0.1436  0.1368  0.4948
 8012TIP3    H145527   2.743   1.486   2.054  0.4386  0.3656  1.4009
 8012TIP3    H245528   2.814   1.612   2.097  1.8772  0.1354 -0.1916
 8013TIP3   OH245529   2.016   1.714   3.374  0.1723 -0.1446 -0.2637
 8013TIP3    H145530   2.106   1.687   3.393 -0.3579 -1.4616  0.5548
 8013TIP3    H245531   2.006   1.798   3.418  0.1125 -1.3890  2.2441
 8014TIP3   OH245532   4.253   1.198   6.654  0.0102 -0.1005 -0.6624
 8014TIP3    H145533   4.333   1.245   6.678  0.1615 -0.2772 -0.8186
 8014TIP3    H245534   4.210   1.257   6.592 -0.2673  0.2522 -0.1480
 8015TIP3   OH245535   0.046   1.441  12.724 -0.1607 -0.0959  0.4300
 8015TIP3    H145536   0.016   1.382  12.793  0.1421  0.3235  0.9314
 8015TIP3    H245537   0.134   1.411  12.702 -0.5653 -0.7303 -0.3569
 8016TIP3   OH245538   6.584   5.201   0.212  0.0260  0.4101 -0.4825
 8016TIP3    H145539   6.522   5.128   0.208 -1.6343  1.6470  0.9160
 8016TIP3    H245540   6.667   5.164   0.181 -1.7446 -0.8434 -4.3881
 8017TIP3   OH245541   6.249   3.373  11.950 -0.1174  0.7828 -0.2197
 8017TIP3    H145542   6.213   3.355  11.864  0.8952 -1.4144 -0.2484
 8017TIP3    H245543   6.174   3.364  12.010 -0.2108 -1.0265 -0.5564
 8018TIP3   OH245544   0.503   0.155  15.836  0.4834  0.8248 -0.4858
 8018TIP3    H145545   0.468   0.156  15.925 -1.2198 -0.3715 -1.0965
 8018TIP3    H245546   0.594   0.127  15.847  0.6843  1.9145  0.9615
 8019TIP3   OH245547   0.561   4.001  11.980 -0.3872 -0.0269 -0.4954
 8019TIP3    H145548   0.481   4.003  12.034  1.4310  1.0351  2.3960
 8019TIP3    H245549   0.599   3.915  11.999  2.0500  1.5815  3.0693
 8020TIP3   OH245550   0.996   1.431  10.893 -0.2448 -0.1997  0.0680
 8020TIP3    H145551   1.004   1.525  10.877  0.0791 -0.3107 -0.4429
 8020TIP3    H245552   1.082   1.396  10.870  0.0264 -0.4693  1.3747
 8021TIP3   OH245553   1.435   1.168   0.132 -0.2674 -0.2887 -1.1001
 8021TIP3    H145554   1.425   1.073   0.129  0.6615 -0.5813  1.7788
 8021TIP3    H245555   1.352   1.200   0.167 -0.2903 -0.1213 -1.3055
 8022TIP3   OH245556   1.449   6.628  14.944  0.5750 -0.1744  0.3938
 8022TIP3    H145557   1.375   6.650  14.887  0.5693 -0.3302  0.3394
 8022TIP3    H245558   1.527   6.654  14.894  0.6213 -1.2461 -0.1274
 8023TIP3   OH245559   1.771   4.996  11.274  0.0546 -0.8911 -0.6186
 8023TIP3    H145560   1.718   4.918  11.287 -0.2104 -0.7216 -0.6814
 8023TIP3    H245561   1.745   5.028  11.188 -0.7879  0.0005 -0.0472
 8024TIP3   OH245562   3.318   0.870   0.950 -0.0792 -0.5337 -0.1226
 8024TIP3    H145563   3.369   0.865   0.869 -1.1278 -1.1307 -0.7689
 8024TIP3    H245564   3.379   0.907   1.014  0.2075  1.9164 -1.6603
 8025TIP3   OH245565   0.063   1.683   1.235  0.6561 -0.2050  0.5779
 8025TIP3    H145566   0.153   1.705   1.258  0.6546  1.5973 -0.9052
 8025TIP3    H245567   0.064   1.673   1.140 -0.2984 -2.4090  0.7458
 8026TIP3   OH245568   1.438   3.729   3.629 -0.0557  0.1897  0.3852
 8026TIP3    H145569   1.413   3.816   3.658 -0.1017  0.3214 -0.0454
 8026TIP3    H245570   1.438   3.676   3.708  0.6103  0.7289  0.7599
 8027TIP3   OH245571   4.463   4.978  14.600 -0.5062  0.7785 -0.6435
 8027TIP3    H145572   4.541   4.988  14.546 -1.0961  0.1142 -1.6541
 8027TIP3    H245573   4.453   4.884  14.612 -1.5682  0.7951 -1.1965
 8028TIP3   OH245574   5.881   1.999  12.822 -0.3255  0.0270 -0.0627
 8028TIP3    H145575   5.832   2.010  12.740 -2.9252 -1.8246  1.1246
 8028TIP3    H245576   5.924   1.914  12.813  0.8475  0.5972 -0.1387
 8029TIP3   OH245577   2.130   6.058   0.427  0.2228  0.1242  0.6477
 8029TIP3    H145578   2.157   5.980   0.474  0.0444 -0.6966 -0.5648
 8029TIP3    H245579   2.212   6.104   0.407  0.5063 -0.7426 -0.2779
 8030TIP3   OH245580   0.809   2.011   5.363 -0.3438  0.2524  0.6295
 8030TIP3    H145581   0.800   2.106   5.366  1.2768  0.4119  1.2931
 8030TIP3    H245582   0.728   1.978   5.402 -0.5756  1.3804  1.1308
 8031TIP3   OH245583   6.132   1.958  10.961 -0.0066 -0.1408  0.5075
 8031TIP3    H145584   6.212   1.926  10.920 -0.3813 -0.3487 -0.0948
 8031TIP3    H245585   6.077   1.879  10.971  0.0068 -0.0615  1.2547
 8032TIP3   OH245586   3.855   0.717  15.896  0.2770  0.1527 -0.1928
 8032TIP3    H145587   3.924   0.686  15.955  1.6508 -2.7517 -3.0319
 8032TIP3    H245588   3.901   0.769  15.830 -0.6109  0.1572 -0.8284
 8033TIP3   OH245589   2.163   4.216   1.273  0.2811 -0.4474 -0.0447
 8033TIP3    H145590   2.237   4.272   1.296 -0.4756  0.5868 -0.0415
 8033TIP3    H245591   2.086   4.269   1.295 -0.4537 -1.0481 -1.1273
 8034TIP3   OH245592   4.889   2.527   5.189  0.0658 -0.2523 -0.3593
 8034TIP3    H145593   4.852   2.462   5.130 -0.7045  0.7702 -1.0384
 8034TIP3    H245594   4.818   2.547   5.251 -0.5571  1.6614 -1.6196
 8035TIP3   OH245595   1.852   0.913   3.757 -0.3002 -0.0978  0.0089
 8035TIP3    H145596   1.762   0.923   3.788  0.1534  2.2581  0.7563
 8035TIP3    H245597   1.848   0.934   3.664 -0.6072 -0.6342 -0.1037
 8036TIP3   OH245598   4.394   3.970  14.947 -0.2842 -0.0185  0.3363
 8036TIP3    H145599   4.452   3.975  15.022  1.4953 -1.3284 -0.8771
 8036TIP3    H245600   4.361   4.060  14.936  1.5362  0.7826  1.0629
 8037TIP3   OH245601   0.805   1.966   2.307 -0.3073  0.4589  0.4161
 8037TIP3    H145602   0.795   1.961   2.211 -0.6962  0.6164  0.4452
 8037TIP3    H245603   0.756   2.044   2.332 -1.6864 -0.5250  0.9357
 8038TIP3   OH245604   1.231   1.155   0.865  0.1082 -0.1837 -0.2735
 8038TIP3    H145605   1.235   1.097   0.941 -1.0813 -1.6138 -1.2459
 8038TIP3    H245606   1.181   1.106   0.800 -0.7754  1.8622 -1.2299
 8039TIP3   OH245607   3.440   3.107   2.859 -0.3043  0.1572 -0.3486
 8039TIP3    H145608   3.406   3.189   2.894  1.1479  0.7668 -0.2868
 8039TIP3    H245609   3.527   3.098   2.898 -0.0057 -0.8610 -1.1862
 8040TIP3   OH245610   0.755   1.775  14.048 -0.4591 -0.1461 -0.4582
 8040TIP3    H145611   0.764   1.861  14.008 -0.4615 -0.8920 -2.1549
 8040TIP3    H245612   0.842   1.754  14.082 -0.6478  0.8341  0.6609
 8041TIP3   OH245613   1.099   4.348   5.414  0.1113 -0.0644 -0.0244
 8041TIP3    H145614   1.153   4.389   5.482 -0.5152 -0.4901  0.7526
 8041TIP3    H245615   1.160   4.328   5.344  1.4110 -2.4068  1.6386
 8042TIP3   OH245616   0.981   5.278  10.097 -0.0119  0.1038  0.0307
 8042TIP3    H145617   0.969   5.291  10.192  1.0784  0.8794  0.0835
 8042TIP3    H245618   1.043   5.206  10.090  0.4084  0.4728 -0.0730
 8043TIP3   OH245619   5.525   5.982  14.199 -0.6575 -0.3836  0.1589
 8043TIP3    H145620   5.567   6.068  14.205 -0.3044 -0.3620 -1.8100
 8043TIP3    H245621   5.439   6.000  14.161 -0.4845 -0.8963 -0.5022
 8044TIP3   OH245622   2.360   0.676  12.972  0.1494  0.2403 -0.3204
 8044TIP3    H145623   2.414   0.724  12.909  0.7891  1.2497  0.9583
 8044TIP3    H245624   2.310   0.744  13.018  0.9275 -0.3012  1.3892
 8045TIP3   OH245625   6.363   0.808   5.807 -0.5748  0.1863 -0.4247
 8045TIP3    H145626   6.400   0.745   5.869 -0.1327  1.1902  0.3566
 8045TIP3    H245627   6.412   0.888   5.822 -1.3206  0.8057 -1.2045
 8046TIP3   OH245628   0.521   2.044   4.610  0.0662 -0.4552 -0.0420
 8046TIP3    H145629   0.477   2.116   4.563 -0.5299 -1.1966 -0.6440
 8046TIP3    H245630   0.543   2.082   4.695  0.1375  0.5740 -0.4963
 8047TIP3   OH245631   2.002   0.954   4.952 -0.0893 -0.1703  0.1331
 8047TIP3    H145632   1.945   1.029   4.973 -1.1671 -1.6270  2.9516
 8047TIP3    H245633   2.080   0.968   5.006 -0.2966 -1.0528  0.6691
 8048TIP3   OH245634   4.388   6.456   2.345 -0.1782 -0.0873  0.1744
 8048TIP3    H145635   4.445   6.527   2.375 -0.6931  0.6752 -0.6011
 8048TIP3    H245636   4.448   6.386   2.318  0.3445  0.1898  0.6049
 8049TIP3   OH245637   0.695   6.840  16.104 -0.0374 -0.3565 -0.0633
 8049TIP3    H145638   0.742   6.761  16.132 -0.9452 -0.6442  0.6743
 8049TIP3    H245639   0.657   6.875  16.184 -0.3232  0.3766 -0.5157
 8050TIP3   OH245640   2.837   2.333  11.156  0.5248  0.4096  0.0615
 8050TIP3    H145641   2.754   2.287  11.144  0.1896  0.7364  1.0739
 8050TIP3    H245642   2.827   2.412  11.102  0.4931  0.0630 -0.4474
 8051TIP3   OH245643   1.568   3.453   6.119 -0.2959  0.2972 -0.6124
 8051TIP3    H145644   1.496   3.475   6.178 -1.0106 -2.6315 -0.1979
 8051TIP3    H245645   1.646   3.455   6.175 -0.3182  1.6796 -0.6155
 8052TIP3   OH245646   1.575   3.244  15.701 -0.4033 -0.3019 -0.5013
 8052TIP3    H145647   1.604   3.159  15.670  1.7950 -0.0699  0.7072
 8052TIP3    H245648   1.634   3.307  15.659 -0.2254  0.3674  0.6947
 8053TIP3   OH245649   1.064   2.005  16.904  0.2181 -0.3437  1.3155
 8053TIP3    H145650   1.058   1.921  16.859  0.7085 -0.0025  0.5976
 8053TIP3    H245651   0.973   2.033  16.916  0.0376  0.8188 -1.8885
 8054TIP3   OH245652   6.680   6.101   4.833 -0.0962  0.6754 -0.2919
 8054TIP3    H145653   6.773   6.117   4.820  0.2353 -1.6801 -1.1572
 8054TIP3    H245654   6.637   6.163   4.774  0.8247  2.2173  0.5545
 8055TIP3   OH245655   5.947   5.180   1.105 -0.2658 -0.7031 -0.1988
 8055TIP3    H145656   5.954   5.219   1.018 -1.3847 -0.6993 -0.3098
 8055TIP3    H245657   5.994   5.240   1.163  0.8788 -0.9454 -0.8625
 8056TIP3   OH245658   2.045   4.439  14.529  0.0375  0.2290  0.0041
 8056TIP3    H145659   1.964   4.397  14.498 -2.2626  2.4380  2.4539
 8056TIP3    H245660   2.052   4.519  14.477  1.6646 -0.7089 -1.3123
 8057TIP3   OH245661   1.179   6.408  14.414  1.3423  0.4168  0.0805
 8057TIP3    H145662   1.210   6.440  14.499  0.3253  0.2551  0.5328
 8057TIP3    H245663   1.085   6.429  14.414  1.5243  1.3972 -1.4608
 8058TIP3   OH245664   4.433   1.152  14.010 -0.1381 -0.0326  0.0742
 8058TIP3    H145665   4.529   1.158  14.008 -0.0656 -0.7788  0.8609
 8058TIP3    H245666   4.412   1.094  13.936  0.1011 -0.7043  0.5228
 8059TIP3   OH245667   5.246   6.304  12.063 -0.2473  0.2907 -0.2383
 8059TIP3    H145668   5.238   6.323  12.157 -1.1217  0.5309 -0.3565
 8059TIP3    H245669   5.184   6.233  12.048  0.8267 -0.6484 -0.3980
 8060TIP3   OH245670   0.715   1.386  11.396 -0.2338 -0.6994 -0.2314
 8060TIP3    H145671   0.640   1.351  11.348  0.4518 -1.1479 -1.0092
 8060TIP3    H245672   0.699   1.480  11.400 -1.6921 -0.9618  1.1442
 8061TIP3   OH245673   4.004   5.284   3.607 -0.3069 -0.1473  0.5012
 8061TIP3    H145674   4.055   5.364   3.599 -0.9091  0.3714  1.6189
 8061TIP3    H245675   4.059   5.216   3.568 -0.2001  0.9534 -1.3629
 8062TIP3   OH245676   4.420   1.557  10.946  0.4629 -0.0360 -0.1110
 8062TIP3    H145677   4.363   1.617  10.993  0.0168 -0.3777 -0.2077
 8062TIP3    H245678   4.464   1.612  10.880  1.6161  0.5809  1.1320
 8063TIP3   OH245679   1.515   4.666   4.238  0.0272  0.2580 -0.0747
 8063TIP3    H145680   1.551   4.618   4.313  0.8999  1.9514  0.6405
 8063TIP3    H245681   1.556   4.626   4.162 -0.5344 -1.2049  0.3432
 8064TIP3   OH245682   3.264   0.921  14.286 -0.2110 -0.3598  0.6279
 8064TIP3    H145683   3.329   0.872  14.236  1.2043  0.8238  1.2462
 8064TIP3    H245684   3.190   0.930  14.226  1.2584  0.6751 -1.1330
 8065TIP3   OH245685   3.154   6.715   5.650 -0.6694 -0.4966  0.1181
 8065TIP3    H145686   3.116   6.691   5.566  1.4378  1.9591 -1.7192
 8065TIP3    H245687   3.224   6.650   5.664 -0.7501 -0.6600 -0.2266
 8066TIP3   OH245688   6.726   6.753   5.677  0.2808  0.3096 -0.0697
 8066TIP3    H145689   6.798   6.690   5.672  1.4228  1.3176  2.1703
 8066TIP3    H245690   6.679   6.730   5.758  0.2188  1.7729  0.3450
 8067TIP3   OH245691   6.826   4.690  12.916 -0.3382 -0.1836  0.1121
 8067TIP3    H145692   6.813   4.609  12.867 -1.0011  0.2215 -0.3953
 8067TIP3    H245693   6.920   4.690  12.937 -0.5346 -1.6345  1.1203
 8068TIP3   OH245694   0.023   5.990   3.679 -0.2582 -0.5761 -0.5446
 8068TIP3    H145695   0.116   5.988   3.703 -0.6711 -0.7849  1.0950
 8068TIP3    H245696   0.005   6.083   3.663  0.3362 -0.5869 -1.3712
 8069TIP3   OH245697   4.500   2.745   3.997  0.2073  0.0101  0.1202
 8069TIP3    H145698   4.501   2.731   4.092  0.2837  0.5794  0.2057
 8069TIP3    H245699   4.581   2.704   3.966  0.3193  0.0660  0.3361
 8070TIP3   OH245700   4.408   3.001   0.026 -0.1024  0.4204  0.9204
 8070TIP3    H145701   4.344   2.960  -0.033  0.1830  0.4895  0.5543
 8070TIP3    H245702   4.356   3.054   0.085 -0.3667  0.7685  0.3873
 8071TIP3   OH245703   3.141   3.841  16.426  0.0941 -0.0326 -0.1279
 8071TIP3    H145704   3.066   3.891  16.394 -0.2294 -1.2116 -1.3485
 8071TIP3    H245705   3.192   3.822  16.347  0.1343 -1.6982  0.2533
 8072TIP3   OH245706   4.999   3.525  11.500 -0.1567 -0.2773  0.1865
 8072TIP3    H145707   5.061   3.529  11.427  1.3523 -1.0592  1.3412
 8072TIP3    H245708   4.915   3.552  11.463  0.3754 -1.3653 -2.0027
 8073TIP3   OH245709   6.617   3.185   4.929 -0.0890 -0.2382 -0.1656
 8073TIP3    H145710   6.555   3.179   5.001  0.4551 -1.2852  0.2478
 8073TIP3    H245711   6.581   3.252   4.871  0.4643  2.1362  2.0465
 8074TIP3   OH245712   3.018   5.269  12.053 -0.6398  0.3084  0.2323
 8074TIP3    H145713   3.109   5.243  12.041 -0.4666  0.0836  1.8018
 8074TIP3    H245714   3.001   5.256  12.146 -2.3010  0.2931 -0.0342
 8075TIP3   OH245715   5.392   4.813  13.752  0.5618 -0.0857  0.4359
 8075TIP3    H145716   5.444   4.803  13.832  1.9599 -0.7833 -0.5106
 8075TIP3    H245717   5.317   4.756  13.766 -1.0014  2.2708  2.5695
 8076TIP3   OH245718   2.725   5.679   5.897 -0.3823  0.0569 -1.0771
 8076TIP3    H145719   2.690   5.645   5.979  0.1600  1.0116 -0.4264
 8076TIP3    H245720   2.650   5.719   5.854 -0.3209  1.2446 -0.1395
 8077TIP3   OH245721   6.657   5.434  16.879 -0.0927  0.1440 -0.2913
 8077TIP3    H145722   6.695   5.453  16.793 -1.7531 -0.2113 -1.1471
 8077TIP3    H245723   6.655   5.519  16.923  1.0272  0.2813 -0.4775
 8078TIP3   OH245724   4.701   0.118   0.475 -0.2357 -0.0806 -0.4567
 8078TIP3    H145725   4.759   0.049   0.507  0.6423  0.7103 -0.2866
 8078TIP3    H245726   4.759   0.176   0.424 -0.9485  0.5324 -0.5910
 8079TIP3   OH245727   6.542   6.344  14.314 -0.6309 -0.2608 -0.1576
 8079TIP3    H145728   6.485   6.419  14.296 -0.5555 -0.0012  0.6612
 8079TIP3    H245729   6.620   6.383  14.354  0.8525 -0.4197 -2.6516
 8080TIP3   OH245730   5.866   1.987   0.751 -0.0148  0.8404  0.1700
 8080TIP3    H145731   5.818   2.002   0.669  2.1683  0.6379 -1.2374
 8080TIP3    H245732   5.878   1.893   0.755  3.4606  1.0621 -1.5893
 8081TIP3   OH245733   2.148   4.138  14.144  0.7410  0.3332  0.1855
 8081TIP3    H145734   2.188   4.183  14.219 -1.0438 -0.2481  1.5830
 8081TIP3    H245735   2.144   4.046  14.171 -1.3888  0.3527  0.1223
 8082TIP3   OH245736   2.647   1.816  11.947  0.2722 -0.0294  0.0411
 8082TIP3    H145737   2.709   1.802  12.019 -2.4161 -1.9437  2.1812
 8082TIP3    H245738   2.578   1.871  11.985 -1.9635 -2.2871 -0.4762
 8083TIP3   OH245739   3.796   4.934  16.625  0.0728  0.0660  0.1332
 8083TIP3    H145740   3.890   4.915  16.633 -0.0234 -0.9472 -0.8757
 8083TIP3    H245741   3.788   4.981  16.542 -0.6163 -2.4341 -1.3264
 8084TIP3   OH245742   1.578   4.090   1.124  0.4525  0.2851  0.4690
 8084TIP3    H145743   1.562   4.039   1.044  3.7360 -2.0235  1.1173
 8084TIP3    H245744   1.640   4.158   1.097 -0.6631  1.3547  0.5149
 8085TIP3   OH245745   2.427   2.465   1.764 -0.7099  0.1869 -0.7959
 8085TIP3    H145746   2.496   2.517   1.804 -1.2075 -1.1349  2.0623
 8085TIP3    H245747   2.463   2.376   1.760 -1.4149 -0.0841 -1.4219
 8086TIP3   OH245748   4.334   4.779   0.309 -0.2594 -0.1780 -0.0238
 8086TIP3    H145749   4.323   4.867   0.346  0.1293 -0.0316 -0.2449
 8086TIP3    H245750   4.319   4.720   0.382  2.7205  0.1405  1.0081
 8087TIP3   OH245751   3.533   6.670  12.257  0.0730  0.4365  0.0135
 8087TIP3    H145752   3.523   6.619  12.177 -1.1332  1.3401 -0.4481
 8087TIP3    H245753   3.589   6.616  12.314  1.4749  0.0449 -1.6454
 8088TIP3   OH245754   2.292   0.907   3.953 -0.3549  0.2146 -0.1279
 8088TIP3    H145755   2.340   0.976   3.998  0.4400 -0.1990 -0.3206
 8088TIP3    H245756   2.274   0.842   4.021 -1.1261  0.6134  0.0591
 8089TIP3   OH245757   2.627   1.469   3.355  0.2786 -0.1483  0.6156
 8089TIP3    H145758   2.698   1.527   3.384 -0.0370  0.9491 -0.6805
 8089TIP3    H245759   2.548   1.523   3.361 -0.4138 -1.2291  1.6585
 8090TIP3   OH245760   4.759   1.561  13.152  0.2165 -0.0696 -0.3034
 8090TIP3    H145761   4.785   1.476  13.186  1.5199 -0.1683 -1.4418
 8090TIP3    H245762   4.728   1.544  13.063  0.5992  0.6462 -0.5853
 8091TIP3   OH245763   6.460   1.621  11.071 -0.4905  0.1322 -0.0787
 8091TIP3    H145764   6.430   1.605  10.982 -0.0981 -1.4459  0.0433
 8091TIP3    H245765   6.556   1.620  11.064 -0.4541  0.6540  0.2673
 8092TIP3   OH245766   1.753   2.703  13.591 -0.0775 -0.1955  0.1161
 8092TIP3    H145767   1.773   2.648  13.515  1.8578 -0.5093  0.8005
 8092TIP3    H245768   1.814   2.674  13.658  0.4008  2.1606  0.7996
 8093TIP3   OH245769   4.298   5.080   6.230  0.4059 -0.3382  0.2868
 8093TIP3    H145770   4.348   5.000   6.214 -0.7933 -1.2784  0.9999
 8093TIP3    H245771   4.219   5.049   6.274 -0.5998  1.1366 -0.4269
 8094TIP3   OH245772   3.833   5.353  14.450 -0.1846 -0.5687 -0.3567
 8094TIP3    H145773   3.779   5.430  14.467 -0.9934 -0.5685 -2.5548
 8094TIP3    H245774   3.919   5.375  14.487 -1.3274 -0.1458  2.2987
 8095TIP3   OH245775   5.231   4.649  12.392 -0.1645 -0.1681  0.4863
 8095TIP3    H145776   5.318   4.638  12.431 -0.0130  1.4107  0.6508
 8095TIP3    H245777   5.173   4.600  12.450  0.6561 -1.6077  0.1318
 8096TIP3   OH245778   6.859   6.662   3.572 -0.0213  0.3206 -0.1884
 8096TIP3    H145779   6.937   6.704   3.537 -0.4126  0.9597 -0.3065
 8096TIP3    H245780   6.851   6.581   3.520 -0.8975  1.5093 -2.0333
 8097TIP3   OH245781   2.156   0.268   2.201 -0.1910  0.3053  0.4726
 8097TIP3    H145782   2.077   0.238   2.156 -0.1877  0.5750  0.2868
 8097TIP3    H245783   2.128   0.347   2.248 -0.0380  0.3852  0.4283
 8098TIP3   OH245784   1.171   6.075   0.047 -0.4364  0.0094 -0.4693
 8098TIP3    H145785   1.156   6.013   0.119 -0.7101  0.0131 -0.5206
 8098TIP3    H245786   1.094   6.064  -0.009 -0.6569  0.6539 -0.2960
 8099TIP3   OH245787   5.236   0.242   2.321  0.1116 -0.3924 -0.1209
 8099TIP3    H145788   5.271   0.244   2.410 -2.8074 -1.1220  1.1494
 8099TIP3    H245789   5.195   0.328   2.310  0.3908 -0.3335 -0.7593
 8100TIP3   OH245790   1.247   1.103   3.788 -0.0292 -0.4246  0.4072
 8100TIP3    H145791   1.185   1.173   3.768 -0.6878 -1.5846 -1.9993
 8100TIP3    H245792   1.321   1.118   3.730  0.1402 -1.2917  0.3774
 8101TIP3   OH245793   1.814   1.171   4.519  0.1150 -0.5575  0.4265
 8101TIP3    H145794   1.860   1.125   4.590  4.1598  1.7296 -0.3801
 8101TIP3    H245795   1.776   1.247   4.562 -0.4747 -0.9597  0.6363
 8102TIP3   OH245796   5.809   1.284  16.209  0.5263  0.2105 -0.1475
 8102TIP3    H145797   5.764   1.229  16.146 -2.7373  0.9542  1.3239
 8102TIP3    H245798   5.846   1.223  16.273  0.9286 -0.3930 -0.9457
 8103TIP3   OH245799   4.106   5.793  13.599  0.1385  0.3741 -0.1448
 8103TIP3    H145800   4.164   5.788  13.523  0.8581  1.2844  0.3222
 8103TIP3    H245801   4.035   5.850  13.572 -0.0275  0.0612 -0.3835
 8104TIP3   OH245802   6.828   4.983   2.957  0.0346 -0.2491  0.3529
 8104TIP3    H145803   6.829   4.897   2.914 -2.3742  0.4457 -1.3133
 8104TIP3    H245804   6.894   5.034   2.910  0.2505 -0.6771  0.1859
 8105TIP3   OH245805   0.318   2.315  13.977  0.4895  0.3664  0.3212
 8105TIP3    H145806   0.362   2.294  13.895  0.8853  0.6561  0.4604
 8105TIP3    H245807   0.235   2.355  13.951  1.0845  1.4615  0.0580
 8106TIP3   OH245808   1.731   0.078   2.195 -0.3340  0.1176 -0.0643
 8106TIP3    H145809   1.805   0.088   2.135 -0.5184 -2.1044 -0.7728
 8106TIP3    H245810   1.655   0.107   2.144 -0.1757  0.7954  0.0735
 8107TIP3   OH245811   1.724   2.213   5.475 -0.3539 -0.6680  0.1036
 8107TIP3    H145812   1.781   2.264   5.417 -1.3660 -0.1181 -0.4417
 8107TIP3    H245813   1.748   2.242   5.563  0.6547 -0.9261 -0.0837
 8108TIP3   OH245814   6.397   5.019  13.525  0.6637 -0.8339 -0.4775
 8108TIP3    H145815   6.412   4.984  13.613  0.8266 -0.2948 -0.2809
 8108TIP3    H245816   6.316   5.069  13.533  0.4809 -1.0908 -0.7292
 8109TIP3   OH245817   5.968   0.611  11.365  0.0006 -0.3538 -0.5309
 8109TIP3    H145818   6.001   0.674  11.301  0.0101  0.2349  0.0423
 8109TIP3    H245819   5.978   0.655  11.449 -0.5480 -0.8907 -0.1782
 8110TIP3   OH245820   0.923   3.514   3.540 -0.7254 -0.1788 -0.7247
 8110TIP3    H145821   0.938   3.508   3.635 -2.6287  0.0866 -0.3575
 8110TIP3    H245822   0.970   3.593   3.513 -1.7037  0.8307  0.3925
 8111TIP3   OH245823   4.810   0.495   1.691  0.1320  0.2581  0.4282
 8111TIP3    H145824   4.742   0.555   1.661 -0.4769 -1.4734 -1.9343
 8111TIP3    H245825   4.883   0.509   1.632  0.9213  0.3602  1.3988
 8112TIP3   OH245826   5.634   5.123   4.880 -0.0243 -0.3834  0.2258
 8112TIP3    H145827   5.585   5.171   4.947 -0.5487 -0.4298 -0.1172
 8112TIP3    H245828   5.576   5.052   4.854  0.7499 -1.2032  0.7195
 8113TIP3   OH245829   4.792   1.365  14.811 -0.0903  0.5670  0.0458
 8113TIP3    H145830   4.733   1.308  14.859 -0.0303  0.3609 -0.1258
 8113TIP3    H245831   4.846   1.306  14.759  0.2982  0.7477  0.2345
 8114TIP3   OH245832   5.791   6.253  16.510 -0.2138  0.4684  0.4906
 8114TIP3    H145833   5.849   6.275  16.582  0.3924 -0.6289  0.3528
 8114TIP3    H245834   5.727   6.325  16.508  1.0149  1.6036  0.7527
 8115TIP3   OH245835   2.443   5.952  11.873 -0.3009  0.3918 -0.0194
 8115TIP3    H145836   2.440   5.918  11.784 -0.8219 -1.0329  0.5109
 8115TIP3    H245837   2.398   6.036  11.869 -0.1154  0.4498 -1.1300
 8116TIP3   OH245838   0.052   5.941   1.706  0.7533  0.1273 -0.0030
 8116TIP3    H145839   0.050   6.037   1.698  1.1554  0.2464  1.1332
 8116TIP3    H245840   0.136   5.922   1.748  0.4919 -0.6956  0.1705
 8117TIP3   OH245841   0.397   6.134   3.418  0.0008  0.0151  0.2158
 8117TIP3    H145842   0.403   6.049   3.462 -0.9073 -0.7120 -0.9543
 8117TIP3    H245843   0.438   6.119   3.333 -1.1611  0.3954 -0.4425
 8118TIP3   OH245844   1.191   2.782  15.898  0.3147 -0.0272  0.2970
 8118TIP3    H145845   1.124   2.732  15.851  0.0801 -0.2947  0.8991
 8118TIP3    H245846   1.145   2.859  15.930  0.3686 -0.0560  0.4443
 8119TIP3   OH245847   4.302   4.826   2.084 -0.2597  0.2981 -0.5020
 8119TIP3    H145848   4.209   4.810   2.064  0.2175 -1.2270 -1.6976
 8119TIP3    H245849   4.310   4.805   2.177 -0.8456 -0.9534 -0.7162
 8120TIP3   OH245850   6.652   2.654  15.738  0.0011 -0.7577 -0.1229
 8120TIP3    H145851   6.738   2.615  15.753  0.3188  0.2154  0.6608
 8120TIP3    H245852   6.606   2.590  15.683  1.9790 -0.3147 -2.4616
 8121TIP3   OH245853   6.150   3.113   1.971  0.4120 -0.0838  0.1642
 8121TIP3    H145854   6.179   3.204   1.973  1.5313 -0.4293  1.4324
 8121TIP3    H245855   6.122   3.094   2.061 -3.1048 -0.0353 -0.7993
 8122TIP3   OH245856   4.715   4.018   5.114 -0.5077 -0.2203 -0.1592
 8122TIP3    H145857   4.663   3.957   5.167 -0.2494  0.2702  0.6724
 8122TIP3    H245858   4.671   4.102   5.124  0.1825  0.1050  0.1703
 8123TIP3   OH245859   2.026   4.296  11.949  0.8733 -0.4468 -0.5846
 8123TIP3    H145860   2.035   4.390  11.934  0.3616 -0.4751 -1.0949
 8123TIP3    H245861   1.936   4.276  11.925  1.1293 -1.1558 -0.9861
 8124TIP3   OH245862   0.521   3.528  11.217 -0.6090  0.2338  0.2733
 8124TIP3    H145863   0.524   3.505  11.310 -1.0409  0.2388  0.2896
 8124TIP3    H245864   0.429   3.516  11.192 -0.3929 -0.3303 -0.2962
 8125TIP3   OH245865   5.616   5.064  15.048  0.0665 -0.9643 -0.3577
 8125TIP3    H145866   5.576   4.981  15.021 -0.4793 -0.1662 -2.1264
 8125TIP3    H245867   5.620   5.116  14.968  0.8776  0.5418  0.6180
 8126TIP3   OH245868   4.755   0.586   3.711 -0.1152  0.2617  0.4201
 8126TIP3    H145869   4.725   0.520   3.773  2.4698  0.8314  2.4314
 8126TIP3    H245870   4.756   0.540   3.627 -1.0137 -1.3886  1.2529
 8127TIP3   OH245871   5.201   2.765   1.996  0.2722 -0.3527 -0.6839
 8127TIP3    H145872   5.263   2.713   2.047  0.3844  1.7937  1.5734
 8127TIP3    H245873   5.219   2.742   1.905  3.0640 -1.2062 -0.0160
 8128TIP3   OH245874   4.687   4.092  11.187  0.1578 -0.4908 -0.6579
 8128TIP3    H145875   4.643   4.148  11.123 -0.3167 -1.2338 -1.0042
 8128TIP3    H245876   4.737   4.030  11.133 -0.6020 -1.4068 -0.3396
 8129TIP3   OH245877   5.507   0.200  14.408 -0.4217 -0.0109 -0.7212
 8129TIP3    H145878   5.585   0.206  14.463 -0.7331  1.1224 -0.3681
 8129TIP3    H245879   5.464   0.119  14.437  0.7350 -0.7945 -1.1083
 8130TIP3   OH245880   1.384   4.067  13.406  0.5196  0.4726  0.4836
 8130TIP3    H145881   1.345   4.099  13.324 -0.0928 -1.6736 -0.1499
 8130TIP3    H245882   1.328   4.103  13.475 -0.3045  0.5207 -0.1933
 8131TIP3   OH245883   1.393   0.551  13.727  0.4413  0.3668 -0.6026
 8131TIP3    H145884   1.450   0.551  13.650 -0.4757 -0.7189 -1.3068
 8131TIP3    H245885   1.414   0.469  13.771 -0.4888  0.0057 -0.8163
 8132TIP3   OH245886   0.897   0.372   4.906 -0.3710  0.1216 -0.3721
 8132TIP3    H145887   0.819   0.370   4.851 -1.4279  2.1762  0.9191
 8132TIP3    H245888   0.952   0.440   4.867  0.1340 -0.3335 -0.4591
 8133TIP3   OH245889   4.514   3.246   1.648  0.3966 -0.4125  0.2456
 8133TIP3    H145890   4.601   3.285   1.633 -0.3329  0.9065 -0.7541
 8133TIP3    H245891   4.475   3.241   1.561 -0.3056 -1.6022  0.6095
 8134TIP3   OH245892   1.011   0.171  11.652  0.3234  0.7740  0.4414
 8134TIP3    H145893   1.038   0.183  11.743  1.7026  1.9043 -0.0829
 8134TIP3    H245894   1.037   0.082  11.631  0.1582  0.5653  1.1013
 8135TIP3   OH245895   2.522   1.188  16.671 -0.4247  0.1233  0.4162
 8135TIP3    H145896   2.478   1.208  16.754  0.1929 -1.1125  1.0649
 8135TIP3    H245897   2.580   1.263  16.657  1.2256 -0.6829  2.3621
 8136TIP3   OH245898   6.293   4.236   5.172  1.0307  0.1488  0.4319
 8136TIP3    H145899   6.336   4.302   5.226 -0.1786  0.7094  0.7238
 8136TIP3    H245900   6.214   4.278   5.139  1.0819 -0.6038 -0.7504
 8137TIP3   OH245901   1.859   6.139  12.531 -0.1135  0.0511 -0.4286
 8137TIP3    H145902   1.793   6.181  12.478 -0.4029  2.1402  1.4462
 8137TIP3    H245903   1.845   6.173  12.620  1.2634 -2.1132  0.7256
 8138TIP3   OH245904   2.183   3.950  15.518 -0.1579 -0.0934 -0.2883
 8138TIP3    H145905   2.273   3.916  15.515 -0.4501 -1.1978  1.8237
 8138TIP3    H245906   2.194   4.043  15.538  0.5071 -0.3495  0.5890
 8139TIP3   OH245907   6.353   4.799  13.325  0.2547 -0.3919  0.0124
 8139TIP3    H145908   6.317   4.855  13.394 -0.2794  0.2185 -0.7402
 8139TIP3    H245909   6.447   4.798  13.341  0.4245  1.6293 -0.5758
 8140TIP3   OH245910   4.513   0.729  11.852  0.4417 -0.3946 -0.2881
 8140TIP3    H145911   4.489   0.750  11.762 -1.8152  2.5617  0.8115
 8140TIP3    H245912   4.576   0.797  11.877  0.6322 -0.8495  0.5215
 8141TIP3   OH245913   6.583   4.782  12.740  0.2063  0.0215 -0.3496
 8141TIP3    H145914   6.554   4.707  12.689  0.9618  0.3224 -1.2586
 8141TIP3    H245915   6.668   4.755  12.776  0.3063  0.3036 -0.3699
 8142TIP3   OH245916   0.682   5.528   1.926  0.2569  0.1884 -0.0476
 8142TIP3    H145917   0.641   5.602   1.882 -0.6429 -0.7505 -0.8452
 8142TIP3    H245918   0.641   5.526   2.013  0.7132  0.9602  0.1917
 8143TIP3   OH245919   1.165   5.757   1.445 -0.1365 -0.0259  0.6991
 8143TIP3    H145920   1.137   5.820   1.378 -1.4561  0.9700  2.1157
 8143TIP3    H245921   1.221   5.808   1.503  0.1313 -0.6060  0.9537
 8144TIP3   OH245922   4.707   5.536   0.421 -0.5735  0.3928  0.2550
 8144TIP3    H145923   4.720   5.552   0.328 -1.7104 -0.9513 -0.1657
 8144TIP3    H245924   4.715   5.441   0.431  0.5367  0.5906  1.7152
 8145TIP3   OH245925   5.049   6.357   3.380  0.3909 -1.0629 -0.2502
 8145TIP3    H145926   5.046   6.410   3.301  0.8198 -1.6206 -0.6480
 8145TIP3    H245927   4.995   6.405   3.443 -0.0785 -0.6934 -0.9204
 8146TIP3   OH245928   5.632   4.429   5.185 -0.0473 -0.1298 -0.3128
 8146TIP3    H145929   5.605   4.359   5.125  0.4138 -0.6579  0.0869
 8146TIP3    H245930   5.726   4.417   5.195 -0.2340 -0.5531  1.1467
 8147TIP3   OH245931   2.055   4.766   3.082  0.3282  0.4276 -0.2580
 8147TIP3    H145932   1.990   4.758   3.012 -0.5744  1.2556  0.4623
 8147TIP3    H245933   2.019   4.715   3.154 -0.3131  2.1245  0.6820
 8148TIP3   OH245934   1.514   6.696   2.271  0.3057 -0.4789  0.0188
 8148TIP3    H145935   1.483   6.760   2.335  1.3609 -0.8620  0.9500
 8148TIP3    H245936   1.562   6.748   2.206  1.6674 -0.3530  1.0902
 8149TIP3   OH245937   4.861   6.785   3.757  0.2747  0.3423 -0.0415
 8149TIP3    H145938   4.842   6.866   3.806 -0.9166 -0.4217  0.8107
 8149TIP3    H245939   4.945   6.756   3.792  0.5942  1.0638 -0.1756
 8150TIP3   OH245940   4.971   1.906   5.086  0.1165  0.5280  0.0517
 8150TIP3    H145941   4.922   1.884   5.007  0.6900 -0.2483 -0.1039
 8150TIP3    H245942   4.980   1.823   5.133  0.6180  0.8024  0.4537
 8151TIP3   OH245943   3.723   4.477   1.506 -0.0942  0.0900  0.0260
 8151TIP3    H145944   3.673   4.462   1.586  1.3776  0.3083  1.0349
 8151TIP3    H245945   3.766   4.393   1.489 -2.4794 -0.8238 -2.1423
 8152TIP3   OH245946   4.689   0.673   1.536 -0.3063 -0.0508  0.1270
 8152TIP3    H145947   4.707   0.665   1.442  0.8395  0.9661  0.2418
 8152TIP3    H245948   4.671   0.766   1.549  0.7733  0.0334  1.1154
 8153TIP3   OH245949   3.438   0.440  10.337 -0.4412  0.6890  0.3680
 8153TIP3    H145950   3.379   0.513  10.358 -0.2862  0.5998  1.1459
 8153TIP3    H245951   3.517   0.459  10.388 -0.1607  0.3103  0.0692
 8154TIP3   OH245952   3.475   3.154   2.010 -0.2963 -0.1364  0.2914
 8154TIP3    H145953   3.555   3.188   2.050 -0.2719 -0.5539  0.6139
 8154TIP3    H245954   3.436   3.100   2.078 -1.4597  0.9818  0.5290
 8155TIP3   OH245955   1.288   0.666   0.621 -0.3646  0.4355  0.8783
 8155TIP3    H145956   1.354   0.666   0.551 -1.0163 -0.4437  0.2454
 8155TIP3    H245957   1.288   0.575   0.653 -1.1149  0.4808  1.0152
 8156TIP3   OH245958   0.608   2.713   3.006  0.4702 -0.2948 -0.4830
 8156TIP3    H145959   0.568   2.790   2.966  0.9831 -0.3013 -1.0056
 8156TIP3    H245960   0.584   2.641   2.949  2.1198 -0.1447 -1.4107
 8157TIP3   OH245961   4.748   2.911  16.762 -0.3100  0.1121  0.3125
 8157TIP3    H145962   4.831   2.945  16.797  0.4616 -0.8563 -0.5112
 8157TIP3    H245963   4.698   2.886  16.840 -0.0084  1.1079  0.8354
 8158TIP3   OH245964   6.689   4.372   1.048  0.4718  0.1142  0.1652
 8158TIP3    H145965   6.729   4.409   0.969 -0.6471 -0.5782 -0.7468
 8158TIP3    H245966   6.758   4.317   1.086  0.9796  0.3535 -0.3989
 8159TIP3   OH245967   5.999   5.926   2.199  0.0105 -0.1846  0.1210
 8159TIP3    H145968   6.053   6.005   2.191 -0.8041  0.2824 -1.0835
 8159TIP3    H245969   5.935   5.947   2.267  0.4187 -0.1815  0.5028
 8160TIP3   OH245970   2.667   2.538  12.957 -0.7032  0.5180  0.2755
 8160TIP3    H145971   2.620   2.461  12.990 -2.5119  0.5061 -2.0406
 8160TIP3    H245972   2.707   2.576  13.035 -2.0382 -1.2276  1.9403
 8161TIP3   OH245973   3.011   3.397  14.696 -0.6812  0.4034  0.7772
 8161TIP3    H145974   2.915   3.387  14.695 -0.6883  0.4863  0.2129
 8161TIP3    H245975   3.044   3.314  14.664 -0.5046 -0.0816  2.1291
 8162TIP3   OH245976   3.357   4.734  16.160 -0.2014  0.4569 -0.6076
 8162TIP3    H145977   3.293   4.667  16.135 -0.0721 -0.1974  0.7257
 8162TIP3    H245978   3.424   4.686  16.208 -0.2637  1.5907  0.6591
 8163TIP3   OH245979   6.423   4.267  12.049  0.3054  0.4758  0.0049
 8163TIP3    H145980   6.437   4.277  11.955  1.0245  1.2841  0.1819
 8163TIP3    H245981   6.349   4.206  12.057 -0.0088  0.7065 -1.0801
 8164TIP3   OH245982   1.679   2.376  13.567 -0.2209 -0.0238 -0.0181
 8164TIP3    H145983   1.764   2.407  13.535 -0.7770  1.1013 -0.4787
 8164TIP3    H245984   1.682   2.281  13.555  0.8711  0.0196 -0.2474
 8165TIP3   OH245985   3.733   6.117  13.301 -0.4624  0.0085 -0.1201
 8165TIP3    H145986   3.750   6.152  13.388 -0.1098 -0.8894  0.1911
 8165TIP3    H245987   3.690   6.033  13.317 -0.8038  0.0407 -0.8192
 8166TIP3   OH245988   4.849   4.196  15.167  0.0135  0.5562 -0.1561
 8166TIP3    H145989   4.856   4.106  15.198 -0.6102  0.8638  0.9502
 8166TIP3    H245990   4.848   4.249  15.247  1.1134  1.6129 -0.8025
 8167TIP3   OH245991   0.408   1.185   0.920 -0.2080  0.7468  0.3010
 8167TIP3    H145992   0.393   1.122   0.849 -3.9673  0.2855  1.3202
 8167TIP3    H245993   0.437   1.131   0.993  1.7911  0.9889 -0.2486
 8168TIP3   OH245994   0.642   0.737  15.119  0.1155  0.3810 -0.5990
 8168TIP3    H145995   0.680   0.754  15.033 -1.5685 -0.0688 -1.4779
 8168TIP3    H245996   0.647   0.642  15.130  0.0078  0.4020 -0.3614
 8169TIP3   OH245997   0.243   6.632   4.180  0.0772 -0.4138 -0.4603
 8169TIP3    H145998   0.149   6.614   4.176 -0.2559  1.3239 -1.2253
 8169TIP3    H245999   0.279   6.589   4.102 -0.2239 -0.2956 -0.6643
 8170TIP3   OH246000   1.672   4.404   3.467 -0.0010  0.6310  0.2531
 8170TIP3    H146001   1.614   4.376   3.537  1.3230 -2.1718  0.3403
 8170TIP3    H246002   1.744   4.449   3.511 -0.0909  0.5351  0.4967
 8171TIP3   OH246003   2.379   5.139   1.710 -0.5018  0.3439 -0.2684
 8171TIP3    H146004   2.363   5.145   1.616  2.1933  0.9250 -0.7662
 8171TIP3    H246005   2.410   5.050   1.725 -0.9741  0.2335  0.1055
 8172TIP3   OH246006   5.178   0.715  12.411 -0.2807  0.7680 -0.0082
 8172TIP3    H146007   5.259   0.746  12.370  0.5537 -0.4301  0.6966
 8172TIP3    H246008   5.188   0.620  12.416 -2.8243  0.2733 -2.2276
 8173TIP3   OH246009   1.194   0.230   3.836 -0.6426 -0.2559  0.0561
 8173TIP3    H146010   1.207   0.249   3.929 -1.3456  2.4826 -0.3114
 8173TIP3    H246011   1.106   0.191   3.831 -0.7673 -0.0262  0.4921
 8174TIP3   OH246012   3.502   0.944  15.136 -0.7494 -0.1819 -0.1333
 8174TIP3    H146013   3.467   0.930  15.048 -0.0576 -0.4882 -0.3752
 8174TIP3    H246014   3.473   1.031  15.161  1.2850  1.0805 -1.8004
 8175TIP3   OH246015   1.145   2.273   3.275  0.5112 -0.4314  0.1880
 8175TIP3    H146016   1.065   2.267   3.329  0.5610  0.9795  0.4456
 8175TIP3    H246017   1.112   2.282   3.186  0.4214 -1.9353  0.0445
 8176TIP3   OH246018   4.578   3.739   0.605  0.2816  0.3436 -0.2657
 8176TIP3    H146019   4.638   3.683   0.557  1.6787 -0.7497  2.5497
 8176TIP3    H246020   4.633   3.803   0.648 -0.6256  0.0757  1.4084
 8177TIP3   OH246021   5.310   0.808  11.804  0.0820  0.5140 -0.0441
 8177TIP3    H146022   5.316   0.756  11.883  0.0083 -0.2379 -0.5221
 8177TIP3    H246023   5.236   0.771  11.756 -0.1114  1.2024 -0.2957
 8178TIP3   OH246024   0.104   3.982  16.625 -0.3438  0.5069  0.1959
 8178TIP3    H146025   0.075   4.015  16.540 -1.0328  0.0325  0.2357
 8178TIP3    H246026   0.143   3.897  16.606  0.4257  0.8452  0.2319
 8179TIP3   OH246027   2.775   2.882   1.269  0.2537  0.3306 -0.1086
 8179TIP3    H146028   2.710   2.906   1.335  0.4517 -0.6559  0.4655
 8179TIP3    H246029   2.746   2.797   1.237  1.5807 -0.4192  0.5978
 8180TIP3   OH246030   5.064   5.888  11.866  0.9638 -0.1143 -0.6388
 8180TIP3    H146031   5.129   5.824  11.895  1.0259  0.6472  1.0259
 8180TIP3    H246032   5.097   5.919  11.782  3.0348  0.5748  0.3553
 8181TIP3   OH246033   2.712   0.517   1.876  0.2929 -0.0073 -0.0367
 8181TIP3    H146034   2.736   0.602   1.913 -0.3190  0.2110 -0.1380
 8181TIP3    H246035   2.784   0.496   1.816  0.2249  0.6498 -0.3495
 8182TIP3   OH246036   1.058   0.753  16.530  0.0134 -0.1511 -0.0569
 8182TIP3    H146037   1.128   0.718  16.475 -1.4989 -0.3807 -1.9580
 8182TIP3    H246038   1.010   0.812  16.472 -0.8972  0.6037  1.4193
 8183TIP3   OH246039   2.246   3.651   1.221 -0.5081 -0.1296  0.1483
 8183TIP3    H146040   2.288   3.725   1.177 -1.1860  0.5461  0.5997
 8183TIP3    H246041   2.277   3.657   1.312 -1.4542  0.2901  0.4493
 8184TIP3   OH246042   2.430   3.371   2.126  0.4305 -0.1288  0.5489
 8184TIP3    H146043   2.490   3.322   2.069 -0.3577 -0.6929  0.1721
 8184TIP3    H246044   2.349   3.320   2.123 -0.1348  0.7402  0.8628
 8185TIP3   OH246045   1.749   6.301  11.719  0.1484 -0.0206 -0.3978
 8185TIP3    H146046   1.668   6.333  11.759 -0.2101 -1.1425 -0.2139
 8185TIP3    H246047   1.813   6.371  11.737 -0.4579  0.3219  0.5305
 8186TIP3   OH246048   6.243   2.676   5.283 -0.2744  0.3324 -0.3895
 8186TIP3    H146049   6.215   2.623   5.358 -0.8085  0.8934 -0.1867
 8186TIP3    H246050   6.336   2.654   5.272 -0.8121 -1.7310 -1.2216
 8187TIP3   OH246051   1.055   6.054   2.194 -0.4409  0.1549  0.3535
 8187TIP3    H146052   1.069   6.116   2.123  1.0592 -1.3151 -0.7136
 8187TIP3    H246053   1.121   6.076   2.259  1.7749 -1.7292 -1.1050
 8188TIP3   OH246054   5.008   1.612  12.967 -0.2364 -0.3258  0.7584
 8188TIP3    H146055   4.974   1.701  12.966 -1.7767 -0.9002  0.1128
 8188TIP3    H246056   4.931   1.556  12.974  0.6914 -1.6232  1.0209
 8189TIP3   OH246057   3.214   1.975   0.601 -0.4526 -0.1958  0.0726
 8189TIP3    H146058   3.237   2.055   0.648  0.2382 -0.1861 -0.2702
 8189TIP3    H246059   3.222   1.999   0.509 -0.4664 -0.5954 -0.0309
 8190TIP3   OH246060   4.225   6.508  11.175  0.5826 -0.2681 -0.0919
 8190TIP3    H146061   4.262   6.568  11.240 -0.1589  1.8979 -1.5494
 8190TIP3    H246062   4.132   6.529  11.174 -0.0354 -2.6652  0.4886
 8191TIP3   OH246063   3.448   0.082  14.773 -0.3045  0.4669  0.2432
 8191TIP3    H146064   3.370   0.084  14.828  1.0012  0.7875  2.1879
 8191TIP3    H246065   3.453   0.170  14.735 -0.9326  0.4108  0.0270
 8192TIP3   OH246066   0.833   0.871  14.480  0.6590  0.6665  0.5691
 8192TIP3    H146067   0.890   0.935  14.437  1.7386 -0.5171  0.1838
 8192TIP3    H246068   0.769   0.847  14.413  0.8890  0.5703  0.3850
 8193TIP3   OH246069   4.143   1.979  13.478  0.0015  0.7639  0.3614
 8193TIP3    H146070   4.143   1.960  13.384  2.5203  3.2393 -0.2730
 8193TIP3    H246071   4.224   2.028  13.492  0.7718 -1.2303  4.2370
 8194TIP3   OH246072   3.534   3.648   1.214 -0.3000  0.4391  0.1831
 8194TIP3    H146073   3.597   3.662   1.143 -1.0558  0.2219 -0.5500
 8194TIP3    H246074   3.562   3.567   1.255 -0.2331  0.2130 -0.2957
 8195TIP3   OH246075   2.518   2.136   5.100 -0.2349 -0.0307  0.3576
 8195TIP3    H146076   2.601   2.166   5.064 -0.7073 -0.4158 -1.1218
 8195TIP3    H246077   2.533   2.043   5.121  0.5660  0.5853  2.9005
 8196TIP3   OH246078   4.735   3.708   2.511 -0.1988  0.2231  0.0134
 8196TIP3    H146079   4.721   3.617   2.485 -1.4119  0.2721  0.4409
 8196TIP3    H246080   4.798   3.741   2.447  1.7673 -1.4325  0.9700
 8197TIP3   OH246081   2.385   4.833  15.485 -0.0732 -0.0842  0.3451
 8197TIP3    H146082   2.320   4.844  15.554 -1.9049 -1.7448 -1.0036
 8197TIP3    H246083   2.399   4.738  15.480 -0.7148 -0.1199 -2.1164
 8198TIP3   OH246084   4.091   1.607   0.216  0.2599 -0.1861  0.5158
 8198TIP3    H146085   4.135   1.689   0.195  0.2064 -0.6461 -1.5972
 8198TIP3    H246086   4.156   1.539   0.198 -0.2806 -0.7023  0.4567
 8199TIP3   OH246087   6.676   2.891   4.173 -0.1778 -0.1978 -0.5725
 8199TIP3    H146088   6.677   2.986   4.157  0.0956 -0.1784 -0.4398
 8199TIP3    H246089   6.627   2.855   4.099 -1.8010  0.2101  0.2525
 8200TIP3   OH246090   0.637   0.954   5.620 -0.4304  0.2752 -0.2080
 8200TIP3    H146091   0.613   0.866   5.646  0.6405 -0.3104 -1.1037
 8200TIP3    H246092   0.713   0.976   5.674 -1.5009  1.2081  0.9766
 8201TIP3   OH246093   0.629   5.521  12.845 -0.2652 -0.9224 -0.6552
 8201TIP3    H146094   0.577   5.601  12.836 -0.3147 -0.5303  2.1342
 8201TIP3    H246095   0.599   5.464  12.774 -0.7019  1.2312 -2.3135
 8202TIP3   OH246096   2.945   4.504   0.085  0.1402 -0.6039 -0.3532
 8202TIP3    H146097   2.973   4.534  -0.002 -1.3653 -1.4069 -1.1443
 8202TIP3    H246098   2.853   4.480   0.074 -0.1333 -0.5512  1.5235
 8203TIP3   OH246099   6.010   6.317  11.042  0.3444 -0.3651  0.2671
 8203TIP3    H146100   6.062   6.254  11.092  2.5516 -0.8240 -2.3120
 8203TIP3    H246101   6.072   6.387  11.021 -1.3850  1.4244  0.8928
 8204TIP3   OH246102   0.928   4.153  12.674 -0.3405 -0.6081 -0.5915
 8204TIP3    H146103   0.918   4.240  12.713 -0.0690 -0.8124 -0.0601
 8204TIP3    H246104   1.002   4.113  12.721 -0.7720 -1.3115 -0.4946
 8205TIP3   OH246105   4.345   1.679   2.919  0.3009  0.0154 -0.0525
 8205TIP3    H146106   4.331   1.772   2.933  1.6282  0.1503  0.5290
 8205TIP3    H246107   4.386   1.647   3.000  1.4863 -0.6843 -0.8787
 8206TIP3   OH246108   4.970   1.621  13.951  0.1503  0.2742  0.4879
 8206TIP3    H146109   5.053   1.668  13.945  0.6955 -0.6872  0.1578
 8206TIP3    H246110   4.967   1.568  13.871  0.8079 -2.1834  1.9519
 8207TIP3   OH246111   5.800   2.556  13.116 -0.7215 -0.3289  0.3458
 8207TIP3    H146112   5.797   2.615  13.192 -0.1384 -0.7708  0.7151
 8207TIP3    H246113   5.807   2.468  13.154 -0.6551 -0.5699 -0.2171
 8208TIP3   OH246114   5.002   6.743  13.480  0.3448 -0.6164  0.3276
 8208TIP3    H146115   4.992   6.660  13.527 -0.2667 -1.0854 -0.5954
 8208TIP3    H246116   4.960   6.728  13.395  1.1738  0.2943 -0.2754
 8209TIP3   OH246117   2.700   2.705  15.918  0.2243 -0.0183 -0.4215
 8209TIP3    H146118   2.622   2.700  15.862 -0.5180  2.5978  0.2667
 8209TIP3    H246119   2.677   2.767  15.987  2.6928  0.3087  0.2152
 8210TIP3   OH246120   3.806   6.280   3.769  0.1219  0.2537  0.0953
 8210TIP3    H146121   3.805   6.360   3.717  0.1901 -0.6267 -1.3409
 8210TIP3    H246122   3.888   6.284   3.818  0.2993  0.8996 -0.2369
 8211TIP3   OH246123   3.426   0.995  14.868 -0.2057 -0.1725  0.2443
 8211TIP3    H146124   3.460   1.038  14.790  0.6510  0.0071  0.7060
 8211TIP3    H246125   3.331   1.006  14.862 -0.3153 -1.6132 -1.6271
 8212TIP3   OH246126   5.690   0.263  12.332  0.2505  0.1865  0.2155
 8212TIP3    H146127   5.670   0.279  12.425 -1.8284  1.1712 -0.3508
 8212TIP3    H246128   5.607   0.234  12.294  0.8053  0.7916 -1.5607
 8213TIP3   OH246129   1.840   6.587   2.083 -0.1229 -0.0959 -0.3142
 8213TIP3    H146130   1.830   6.592   2.178 -0.0056  1.9630 -0.3571
 8213TIP3    H246131   1.930   6.557   2.070 -0.6205 -1.9188  0.1756
 8214TIP3   OH246132   5.433   2.167  13.354  0.0803  0.4608  0.4320
 8214TIP3    H146133   5.509   2.218  13.327 -1.3587  2.5417 -0.0260
 8214TIP3    H246134   5.410   2.202  13.440 -1.2294  1.0051 -0.1001
 8215TIP3   OH246135   1.800   0.687  12.648 -0.3916 -0.1038 -0.0570
 8215TIP3    H146136   1.774   0.702  12.739  1.9673 -1.7111  0.9971
 8215TIP3    H246137   1.817   0.775  12.613 -0.5074  0.5037  1.3523
 8216TIP3   OH246138   6.829   3.044  12.055 -0.5053  0.6392  0.1195
 8216TIP3    H146139   6.764   3.087  11.998 -0.0550  2.6136  0.9929
 8216TIP3    H246140   6.913   3.079  12.025  0.1218 -1.2766 -0.4703
 8217TIP3   OH246141   5.209   6.684  15.816 -0.0574  0.8120  0.4825
 8217TIP3    H146142   5.144   6.632  15.769  1.9327 -0.5466 -0.9355
 8217TIP3    H246143   5.257   6.730  15.747  1.6324  0.3883  1.3373
 8218TIP3   OH246144   4.775   3.923  13.050 -0.8081  0.8378 -0.1723
 8218TIP3    H146145   4.867   3.933  13.075 -0.7082 -1.4348  0.5363
 8218TIP3    H246146   4.778   3.873  12.968 -1.4219  1.1678 -0.4061
 8219TIP3   OH246147   3.604   1.142  15.828  0.0534  0.0801 -0.0642
 8219TIP3    H146148   3.661   1.208  15.866  2.3618 -1.2263 -1.0352
 8219TIP3    H246149   3.559   1.102  15.903  1.3109  0.3756  0.8754
 8220TIP3   OH246150   4.915   5.077  13.569 -0.2320 -0.4902  0.0862
 8220TIP3    H146151   4.983   5.121  13.621  0.6481 -1.8609  0.1636
 8220TIP3    H246152   4.945   4.986  13.564 -1.8179 -1.0162 -0.3259
 8221TIP3   OH246153   1.735   3.399   0.429 -0.4835  0.0021  0.6045
 8221TIP3    H146154   1.689   3.409   0.512 -0.8192  0.3066  0.3836
 8221TIP3    H246155   1.814   3.452   0.438 -0.5691  0.1149  0.6947
 8222TIP3   OH246156   0.047   2.478  16.799 -0.2080 -0.5718 -0.3249
 8222TIP3    H146157   0.038   2.555  16.856  0.7968 -0.3924 -0.3899
 8222TIP3    H246158  -0.035   2.475  16.751 -1.3015 -1.0193  1.4783
 8223TIP3   OH246159   1.345   0.193  13.068  0.4392  0.2176 -0.1124
 8223TIP3    H146160   1.367   0.287  13.065 -0.6584  0.5788  1.7155
 8223TIP3    H246161   1.340   0.173  13.161 -1.6769 -1.0846 -0.4578
 8224TIP3   OH246162   1.699   1.382  12.974 -0.4735  0.1165  0.6396
 8224TIP3    H146163   1.678   1.460  12.923 -1.0836  1.1247  2.3485
 8224TIP3    H246164   1.638   1.315  12.942 -0.8228  0.7131  0.0317
 8225TIP3   OH246165   6.845   4.493  12.724  0.0214  0.1015 -0.0542
 8225TIP3    H146166   6.926   4.480  12.675  0.1469  0.9794 -0.0914
 8225TIP3    H246167   6.787   4.423  12.694  0.8791 -0.7671  0.2406
 8226TIP3   OH246168   1.815   1.832  14.806 -0.4955  0.6721 -0.0214
 8226TIP3    H146169   1.741   1.869  14.758  0.0632 -1.1649 -2.5012
 8226TIP3    H246170   1.882   1.818  14.740  0.3107 -2.1004  1.2215
 8227TIP3   OH246171   0.705   5.307  15.420  0.9125  0.5082  0.1395
 8227TIP3    H146172   0.755   5.256  15.356 -1.0470 -0.9820 -0.3064
 8227TIP3    H246173   0.719   5.262  15.503  1.4038  0.9199  0.2837
 8228TIP3   OH246174   0.003   4.449  12.219 -0.0620 -0.5054 -0.2133
 8228TIP3    H146175  -0.006   4.491  12.305 -0.9458 -0.9783 -0.0551
 8228TIP3    H246176  -0.048   4.368  12.227  0.2166 -0.7736 -1.0471
 8229TIP3   OH246177   4.319   1.130   5.094  0.1132 -0.3695 -0.0553
 8229TIP3    H146178   4.350   1.041   5.072  0.6677 -0.8874  2.5417
 8229TIP3    H246179   4.231   1.117   5.129 -0.6827  0.4154 -1.6381
 8230TIP3   OH246180   0.800   6.758   2.306 -0.2111 -0.3744 -0.0252
 8230TIP3    H146181   0.846   6.757   2.222 -1.9480 -2.9683 -1.0557
 8230TIP3    H246182   0.713   6.791   2.285  0.2240  1.9361  1.4167
 8231TIP3   OH246183   3.901   2.821  15.915 -0.4192  0.3401  0.1273
 8231TIP3    H146184   3.834   2.883  15.884  0.0368  1.1482  0.7241
 8231TIP3    H246185   3.878   2.806  16.007  0.6697  1.2493  0.5643
 8232TIP3   OH246186   5.741   3.051  15.242 -0.1304 -0.3846  0.1648
 8232TIP3    H146187   5.715   3.018  15.155  1.8635  1.1330 -1.0977
 8232TIP3    H246188   5.804   3.121  15.223  1.1367 -0.6764  2.8729
 8233TIP3   OH246189   2.829   0.721  15.508 -0.1783 -0.2665 -0.4354
 8233TIP3    H146190   2.898   0.713  15.574 -0.9650 -0.9535  0.3336
 8233TIP3    H246191   2.781   0.800  15.533 -1.6576 -1.5502  1.0180
 8234TIP3   OH246192   5.501   5.210   5.084 -0.5077  0.0648  0.5235
 8234TIP3    H146193   5.563   5.148   5.122  0.7997  0.5461 -0.7029
 8234TIP3    H246194   5.426   5.208   5.142 -0.3930 -2.4381  0.6804
 8235TIP3   OH246195   4.721   0.243  12.463  0.3777 -0.4134  0.1573
 8235TIP3    H146196   4.674   0.206  12.537  1.9984 -0.2481  1.3101
 8235TIP3    H246197   4.718   0.175  12.396 -1.9927 -0.1788 -0.0819
 8236TIP3   OH246198   0.734   5.048   5.348 -0.1758  0.1474 -0.2310
 8236TIP3    H146199   0.736   5.014   5.438  0.1057 -0.4231 -0.4485
 8236TIP3    H246200   0.646   5.026   5.317 -0.4231  0.7243  0.0422
 8237TIP3   OH246201   0.337   2.171  14.229  0.3040 -0.3785 -0.2582
 8237TIP3    H146202   0.295   2.220  14.299 -2.3525 -0.5548 -1.6144
 8237TIP3    H246203   0.321   2.223  14.150 -0.7600 -2.3466 -1.4085
 8238TIP3   OH246204   5.341   6.027   6.779  0.5842 -0.1047  0.8217
 8238TIP3    H146205   5.296   5.942   6.768  0.5923  0.0448 -0.6477
 8238TIP3    H246206   5.341   6.042   6.873 -1.3895 -0.7015  0.9740
 8239TIP3   OH246207   2.849   4.724  14.705 -0.2317  0.7503  0.3038
 8239TIP3    H146208   2.940   4.698  14.691 -0.3160  1.2484 -1.4321
 8239TIP3    H246209   2.801   4.641  14.711  0.2285  0.4860  0.3615
 8240TIP3   OH246210   3.041   0.176   4.633 -0.6408  0.2266  0.1715
 8240TIP3    H146211   2.969   0.239   4.637 -1.9142 -1.1768 -0.0394
 8240TIP3    H246212   3.105   0.209   4.697 -2.2416  0.5832  1.6663
 8241TIP3   OH246213   4.850   1.178  13.513  0.2117  0.3197 -0.0324
 8241TIP3    H146214   4.889   1.105  13.561  2.8432  1.7245  0.1610
 8241TIP3    H246215   4.849   1.150  13.421  0.7918 -0.1414  0.1008
 8242TIP3   OH246216   0.818   6.230  15.018  0.2428  0.6498  0.1078
 8242TIP3    H146217   0.761   6.303  14.993 -0.8591  0.8712  2.8397
 8242TIP3    H246218   0.815   6.170  14.943 -1.5139  1.8743 -0.8892
 8243TIP3   OH246219   4.574   1.531   4.228 -0.0287  0.3951  0.3614
 8243TIP3    H146220   4.567   1.458   4.289  0.5447  0.2930  0.3081
 8243TIP3    H246221   4.508   1.594   4.258 -0.6795 -0.2378  0.2652
 8244TIP3   OH246222   2.154   3.037   2.836  0.1720  0.1403  0.0516
 8244TIP3    H146223   2.104   3.082   2.904  0.4976  2.0805 -0.9210
 8244TIP3    H246224   2.107   3.056   2.755  1.1752 -0.0016 -0.5852
 8245TIP3   OH246225   0.433   6.755   0.961  0.2346  0.2960 -0.1005
 8245TIP3    H146226   0.359   6.741   1.021 -0.3689  1.3495 -0.5706
 8245TIP3    H246227   0.504   6.703   0.999 -0.8005 -0.9378  0.2402
 8246TIP3   OH246228   1.193   3.347  13.375  0.1804  0.3414 -0.6146
 8246TIP3    H146229   1.152   3.361  13.460  0.6833  0.6263 -0.4183
 8246TIP3    H246230   1.244   3.267  13.385 -0.8460 -0.3814 -1.0548
 8247TIP3   OH246231   3.665   1.159   0.833 -0.0665  0.7814  0.1956
 8247TIP3    H146232   3.696   1.126   0.749 -0.9782 -0.5897  0.3798
 8247TIP3    H246233   3.740   1.206   0.870  0.9840 -0.3337 -0.4765
 8248TIP3   OH246234   1.295   0.745   2.323 -0.0149 -0.2033  0.5274
 8248TIP3    H146235   1.204   0.721   2.305  0.3728 -0.7236 -0.9000
 8248TIP3    H246236   1.343   0.712   2.247  1.3086  0.4289  1.0693
 8249TIP3   OH246237   4.961   6.805   2.286  1.0858 -0.2308  0.0162
 8249TIP3    H146238   5.034   6.748   2.259  0.2977 -0.8325 -0.9334
 8249TIP3    H246239   4.983   6.832   2.375  2.6450 -0.0954 -0.3796
 8250TIP3   OH246240   5.621   1.208  13.421 -0.2112 -0.6246 -0.1571
 8250TIP3    H146241   5.609   1.269  13.494  1.5514 -2.9552  2.2752
 8250TIP3    H246242   5.592   1.257  13.344  0.9695  3.2086  1.5971
 8251TIP3   OH246243   3.847   1.017   0.636  0.2848  0.4367 -0.6036
 8251TIP3    H146244   3.929   0.980   0.670 -0.5508 -1.2747 -0.3478
 8251TIP3    H246245   3.799   0.942   0.602 -0.9693  1.4814 -1.2406
 8252TIP3   OH246246   1.147   3.089   2.259  0.3187 -0.4308  0.1895
 8252TIP3    H146247   1.119   3.014   2.311  1.9195  0.4633  2.4959
 8252TIP3    H246248   1.070   3.113   2.208 -1.8433 -0.5340  3.1668
 8253TIP3   OH246249   1.381   5.479  15.832  0.3504  0.5480  0.0867
 8253TIP3    H146250   1.323   5.554  15.847  0.2169  0.6339 -0.8145
 8253TIP3    H246251   1.369   5.424  15.909 -0.6017  0.7814  0.1184
 8254TIP3   OH246252   4.929   5.611   1.875 -0.1765  0.4852  0.1379
 8254TIP3    H146253   4.894   5.700   1.866 -0.7273  0.2342 -0.2894
 8254TIP3    H246254   4.852   5.557   1.891  0.1651  0.0908  0.4452
 8255TIP3   OH246255   4.484   1.610  17.066 -0.1995  0.2766  0.2213
 8255TIP3    H146256   4.488   1.517  17.088  1.4285 -0.0677 -1.2390
 8255TIP3    H246257   4.532   1.617  16.983  1.4029  2.6832  1.2315
 8256TIP3   OH246258   2.938   6.310  14.439 -0.0611  0.8266  0.4202
 8256TIP3    H146259   2.865   6.259  14.474  1.2261  0.3641  2.5982
 8256TIP3    H246260   2.933   6.394  14.484 -0.4328  1.5871 -0.9774
 8257TIP3   OH246261   0.002   1.239   4.672 -0.1234  0.0602  0.1997
 8257TIP3    H146262  -0.079   1.201   4.640 -0.1576 -1.0268  1.5082
 8257TIP3    H246263   0.069   1.208   4.611 -0.5078 -0.0886 -0.1484
 8258TIP3   OH246264   2.611   6.646  15.382  0.1269  0.0759  0.3050
 8258TIP3    H146265   2.606   6.672  15.474 -1.3517 -0.0439  0.2918
 8258TIP3    H246266   2.571   6.720  15.335 -0.2547 -0.3877 -0.1117
 8259TIP3   OH246267   4.950   4.356  16.896  0.1135  0.8154  0.1039
 8259TIP3    H146268   4.903   4.363  16.979 -0.3163  1.1540 -0.1675
 8259TIP3    H246269   4.883   4.371  16.829  0.3632  0.0711 -0.3214
 8260TIP3   OH246270   2.111   4.915   2.000 -0.0840 -0.1231 -0.0183
 8260TIP3    H146271   2.096   4.857   2.075 -0.2750  0.5930  0.5148
 8260TIP3    H246272   2.092   4.861   1.923 -1.6076 -0.3882  0.5082
 8261TIP3   OH246273   6.683   4.668  16.828 -0.6434  0.2061 -0.0700
 8261TIP3    H146274   6.748   4.720  16.875  0.1160  0.6462 -1.5188
 8261TIP3    H246275   6.716   4.665  16.738 -1.4998 -1.4380 -0.3774
 8262TIP3   OH246276   2.120   6.793   0.347 -0.0110  0.2075  0.3455
 8262TIP3    H146277   2.179   6.866   0.325 -0.2245  0.5208  0.8080
 8262TIP3    H246278   2.173   6.734   0.401  0.7072 -0.8686 -1.4428
 8263TIP3   OH246279   3.088   1.095   1.383  0.3976 -0.3800  0.4396
 8263TIP3    H146280   3.083   1.091   1.288  1.4333  0.1264  0.3485
 8263TIP3    H246281   3.089   1.004   1.411 -0.4093 -0.5316  0.0068
 8264TIP3   OH246282   2.043   1.064   5.403  0.1951 -0.1565  0.5199
 8264TIP3    H146283   1.951   1.051   5.383  0.2876  0.0041 -0.0439
 8264TIP3    H246284   2.080   1.101   5.322  0.9923 -1.3170  0.3393
 8265TIP3   OH246285   1.610   0.617  12.061  0.1751  0.3346 -0.2936
 8265TIP3    H146286   1.552   0.552  12.101 -0.3303  0.8221 -0.2252
 8265TIP3    H246287   1.583   0.620  11.969 -1.5818  2.2961  0.2068
 8266TIP3   OH246288   3.819   0.253  16.522  0.3214 -0.6667  0.3204
 8266TIP3    H146289   3.806   0.348  16.526 -0.0951 -0.6095 -1.4876
 8266TIP3    H246290   3.736   0.217  16.555  0.6720 -0.4356  1.5106
 8267TIP3   OH246291   0.648   2.218  11.069 -0.2380 -0.2474  0.0303
 8267TIP3    H146292   0.708   2.162  11.020 -0.4163 -0.8242  0.4543
 8267TIP3    H246293   0.629   2.291  11.011  1.5789  0.4136  0.2074
 8268TIP3   OH246294   3.736   0.673   0.679 -0.0347  0.0794 -0.8751
 8268TIP3    H146295   3.726   0.642   0.769 -0.7978 -1.0494 -1.3330
 8268TIP3    H246296   3.683   0.613   0.626 -2.7785  2.9374 -1.6797
 8269TIP3   OH246297   1.063   0.232   5.182  0.0634 -0.3650  0.0529
 8269TIP3    H146298   1.010   0.292   5.234  0.3058  1.2253 -1.4549
 8269TIP3    H246299   1.000   0.187   5.126 -0.0059 -0.7600  0.4435
 8270TIP3   OH246300   3.764   4.343  14.481  0.3790 -0.1425 -0.0486
 8270TIP3    H146301   3.728   4.328  14.393 -1.6180  2.0709  0.2755
 8270TIP3    H246302   3.743   4.264  14.530 -1.1746 -0.2511 -0.8149
 8271TIP3   OH246303   1.648   3.874  11.302  0.1061 -0.2126  0.5964
 8271TIP3    H146304   1.574   3.930  11.276  0.9653  0.5303 -0.3564
 8271TIP3    H246305   1.665   3.897  11.393 -0.8031 -0.3680  0.8200
 8272TIP3   OH246306   2.173   3.809  12.111  0.0027  0.5546  0.2090
 8272TIP3    H146307   2.131   3.725  12.130 -1.1053  1.1403  0.4523
 8272TIP3    H246308   2.182   3.851  12.196  1.1779  0.4101  0.1672
 8273TIP3   OH246309   3.902   1.594  10.532 -0.5963 -0.1902 -0.0791
 8273TIP3    H146310   3.936   1.535  10.598  1.3903  0.4944 -0.4270
 8273TIP3    H246311   3.845   1.654  10.580  0.7093  0.2142  1.0168
 8274TIP3   OH246312   2.499   0.313   0.004 -0.2750  0.0801  0.1740
 8274TIP3    H146313   2.472   0.262  -0.073  1.4605 -0.3371 -0.1950
 8274TIP3    H246314   2.562   0.257   0.049  0.2919  1.1721  0.7745
 8275TIP3   OH246315   3.160   5.071   6.070 -0.3334 -0.1670 -0.1667
 8275TIP3    H146316   3.183   5.058   6.162  0.1480  0.2747 -0.2243
 8275TIP3    H246317   3.106   4.995   6.048  1.0152 -1.1973 -0.0177
 8276TIP3   OH246318   2.049   1.958   3.168 -0.0214  0.0619 -0.0722
 8276TIP3    H146319   1.959   1.979   3.196 -0.6066 -1.5994 -0.6073
 8276TIP3    H246320   2.069   1.876   3.213  1.9018  1.2472  1.3601
 8277TIP3   OH246321   3.814   6.712  13.228  0.0489  0.5256 -0.5534
 8277TIP3    H146322   3.874   6.774  13.186 -0.4204  0.8589 -0.7430
 8277TIP3    H246323   3.739   6.707  13.169  0.7552 -1.4811 -1.3793
 8278TIP3   OH246324   0.565   5.647   2.700 -0.0290 -0.2091  0.3696
 8278TIP3    H146325   0.544   5.595   2.778 -2.0123 -0.4081 -0.2432
 8278TIP3    H246326   0.639   5.701   2.726 -1.3126  0.5266  2.7743
 8279TIP3   OH246327   2.354   0.763   5.170 -0.4229 -0.0658 -0.4811
 8279TIP3    H146328   2.408   0.690   5.140 -1.1985 -1.1234  0.6180
 8279TIP3    H246329   2.404   0.841   5.145  0.1574 -0.9312 -2.1946
 8280TIP3   OH246330   1.135   2.988  13.560 -0.5177  0.3748  0.0001
 8280TIP3    H146331   1.175   3.032  13.485 -0.1039  2.3015  1.2712
 8280TIP3    H246332   1.209   2.951  13.608 -0.8532 -1.7100 -0.9851
 8281TIP3   OH246333   2.840   0.758  16.131  0.6820  0.4931 -0.5021
 8281TIP3    H146334   2.813   0.691  16.194  0.2776  0.1857 -0.9973
 8281TIP3    H246335   2.786   0.834  16.152  0.7150  0.4696 -0.3290
 8282TIP3   OH246336   4.243   4.982  11.490  0.3854  0.0852  0.8714
 8282TIP3    H146337   4.154   4.954  11.509 -0.5202  0.9856 -1.6656
 8282TIP3    H246338   4.257   5.058  11.546 -0.8392  0.5371  0.5970
 8283TIP3   OH246339   0.841   6.013   0.180 -0.4404  0.3010 -0.2595
 8283TIP3    H146340   0.802   6.045   0.261 -0.2906 -0.2828  0.0520
 8283TIP3    H246341   0.926   5.977   0.207 -0.3953  0.0855 -0.6701
 8284TIP3   OH246342   0.960   4.183   3.687  0.0056  0.0035  0.2179
 8284TIP3    H146343   1.041   4.231   3.704  0.2495 -0.5192  0.5232
 8284TIP3    H246344   0.907   4.197   3.766  0.0091 -0.0943  0.2370
 8285TIP3   OH246345   4.314   2.246  16.465  0.3857 -0.7139 -0.2072
 8285TIP3    H146346   4.409   2.256  16.472  0.0858  1.6594  2.9877
 8285TIP3    H246347   4.289   2.300  16.390  1.5153 -0.9009 -0.7303
 8286TIP3   OH246348   0.611   5.962   2.929  0.3615 -0.4117 -0.1162
 8286TIP3    H146349   0.610   5.900   2.856  2.9366  0.1690 -0.7347
 8286TIP3    H246350   0.628   6.047   2.888  0.1156  0.1998  1.0155
 8287TIP3   OH246351   4.678   3.916  11.638 -0.0261  0.3011  0.1933
 8287TIP3    H146352   4.703   3.939  11.548 -1.8663 -0.1202 -0.4747
 8287TIP3    H246353   4.611   3.848  11.628  1.5376 -1.6552  1.9839
 8288TIP3   OH246354   4.041   5.867   3.909 -0.0008 -0.1200  0.1832
 8288TIP3    H146355   3.964   5.916   3.881 -0.0873  0.4400  1.3015
 8288TIP3    H246356   4.064   5.812   3.835 -0.2843  1.1667 -0.8981
 8289TIP3   OH246357   4.133   6.754   2.446  0.1980  0.6725  0.2099
 8289TIP3    H146358   4.146   6.704   2.366 -0.0215 -0.7903  1.0529
 8289TIP3    H246359   4.203   6.819   2.445 -0.1924  1.1039 -1.4603
 8290TIP3   OH246360   1.443   1.898  16.028  0.8072  0.1231  0.3166
 8290TIP3    H146361   1.521   1.847  16.007  1.1234  0.9783 -0.7255
 8290TIP3    H246362   1.438   1.964  15.958 -0.6192  0.3446  0.5833
 8291TIP3   OH246363   6.120   6.204  16.990  0.0026  0.2558  0.0400
 8291TIP3    H146364   6.135   6.111  16.970  1.5236  0.1958  1.2565
 8291TIP3    H246365   6.202   6.233  17.029 -0.8447  1.8470  0.7096
 8292TIP3   OH246366   5.281   1.777   3.271 -0.0279  0.0693  0.5891
 8292TIP3    H146367   5.242   1.749   3.354 -0.2306 -0.0304  0.4616
 8292TIP3    H246368   5.361   1.726   3.263 -0.8092 -1.1008 -0.0434
 8293TIP3   OH246369   6.812   6.439  12.083 -0.3655  0.0002 -0.2485
 8293TIP3    H146370   6.734   6.393  12.112 -0.5346  0.8645  0.7222
 8293TIP3    H246371   6.809   6.434  11.987 -2.5113  1.4341 -0.3166
 8294TIP3   OH246372   3.413   3.621   4.567  0.0296  0.3782  0.2516
 8294TIP3    H146373   3.411   3.622   4.662 -0.9026  0.8103  0.2403
 8294TIP3    H246374   3.322   3.629   4.541  0.3063  0.6584 -0.6795
 8295TIP3   OH246375   2.154   3.054   5.111  0.5666 -0.2802  0.3829
 8295TIP3    H146376   2.206   3.069   5.032 -0.0705  1.0317  0.1897
 8295TIP3    H246377   2.213   3.076   5.184  1.7099 -3.0727  0.4142
 8296TIP3   OH246378   2.510   6.836   4.690 -0.1414  0.0390 -0.4616
 8296TIP3    H146379   2.604   6.819   4.693 -0.3783 -1.3996 -0.3418
 8296TIP3    H246380   2.503   6.929   4.672  1.3067  0.1988 -0.3277
 8297TIP3   OH246381   5.195   1.515  11.832  0.1951 -0.3816 -0.3938
 8297TIP3    H146382   5.172   1.606  11.811 -1.2948 -0.8628 -0.9394
 8297TIP3    H246383   5.262   1.493  11.767  1.8644  0.8342  0.8123
 8298TIP3   OH246384   2.385   1.198   4.100 -0.2117 -0.3715 -0.3340
 8298TIP3    H146385   2.400   1.228   4.010  0.7247  0.1595 -0.0204
 8298TIP3    H246386   2.290   1.195   4.109 -0.4124  2.4955 -0.4438
 8299TIP3   OH246387   6.196   1.954  14.201  0.1430  0.3712  0.3479
 8299TIP3    H146388   6.277   1.913  14.230  1.3262  1.6617 -0.9700
 8299TIP3    H246389   6.145   1.883  14.163  1.8725 -0.0592 -1.3265
 8300TIP3   OH246390   1.399   4.814  17.032  0.1078 -0.4160 -0.5708
 8300TIP3    H146391   1.378   4.844  17.120 -1.6797 -2.3367 -0.2614
 8300TIP3    H246392   1.457   4.739  17.045 -0.0802 -0.6461 -1.0273
 8301TIP3   OH246393   1.558   5.139  12.314 -0.2708 -0.2661  0.2236
 8301TIP3    H146394   1.526   5.220  12.275  0.1679  0.1502  0.7133
 8301TIP3    H246395   1.615   5.100  12.247  0.2775  0.3146  0.3467
 8302TIP3   OH246396   4.200   6.082  13.355 -0.2576  0.0487 -0.0362
 8302TIP3    H146397   4.278   6.137  13.365 -0.2422  0.3168 -1.4737
 8302TIP3    H246398   4.155   6.117  13.279 -0.3777 -1.7845 -0.8671
 8303TIP3   OH246399   5.241   5.784   4.877 -0.1696 -0.2430  0.1852
 8303TIP3    H146400   5.185   5.718   4.919  3.5759 -2.7082  1.8889
 8303TIP3    H246401   5.290   5.735   4.811  1.6969  1.1055  0.4911
 8304TIP3   OH246402   1.114   2.326   4.332 -0.2577  0.3825  1.0418
 8304TIP3    H146403   1.095   2.259   4.398  0.9547 -0.3436  0.6813
 8304TIP3    H246404   1.202   2.306   4.302 -1.1326  0.0216 -1.5727
 8305TIP3   OH246405   6.150   2.957   5.299 -0.1769  0.2405 -0.0586
 8305TIP3    H146406   6.236   2.990   5.325 -0.5288  0.6281  0.6457
 8305TIP3    H246407   6.149   2.866   5.330 -1.1227  1.0825  2.7602
 8306TIP3   OH246408   1.727   5.492   0.410  1.2928 -0.1186 -0.2208
 8306TIP3    H146409   1.662   5.423   0.429 -1.4289  2.4231  0.4219
 8306TIP3    H246410   1.782   5.494   0.489 -0.9945  0.8414  1.4830
 8307TIP3   OH246411   2.580   3.178  14.067  0.0160  0.0239  0.3918
 8307TIP3    H146412   2.487   3.157  14.074  0.0009  0.2975  1.0814
 8307TIP3    H246413   2.583   3.274  14.068  0.2159  0.0523 -0.9357
 8308TIP3   OH246414   1.760   1.778   0.924  0.0701  0.0872 -0.4202
 8308TIP3    H146415   1.739   1.868   0.900 -2.5509 -0.4209 -0.3192
 8308TIP3    H246416   1.851   1.781   0.953  0.1832  2.5972 -0.8635
 8309TIP3   OH246417   3.490   3.958  15.543 -0.2200  0.0474 -0.2147
 8309TIP3    H146418   3.539   4.010  15.479 -0.2521 -0.5342 -0.7159
 8309TIP3    H246419   3.426   4.019  15.580 -0.8611  0.1398 -1.4548
 8310TIP3   OH246420   1.321   3.131   1.106 -0.0838  0.2064 -0.5890
 8310TIP3    H146421   1.291   3.200   1.047 -0.0355  0.0592 -0.7847
 8310TIP3    H246422   1.251   3.123   1.171  0.7712  1.8307  0.6237
 8311TIP3   OH246423   6.700   5.977  13.411  0.5527 -0.1624  0.5130
 8311TIP3    H146424   6.616   5.934  13.393  0.7471 -0.8645  1.2233
 8311TIP3    H246425   6.729   6.010  13.326  0.8123 -2.1967 -0.2424
 8312TIP3   OH246426   5.201   1.934   3.063 -0.5399 -0.0942 -0.4345
 8312TIP3    H146427   5.178   1.856   3.114  0.5089 -0.7383 -0.9133
 8312TIP3    H246428   5.164   2.006   3.113 -2.2650 -0.9461 -0.4055
 8313TIP3   OH246429   1.344   3.921   5.085  0.8499 -0.6418  0.7346
 8313TIP3    H146430   1.381   3.975   5.155  0.6303 -1.6361  1.6546
 8313TIP3    H246431   1.264   3.967   5.059  0.3290 -0.8276  1.9460
 8314TIP3   OH246432   0.514   0.372   3.613 -0.1689  0.0632  0.0390
 8314TIP3    H146433   0.609   0.382   3.605 -0.1262 -1.0366 -1.4317
 8314TIP3    H246434   0.478   0.437   3.552 -0.4261  1.0915  1.2438
 8315TIP3   OH246435   5.022   4.456  11.704  0.0190 -0.3540  0.2729
 8315TIP3    H146436   5.045   4.494  11.620  0.4527 -2.1785 -0.4831
 8315TIP3    H246437   5.035   4.527  11.767  0.0040  0.9471 -1.1336
 8316TIP3   OH246438   2.386   1.154  13.916 -0.4565  0.4408 -0.0810
 8316TIP3    H146439   2.388   1.063  13.886 -0.0186  0.4363 -0.0377
 8316TIP3    H246440   2.353   1.148  14.006  1.6930  0.0795  0.7536
 8317TIP3   OH246441   6.444   5.494  12.776  0.1871 -0.1816  0.1176
 8317TIP3    H146442   6.427   5.459  12.689  0.0249  1.6536 -0.6309
 8317TIP3    H246443   6.388   5.442  12.834 -0.1436 -1.0428 -0.9432
 8318TIP3   OH246444   4.994   4.346  13.096 -0.0685 -0.0377  0.2098
 8318TIP3    H146445   5.011   4.429  13.140 -1.1668 -0.1261  0.8462
 8318TIP3    H246446   4.956   4.290  13.164  0.6016 -1.0485 -0.2192
 8319TIP3   OH246447   4.852   6.517  10.960 -0.5037  0.0300 -0.2922
 8319TIP3    H146448   4.936   6.475  10.942  0.8202  1.7398  1.3835
 8319TIP3    H246449   4.787   6.459  10.922  1.3237 -2.3095 -0.0608
 8320TIP3   OH246450   4.505   4.252  14.326  0.5516  0.0003  0.3807
 8320TIP3    H146451   4.414   4.225  14.340  1.1296 -3.7576 -1.8020
 8320TIP3    H246452   4.555   4.204  14.393  1.3941 -3.3450 -2.3309
 8321TIP3   OH246453   2.051   2.443  14.311  0.2811  0.2065  0.2667
 8321TIP3    H146454   1.975   2.387  14.323  0.2557  0.3440  0.7654
 8321TIP3    H246455   2.104   2.399  14.245 -1.4741  1.4058 -2.0851
 8322TIP3   OH246456   1.322   5.105  14.700  0.5022  0.1222  0.3698
 8322TIP3    H146457   1.357   5.178  14.648 -1.4916 -0.1397 -1.4980
 8322TIP3    H246458   1.256   5.146  14.756  0.7359 -0.0017  0.7421
 8323TIP3   OH246459   6.048   1.331  14.882  0.4343  0.1203 -0.5004
 8323TIP3    H146460   6.119   1.329  14.947  0.7196  0.0033 -0.8136
 8323TIP3    H246461   6.048   1.244  14.844 -0.7295 -0.2962  0.4031
 8324TIP3   OH246462   5.670   4.152  14.417 -0.2935  0.1702  0.1157
 8324TIP3    H146463   5.749   4.191  14.455  0.1879 -0.4231 -0.2520
 8324TIP3    H246464   5.623   4.115  14.492 -0.5995  1.1560  0.4273
 8325TIP3   OH246465   4.821   5.820   1.601  0.5253  0.0291  0.4593
 8325TIP3    H146466   4.911   5.810   1.571  0.9784  2.4496  0.8006
 8325TIP3    H246467   4.826   5.884   1.671 -1.6011  1.1761 -0.3449
 8326TIP3   OH246468   4.881   6.813   3.254 -0.5757 -0.3496  0.1564
 8326TIP3    H146469   4.974   6.837   3.252 -0.3207 -1.3271 -0.2838
 8326TIP3    H246470   4.841   6.872   3.190 -0.1313 -0.4077 -0.1865
 8327TIP3   OH246471   1.116   5.903  11.718  0.2750  0.4046 -0.0231
 8327TIP3    H146472   1.170   5.828  11.691  1.5873  1.2578  0.0913
 8327TIP3    H246473   1.085   5.880  11.806 -2.1187 -1.4003 -1.2208
 8328TIP3   OH246474   4.842   2.278  14.087  0.0135  0.0823  0.7528
 8328TIP3    H146475   4.841   2.373  14.073  0.0221 -0.0985 -0.6012
 8328TIP3    H246476   4.889   2.243  14.011 -0.1069 -1.0157  1.1704
 8329TIP3   OH246477   2.366   2.921   2.293 -0.0942  0.0518  0.2138
 8329TIP3    H146478   2.413   2.947   2.372 -0.3427  2.9593 -0.4521
 8329TIP3    H246479   2.426   2.944   2.221 -0.9515  0.0712 -0.5122
 8330TIP3   OH246480   2.460   1.985   5.905  0.2637  0.2825 -0.5779
 8330TIP3    H146481   2.512   1.994   5.985 -0.5514  0.2956 -0.0426
 8330TIP3    H246482   2.525   1.977   5.835  0.9799  0.8494  0.0151
 8331TIP3   OH246483   6.629   2.007   5.677  0.4572 -0.3676  0.6551
 8331TIP3    H146484   6.657   2.080   5.623 -3.7032  1.3250  0.4507
 8331TIP3    H246485   6.593   1.943   5.615 -1.0321 -0.0207  1.1223
 8332TIP3   OH246486   2.994   4.292   4.544  0.1363  0.2210 -0.0942
 8332TIP3    H146487   2.933   4.338   4.602 -0.8739 -0.6585 -0.4422
 8332TIP3    H246488   3.080   4.309   4.582 -0.3870  0.7952  0.8706
 8333TIP3   OH246489   3.295   3.363   1.973  0.3304 -0.5381 -0.6835
 8333TIP3    H146490   3.220   3.356   2.032  1.4768 -1.3839  0.7504
 8333TIP3    H246491   3.352   3.290   1.999  2.7040  1.3876 -0.1556
 8334TIP3   OH246492   2.973   2.679  13.941  0.2513  0.0870  0.2751
 8334TIP3    H146493   2.962   2.702  14.033  1.3558 -0.5814  0.5992
 8334TIP3    H246494   3.047   2.733  13.912 -0.6098  0.8980 -0.4546
 8335TIP3   OH246495   6.036   1.078  11.721  0.0332 -0.4438  0.1398
 8335TIP3    H146496   5.949   1.103  11.752  0.4311  2.5224 -0.7941
 8335TIP3    H246497   6.019   1.017  11.650 -1.3019  0.0579 -0.0118
 8336TIP3   OH246498   5.872   2.552  11.459 -0.3020  0.2345 -0.5508
 8336TIP3    H146499   5.965   2.573  11.464 -0.4440  1.0111 -1.0109
 8336TIP3    H246500   5.828   2.625  11.501 -0.7118 -0.1114 -0.3707
 8337TIP3   OH246501   0.600   2.646  13.110  0.1782  0.2435 -0.0310
 8337TIP3    H146502   0.553   2.683  13.035  0.3391 -0.5370 -0.5292
 8337TIP3    H246503   0.536   2.645  13.181 -0.3210 -0.0611 -0.4783
 8338TIP3   OH246504   6.486   1.968   1.993  0.2163  0.2350 -0.4914
 8338TIP3    H146505   6.472   2.057   1.959  1.7557  1.5778  2.1003
 8338TIP3    H246506   6.403   1.923   1.975 -1.9021  3.2057  0.9448
 8339TIP3   OH246507   6.346   5.847  13.774 -0.5665 -0.1257  0.4496
 8339TIP3    H146508   6.427   5.872  13.819 -1.1399  2.2088  0.3310
 8339TIP3    H246509   6.277   5.896  13.820 -1.8850 -1.7711  0.3156
 8340TIP3   OH246510   1.046   3.783   0.393  0.7011  0.1801 -0.5177
 8340TIP3    H146511   1.071   3.874   0.378 -0.2850  0.6133  0.2868
 8340TIP3    H246512   1.111   3.750   0.454 -1.6425  1.9512  3.3332
 8341TIP3   OH246513   0.115   2.206   6.054  0.1151  0.7155  0.5405
 8341TIP3    H146514   0.034   2.188   6.006  0.0002 -0.4083  1.1275
 8341TIP3    H246515   0.091   2.273   6.119  0.2633  2.2274 -0.8863
 8342TIP3   OH246516   5.303   2.070  11.050 -0.2133 -1.0216 -0.5642
 8342TIP3    H146517   5.370   2.138  11.059 -0.7852 -0.4800 -0.2768
 8342TIP3    H246518   5.322   2.008  11.120  0.2501 -1.1100 -0.7618
 8343TIP3   OH246519   1.264   3.128  10.889  0.0611  0.3756  0.4426
 8343TIP3    H146520   1.311   3.194  10.940  1.4421 -0.4518  0.2711
 8343TIP3    H246521   1.206   3.179  10.832  0.8479  1.4227  0.5456
 8344TIP3   OH246522   3.292   6.668   5.283 -0.1281 -0.5067 -0.2493
 8344TIP3    H146523   3.311   6.623   5.201 -0.4525 -0.7923 -0.1723
 8344TIP3    H246524   3.377   6.691   5.319  0.0291 -0.8527 -0.4042
 8345TIP3   OH246525   5.639   6.707  13.154 -0.5932  0.1198  0.3519
 8345TIP3    H146526   5.625   6.797  13.185  0.6088  0.6084 -0.4514
 8345TIP3    H246527   5.559   6.661  13.180 -0.5700  1.0124  2.1962
 8346TIP3   OH246528   1.080   5.455   5.310  0.1987  0.6052 -0.0852
 8346TIP3    H146529   1.125   5.370   5.312  0.3156  0.6456 -0.8087
 8346TIP3    H246530   1.026   5.452   5.232  0.0632  1.1286 -0.0167
 8347TIP3   OH246531   0.041   1.349   0.693  0.6956 -0.1949 -0.2541
 8347TIP3    H146532   0.038   1.342   0.789  0.5947  1.0519 -0.1445
 8347TIP3    H246533  -0.010   1.428   0.674  1.2443 -0.0774 -1.2922
 8348TIP3   OH246534   6.758   3.531   5.700 -0.2145 -0.1349 -0.0621
 8348TIP3    H146535   6.706   3.608   5.679  0.7766  0.2779 -1.0683
 8348TIP3    H246536   6.729   3.464   5.638  1.1158  0.4015 -1.3220
 8349TIP3   OH246537   3.732   4.346  15.822  0.0058 -0.1087 -0.3099
 8349TIP3    H146538   3.756   4.264  15.778 -1.8494 -0.6952 -0.3266
 8349TIP3    H246539   3.813   4.397  15.824  0.7986 -1.2051 -1.9205
 8350TIP3   OH246540   0.640   6.459   1.613  0.4769  0.2203  0.6730
 8350TIP3    H146541   0.696   6.527   1.574  1.9703 -0.4026  1.6357
 8350TIP3    H246542   0.694   6.380   1.613 -1.4517 -1.1993 -1.0386
 8351TIP3   OH246543   6.267   6.141  13.861 -0.1078 -0.1629 -0.1354
 8351TIP3    H146544   6.205   6.113  13.793  1.6121 -1.8851 -1.0921
 8351TIP3    H246545   6.349   6.156  13.814  0.7921 -0.1514  1.3817
 8352TIP3   OH246546   2.076   1.364   0.666 -0.0065  0.1387 -0.5154
 8352TIP3    H146547   2.165   1.333   0.650  0.6710  0.2900  2.2964
 8352TIP3    H246548   2.021   1.287   0.652  0.6601 -0.1741 -1.4788
 8353TIP3   OH246549   4.896   2.682  14.530 -0.0452  0.3954 -0.1178
 8353TIP3    H146550   4.987   2.664  14.508  0.3865  2.8443 -0.6583
 8353TIP3    H246551   4.899   2.723  14.616 -0.7283 -0.0771  0.1438
 8354TIP3   OH246552   2.446   5.147  15.645 -0.1864  0.3471  0.7159
 8354TIP3    H146553   2.467   5.073  15.589 -0.3932  1.4303 -0.8430
 8354TIP3    H246554   2.356   5.130  15.674 -0.8002  0.7062 -0.8757
 8355TIP3   OH246555   0.898   3.853  16.583  0.1845 -0.1369 -0.1489
 8355TIP3    H146556   0.877   3.762  16.602 -0.0874 -0.3404 -1.3376
 8355TIP3    H246557   0.972   3.873  16.641  0.7686 -1.3630 -0.4293
 8356TIP3   OH246558   1.250   5.071   2.334  0.1023 -0.1206  0.0069
 8356TIP3    H146559   1.163   5.084   2.373  0.4895 -0.5789  1.0768
 8356TIP3    H246560   1.291   5.157   2.336 -1.0532  0.5779 -2.4510
 8357TIP3   OH246561   5.546   1.752  12.464 -0.0177  0.3429  0.3827
 8357TIP3    H146562   5.525   1.694  12.391  0.1831  1.4649 -0.6109
 8357TIP3    H246563   5.636   1.729  12.487 -0.4130 -0.6775  0.9290
 8358TIP3   OH246564   4.179   0.505  12.552 -0.1100 -0.9860  0.0212
 8358TIP3    H146565   4.168   0.577  12.490  1.0933 -0.2602  0.6076
 8358TIP3    H246566   4.114   0.522  12.620 -0.4174 -0.9420 -0.2800
 8359TIP3   OH246567   1.631   5.291   3.755 -0.5339 -0.5750  0.0602
 8359TIP3    H146568   1.670   5.210   3.721  0.8739  0.1753 -0.1691
 8359TIP3    H246569   1.669   5.300   3.843  1.9859  1.5134 -1.1066
 8360TIP3   OH246570   5.130   2.853  16.573  0.0746 -0.0576 -0.1371
 8360TIP3    H146571   5.100   2.900  16.651  0.8775 -0.6870  0.5758
 8360TIP3    H246572   5.053   2.806  16.542 -0.2790  0.2889  0.2046
 8361TIP3   OH246573   4.558   5.807  14.315  0.5766 -0.6552  0.0254
 8361TIP3    H146574   4.554   5.712  14.322 -0.1140 -0.6160  0.3256
 8361TIP3    H246575   4.489   5.838  14.375  0.0976 -0.0027 -0.8419
 8362TIP3   OH246576   1.427   4.908  11.870  0.5203  0.0367  0.2089
 8362TIP3    H146577   1.354   4.970  11.861 -1.0344 -1.8980 -1.3825
 8362TIP3    H246578   1.423   4.880  11.961  0.9621  1.8583  0.8408
 8363TIP3   OH246579   6.722   1.847   4.932  0.6051 -0.4619  0.1063
 8363TIP3    H146580   6.770   1.923   4.965  1.7993 -0.8107 -0.7658
 8363TIP3    H246581   6.639   1.883   4.900  0.5505  0.2520  1.0151
 8364TIP3   OH246582   6.803   2.727   3.212  0.3347 -0.3446  0.4259
 8364TIP3    H146583   6.728   2.670   3.192 -0.2574  1.3159 -2.7013
 8364TIP3    H246584   6.764   2.804   3.254  0.1136  0.7697 -1.7082
 8365TIP3   OH246585   2.589   1.068  12.904 -0.1719 -0.1092 -0.1304
 8365TIP3    H146586   2.506   1.059  12.951  0.0202 -0.3128  0.1747
 8365TIP3    H246587   2.604   0.981  12.865 -0.4826  0.1448 -0.8293
 8366TIP3   OH246588   3.615   2.087  15.578  0.1194 -0.1004 -0.4246
 8366TIP3    H146589   3.658   2.169  15.557  0.9340 -0.1067  1.0813
 8366TIP3    H246590   3.668   2.020  15.535  0.3558  0.0452 -0.3597
 8367TIP3   OH246591   6.681   0.490  12.786  0.5018 -0.0489 -1.0715
 8367TIP3    H146592   6.746   0.534  12.731  0.9103  0.7469  0.0165
 8367TIP3    H246593   6.680   0.540  12.867 -1.4089 -0.1169 -1.0115
 8368TIP3   OH246594   6.429   5.216  15.120  0.6706  0.2267 -0.2541
 8368TIP3    H146595   6.398   5.274  15.190 -0.8165 -0.6845 -0.1225
 8368TIP3    H246596   6.420   5.128  15.156  1.1156 -0.1867 -1.1279
 8369TIP3   OH246597   2.894   1.132  13.711 -1.0052 -0.6998 -0.1930
 8369TIP3    H146598   2.848   1.214  13.725  1.5338  0.4050  2.6553
 8369TIP3    H246599   2.936   1.142  13.625 -0.5308  1.1423  0.2216
 8370TIP3   OH246600   5.638   3.622  10.992 -0.1984 -0.0009  0.1126
 8370TIP3    H146601   5.626   3.631  11.086 -0.0534 -1.8937  0.3380
 8370TIP3    H246602   5.550   3.635  10.956 -0.3501  0.1769  0.5361
 8371TIP3   OH246603   0.405   3.954   2.887 -0.1422 -0.4279 -0.0009
 8371TIP3    H146604   0.406   3.891   2.814  2.6119  0.1824 -0.6086
 8371TIP3    H246605   0.448   4.032   2.852 -1.1370  0.8695  1.5281
 8372TIP3   OH246606   3.440   3.513   0.541  0.0899 -0.5051  0.3343
 8372TIP3    H146607   3.401   3.496   0.455  1.1071 -0.4162 -0.1504
 8372TIP3    H246608   3.385   3.583   0.578 -0.6268 -0.8549 -0.0394
 8373TIP3   OH246609   4.352   4.622   6.345 -0.3719  0.0950  0.1916
 8373TIP3    H146610   4.439   4.651   6.373  0.0883 -0.5916 -0.4925
 8373TIP3    H246611   4.314   4.580   6.422 -0.1667  0.5390  0.5391
 8374TIP3   OH246612   3.238   6.857  13.582  0.1376  0.4214 -0.9036
 8374TIP3    H146613   3.227   6.952  13.579  0.5472  0.5086  0.0067
 8374TIP3    H246614   3.314   6.843  13.639 -0.0900 -0.4599 -0.7945
 8375TIP3   OH246615   0.372   0.910   3.684  0.6474 -0.3319 -0.8637
 8375TIP3    H146616   0.349   0.829   3.638 -3.0365  0.1089 -0.1142
 8375TIP3    H246617   0.381   0.883   3.775  0.6475 -0.1233 -0.8021
 8376TIP3   OH246618   1.229   0.486  14.472  0.2301  0.0652  0.0427
 8376TIP3    H146619   1.148   0.537  14.465  0.6428  1.0428  1.8173
 8376TIP3    H246620   1.201   0.396  14.456 -0.4201  0.7708 -3.7527
 8377TIP3   OH246621   6.399   0.480   3.237 -0.1257 -0.1348 -0.1272
 8377TIP3    H146622   6.423   0.503   3.147 -1.8015 -0.6345 -0.7427
 8377TIP3    H246623   6.333   0.544   3.262  1.3954  0.9386  1.3503
 8378TIP3   OH246624   3.764   1.533   2.821  0.8632 -0.2124 -0.1212
 8378TIP3    H146625   3.681   1.544   2.775 -0.3053 -1.4304  1.5806
 8378TIP3    H246626   3.798   1.622   2.830 -0.9174  0.4671  0.3121
 8379TIP3   OH246627   6.858   5.231  15.802 -0.4412  0.0986 -0.3163
 8379TIP3    H146628   6.920   5.185  15.746  0.6514 -0.2146  1.1086
 8379TIP3    H246629   6.912   5.274  15.868 -1.7588 -1.4283  1.8910
 8380TIP3   OH246630   3.575   0.974   2.330 -0.0316  0.0372 -0.0472
 8380TIP3    H146631   3.517   0.945   2.259 -0.0366  3.1826 -1.5080
 8380TIP3    H246632   3.524   1.040   2.377  1.0032  0.0261  1.1623
 8381TIP3   OH246633   2.263   3.348   3.133 -0.0029 -0.0742 -0.7150
 8381TIP3    H146634   2.335   3.286   3.130 -0.5859 -0.8581  0.4711
 8381TIP3    H246635   2.188   3.300   3.099 -0.5885 -0.2467  0.7563
 8382TIP3   OH246636   2.380   0.187  12.482  0.3703  0.0916  0.1786
 8382TIP3    H146637   2.284   0.181  12.489  0.3171  0.9169  0.2433
 8382TIP3    H246638   2.396   0.213  12.392  0.5585 -0.4703  0.0483
 8383TIP3   OH246639   3.668   0.696  16.567 -0.2378  0.5117  0.0752
 8383TIP3    H146640   3.705   0.734  16.647  0.3084 -2.1706  1.2227
 8383TIP3    H246641   3.742   0.648  16.528 -1.6354 -2.4084  0.7561
 8384TIP3   OH246642   2.463   1.820  16.273 -0.3033  0.6891 -0.6582
 8384TIP3    H146643   2.529   1.751  16.267 -0.4012  0.3818  1.2120
 8384TIP3    H246644   2.412   1.798  16.350 -0.4238  2.7765 -0.0743
 8385TIP3   OH246645   2.299   5.935  12.276 -0.1045  0.0514  0.2687
 8385TIP3    H146646   2.288   5.894  12.190  2.4825 -0.5259  0.1430
 8385TIP3    H246647   2.330   5.864  12.332 -3.0895  0.0532  2.1577
 8386TIP3   OH246648   2.566   1.935  13.781 -0.1203 -0.0811  0.3371
 8386TIP3    H146649   2.635   1.969  13.725 -1.7654  1.1937 -1.0164
 8386TIP3    H246650   2.519   2.013  13.812 -0.0976 -0.8302  2.4126
 8387TIP3   OH246651   1.256   4.245   0.765  0.5427  0.6519 -0.1178
 8387TIP3    H146652   1.169   4.213   0.789 -0.3840  1.7932 -1.7936
 8387TIP3    H246653   1.298   4.171   0.722 -0.4212  0.7254 -1.2113
 8388TIP3   OH246654   1.458   1.210   3.654 -0.1917 -0.1877 -0.4566
 8388TIP3    H146655   1.508   1.179   3.578 -0.2093 -1.2600 -0.0496
 8388TIP3    H246656   1.458   1.305   3.645  1.2804 -0.1955 -0.8868
 8389TIP3   OH246657   5.294   5.307   0.261  0.3746 -0.2988 -0.3242
 8389TIP3    H146658   5.377   5.297   0.216  0.8977 -1.4982  0.8434
 8389TIP3    H246659   5.309   5.376   0.326  0.7744 -1.2019  0.5577
 8390TIP3   OH246660   6.166   6.581   3.129 -0.6106 -0.0400  0.4417
 8390TIP3    H146661   6.141   6.618   3.214  0.1244 -1.6681  1.4086
 8390TIP3    H246662   6.261   6.577   3.131 -0.5655  0.2303 -0.6239
 8391TIP3   OH246663   4.192   1.112   4.772 -0.0350  0.5056 -0.5434
 8391TIP3    H146664   4.193   1.185   4.834 -0.6166  0.3187 -0.3102
 8391TIP3    H246665   4.175   1.035   4.826  2.7991 -0.1670 -0.4405
 8392TIP3   OH246666   5.095   2.225  15.360  0.0035  0.0988 -0.4656
 8392TIP3    H146667   5.114   2.137  15.392 -0.1626 -0.6111 -2.1996
 8392TIP3    H246668   5.146   2.283  15.416 -0.6948 -0.9837  1.4034
 8393TIP3   OH246669   1.899   0.085  12.210  0.4224 -0.8909  0.1707
 8393TIP3    H146670   1.931   0.012  12.155  2.4956 -1.7107  2.2927
 8393TIP3    H246671   1.866   0.042  12.289  0.5322  0.4204  0.9439
 8394TIP3   OH246672   2.306   2.199  11.192 -0.0288  0.8174 -0.2579
 8394TIP3    H146673   2.366   2.127  11.210  0.8944  1.4785 -0.5917
 8394TIP3    H246674   2.229   2.180  11.245  0.7626  0.3114  0.7484
 8395TIP3   OH246675   4.713   2.014  13.424  0.1763 -0.2938  0.2473
 8395TIP3    H146676   4.704   1.923  13.396  0.7288 -0.2655 -0.0283
 8395TIP3    H246677   4.708   2.065  13.344  0.0657 -0.0896  0.3819
 8396TIP3   OH246678   2.947   0.910  13.335  0.4551  0.1859  0.2158
 8396TIP3    H146679   2.999   0.863  13.400  1.1540  0.4253 -0.1607
 8396TIP3    H246680   2.986   0.998  13.333 -0.1042  0.4358  0.0821
 8397TIP3   OH246681   5.537   5.283  11.938 -1.0525  0.0637  0.5173
 8397TIP3    H146682   5.528   5.287  12.034 -0.1811  0.2718  0.5954
 8397TIP3    H246683   5.461   5.331  11.905 -1.0222  0.5446  1.1207
 8398TIP3   OH246684   6.070   1.743  12.791 -0.0861  0.1715  0.8551
 8398TIP3    H146685   6.032   1.660  12.763  1.4531 -0.1433 -0.4653
 8398TIP3    H246686   6.115   1.776  12.713  1.3503  1.0526  2.0033
 8399TIP3   OH246687   5.662   3.338  11.540 -0.4340  0.4466  0.1492
 8399TIP3    H146688   5.632   3.425  11.568 -1.1706  0.2661 -0.0551
 8399TIP3    H246689   5.594   3.278  11.571 -1.1476  0.2078 -1.7229
 8400TIP3   OH246690   3.945   2.507   2.470 -0.2110  0.1711  0.0739
 8400TIP3    H146691   3.990   2.515   2.554 -2.6217  0.7798  1.4174
 8400TIP3    H246692   3.931   2.412   2.460 -0.0307  0.1031  0.4414
 8401TIP3   OH246693   2.121   1.548  13.252 -0.2227  0.1148  0.5297
 8401TIP3    H146694   2.090   1.469  13.297  0.7178  0.7828  2.4155
 8401TIP3    H246695   2.060   1.617  13.278 -0.1145  0.3549  0.1567
 8402TIP3   OH246696   6.303   3.385  16.964  0.1637 -0.3471  0.4540
 8402TIP3    H146697   6.269   3.455  16.909  0.8137 -0.6097 -0.3046
 8402TIP3    H246698   6.248   3.386  17.042 -0.3991  0.4171  0.0519
 8403TIP3   OH246699   5.987   0.174  15.282 -0.2800 -0.6373  0.4362
 8403TIP3    H146700   5.940   0.110  15.336 -3.1428  0.4407 -0.5834
 8403TIP3    H246701   5.981   0.255  15.332 -0.5205 -0.2451 -0.2167
 8404TIP3   OH246702   2.783   2.052   2.892  0.5586 -0.0159  0.3763
 8404TIP3    H146703   2.725   2.108   2.841 -0.6861  1.3879  3.1553
 8404TIP3    H246704   2.754   1.963   2.871 -0.3852  0.5242 -0.7437
 8405TIP3   OH246705   1.821   5.356  13.808  0.2203 -0.0299  0.0117
 8405TIP3    H146706   1.762   5.282  13.816  0.5307 -0.1477  1.3302
 8405TIP3    H246707   1.812   5.384  13.716 -1.6314 -0.2275  0.0999
 8406TIP3   OH246708   0.256   4.346  10.716 -0.6253 -0.1599 -0.4322
 8406TIP3    H146709   0.296   4.383  10.637 -1.4183 -0.0081 -0.7666
 8406TIP3    H246710   0.162   4.349  10.700 -0.9019  1.4012  1.2131
 8407TIP3   OH246711   6.220   1.139  12.796 -0.3317 -0.3373  0.2305
 8407TIP3    H146712   6.213   1.074  12.726  0.4608 -1.3692  1.0992
 8407TIP3    H246713   6.248   1.219  12.750  2.4063 -1.5526 -0.4037
 8408TIP3   OH246714   3.664   0.012  13.968 -0.4337 -0.4581 -0.2485
 8408TIP3    H146715   3.759   0.006  13.960 -0.2090  1.1504  0.6858
 8408TIP3    H246716   3.647  -0.003  14.061 -1.1452 -1.1709 -0.4885
 8409TIP3   OH246717   5.874   6.413  16.151 -0.2359 -0.4942 -0.4596
 8409TIP3    H146718   5.789   6.370  16.162 -0.0112 -0.8425 -0.0411
 8409TIP3    H246719   5.937   6.351  16.189  0.3267 -0.6953 -1.6568
 8410TIP3   OH246720   5.077   0.315   4.729 -0.2342  0.7058  0.3582
 8410TIP3    H146721   5.077   0.282   4.640 -0.1952  0.1724  0.5536
 8410TIP3    H246722   5.037   0.402   4.723 -2.0373 -0.1062  0.1115
 8411TIP3   OH246723   1.809   0.602   4.456 -0.3838  0.1935 -0.7709
 8411TIP3    H146724   1.759   0.663   4.510 -1.2383 -0.5061 -0.7523
 8411TIP3    H246725   1.782   0.515   4.487  1.0861 -0.2156 -0.5311
 8412TIP3   OH246726   5.534   0.975   6.191  0.1030  0.1100 -0.4553
 8412TIP3    H146727   5.469   1.045   6.198  0.9261  1.1197 -2.1889
 8412TIP3    H246728   5.601   0.997   6.255  0.5458  1.1863 -1.2467
 8413TIP3   OH246729   0.402   0.088   5.468 -0.0766 -0.2582 -0.1377
 8413TIP3    H146730   0.437   0.110   5.381  1.4706  1.0263  0.7725
 8413TIP3    H246731   0.311   0.118   5.465 -0.6850 -1.9969 -1.9300
 8414TIP3   OH246732   2.812   0.237   0.813  0.0914 -0.0965  0.3930
 8414TIP3    H146733   2.881   0.206   0.754 -1.4909 -0.7300 -1.2193
 8414TIP3    H246734   2.825   0.187   0.894 -0.2356 -2.4026 -0.8981
 8415TIP3   OH246735   5.261   5.385  11.918  0.5004  0.0281  0.5650
 8415TIP3    H146736   5.246   5.291  11.906  0.1018  0.2388 -0.7035
 8415TIP3    H246737   5.177   5.426  11.897  0.7474  0.6891  0.8277
 8416TIP3   OH246738   2.163   1.305   2.293  0.0773 -0.0710  0.2109
 8416TIP3    H146739   2.156   1.375   2.228  2.3826  0.5188  0.5131
 8416TIP3    H246740   2.114   1.232   2.255  0.4356  0.6135 -1.6941
 8417TIP3   OH246741   4.713   3.416  12.200 -0.7911  0.5926 -0.0721
 8417TIP3    H146742   4.640   3.356  12.181  0.3541 -0.4992 -1.1480
 8417TIP3    H246743   4.670   3.501  12.212 -2.1580  0.2523 -1.9905
 8418TIP3   OH246744   4.163   0.704  12.365 -0.0771  0.7975 -0.1323
 8418TIP3    H146745   4.158   0.798  12.380  0.1201  0.5815  1.4690
 8418TIP3    H246746   4.216   0.695  12.286  0.5175  2.0124  0.1114
 8419TIP3   OH246747   0.290   1.188  12.385  0.0199 -0.3623 -0.4669
 8419TIP3    H146748   0.362   1.126  12.378 -0.7402 -1.2063 -0.9626
 8419TIP3    H246749   0.289   1.233  12.300 -0.1925 -0.5395 -0.5611
 8420TIP3   OH246750   1.089   4.419  14.549  0.0200  0.7897  0.0797
 8420TIP3    H146751   1.165   4.380  14.506  1.0639  2.2356  0.5467
 8420TIP3    H246752   1.076   4.367  14.628 -1.1312 -1.0942 -1.2686
 8421TIP3   OH246753   4.949   4.954  13.921 -0.1292  0.3093 -0.2171
 8421TIP3    H146754   5.000   5.026  13.884  1.6126 -1.7169 -2.0131
 8421TIP3    H246755   4.919   4.904  13.845 -0.8440 -1.1798  0.9787
 8422TIP3   OH246756   1.687   3.307   3.318 -0.4624  0.2509  0.0051
 8422TIP3    H146757   1.732   3.386   3.289 -0.7450  0.4815  0.1897
 8422TIP3    H246758   1.594   3.327   3.305 -0.5543  0.0953  0.4156
 8423TIP3   OH246759   2.836   5.799  12.551 -0.0379  0.3050  0.1261
 8423TIP3    H146760   2.817   5.810  12.458  0.7964  0.6229 -0.0163
 8423TIP3    H246761   2.864   5.886  12.580 -1.4904  0.5197  0.9785
 8424TIP3   OH246762   2.624   4.482  16.682 -0.1591 -0.0583  0.3402
 8424TIP3    H146763   2.551   4.442  16.634  0.3543  0.5526 -1.0048
 8424TIP3    H246764   2.681   4.409  16.704  0.7146 -0.1715 -1.9944
 8425TIP3   OH246765   0.298   2.364   2.920 -0.2196 -0.7752  0.4794
 8425TIP3    H146766   0.349   2.307   2.861  0.1149  0.3431 -0.3419
 8425TIP3    H246767   0.345   2.359   3.003  1.7856  0.8370 -0.4479
 8426TIP3   OH246768   2.692   4.312   5.009 -0.0375  0.4947 -0.1247
 8426TIP3    H146769   2.745   4.363   5.071  1.0449  2.1859 -2.2936
 8426TIP3    H246770   2.603   4.342   5.024  0.0178  0.0348  1.3398
 8427TIP3   OH246771   3.138   2.082  13.307 -0.3202  0.5543 -0.2715
 8427TIP3    H146772   3.207   2.118  13.363 -0.4930 -0.7239  0.7889
 8427TIP3    H246773   3.179   2.008  13.263 -0.6811  0.5181 -0.5517
 8428TIP3   OH246774   6.682   5.989  15.346 -0.0560 -0.0477  0.0937
 8428TIP3    H146775   6.594   6.021  15.368  0.1715  0.8196 -0.2116
 8428TIP3    H246776   6.701   6.027  15.260  1.5909  1.8404  1.2025
 8429TIP3   OH246777   4.977   4.156   5.811 -0.0247 -0.4470 -0.1010
 8429TIP3    H146778   5.005   4.093   5.745  0.0644 -0.2162 -0.2834
 8429TIP3    H246779   5.026   4.235   5.791 -0.7403 -0.0655 -0.3611
 8430TIP3   OH246780   5.599   3.953   0.705 -0.0396 -0.2098  0.0687
 8430TIP3    H146781   5.570   3.989   0.789 -1.7607 -3.7881  1.2201
 8430TIP3    H246782   5.567   4.014   0.640 -2.8309  0.3593  1.8206
 8431TIP3   OH246783   3.849   6.022  12.647  0.3130 -0.5376  0.4839
 8431TIP3    H146784   3.755   6.013  12.662  0.3317 -0.4771  0.6404
 8431TIP3    H246785   3.856   6.100  12.591  0.3674  0.3838  1.7146
 8432TIP3   OH246786   3.519   1.874  16.333  0.0910 -0.2335 -0.0253
 8432TIP3    H146787   3.613   1.856  16.326  0.4723  1.9095 -1.0976
 8432TIP3    H246788   3.477   1.792  16.307  1.6768 -0.4637 -2.0556
 8433TIP3   OH246789   4.430   0.448  12.455  0.4986 -0.0144 -0.7937
 8433TIP3    H146790   4.481   0.404  12.523  1.6526  1.5591 -0.5686
 8433TIP3    H246791   4.343   0.458  12.493  1.0164  0.4741  0.3314
 8434TIP3   OH246792   4.054   6.651   1.854 -0.3896 -0.0260 -0.0295
 8434TIP3    H146793   4.105   6.712   1.801 -1.3356 -0.9686 -2.1275
 8434TIP3    H246794   3.985   6.705   1.892 -0.2696  0.5059 -0.5524
 8435TIP3   OH246795   0.235   0.726   1.693 -0.1825  0.2500  0.0028
 8435TIP3    H146796   0.264   0.648   1.645  0.5107  1.8619 -2.3713
 8435TIP3    H246797   0.140   0.727   1.683  0.0108  1.1044 -2.4174
 8436TIP3   OH246798   6.793   3.223  15.162  0.3965 -0.5043  0.2361
 8436TIP3    H146799   6.875   3.270  15.181  0.4855 -0.5669  0.0107
 8436TIP3    H246800   6.802   3.140  15.208  1.7729 -1.8086 -2.1833
 8437TIP3   OH246801   6.657   6.545   2.792  0.3742  0.5492 -0.0662
 8437TIP3    H146802   6.631   6.582   2.877  1.0526  0.9221 -0.0160
 8437TIP3    H246803   6.723   6.606   2.759 -0.1534  0.6130 -1.0404
 8438TIP3   OH246804   4.241   4.156   3.786 -0.2200  0.3274 -0.0422
 8438TIP3    H146805   4.204   4.118   3.866  0.9365 -1.1448 -0.1720
 8438TIP3    H246806   4.296   4.087   3.749  0.8097  1.6414 -1.0858
 8439TIP3   OH246807   0.661   2.656   4.594  0.0721 -0.4401  0.1581
 8439TIP3    H146808   0.622   2.631   4.511 -1.0846 -0.0743  0.5719
 8439TIP3    H246809   0.684   2.573   4.636 -2.5266 -0.8633  0.9485
 8440TIP3   OH246810   6.772   3.238   0.552 -0.0135  0.1641  0.1423
 8440TIP3    H146811   6.857   3.210   0.517 -0.1201 -0.8938  0.7018
 8440TIP3    H246812   6.792   3.273   0.639 -0.1665 -0.2091  0.3282
 8441TIP3   OH246813   6.233   0.659  16.960 -0.0372 -0.2328 -0.0818
 8441TIP3    H146814   6.320   0.620  16.964  0.1466  0.2062  0.5006
 8441TIP3    H246815   6.178   0.599  17.011 -0.9393 -2.5070 -3.4022
 8442TIP3   OH246816   4.146   1.249   5.769 -0.0875 -0.0691 -0.3194
 8442TIP3    H146817   4.132   1.343   5.783  1.4106 -0.1238  2.1723
 8442TIP3    H246818   4.196   1.244   5.688  0.1239  1.3036 -0.3075
 8443TIP3   OH246819   6.433   0.434   5.077 -1.0402 -0.0025  0.0579
 8443TIP3    H146820   6.525   0.449   5.099 -1.1964 -0.0376  0.7635
 8443TIP3    H246821   6.411   0.505   5.018 -0.1787 -0.7747 -1.2460
 8444TIP3   OH246822   1.449   5.269   3.500  0.0325 -0.1621  0.0294
 8444TIP3    H146823   1.401   5.187   3.513 -0.0648 -0.0667  0.2781
 8444TIP3    H246824   1.477   5.294   3.588  1.2862 -0.6624 -0.2088
 8445TIP3   OH246825   4.246   1.704  15.601 -0.4178  0.3674  0.3216
 8445TIP3    H146826   4.168   1.652  15.582 -0.9563  1.1747  0.3052
 8445TIP3    H246827   4.213   1.788  15.632  0.4391  0.9462 -0.2754
 8446TIP3   OH246828   0.886   5.393  14.161 -0.4745 -0.5201  0.0002
 8446TIP3    H146829   0.946   5.368  14.091 -0.2127 -1.9181  0.6974
 8446TIP3    H246830   0.943   5.418  14.234 -0.6916 -2.2993  0.8241
 8447TIP3   OH246831   6.427   0.005  12.297  0.2125  0.4026 -0.1371
 8447TIP3    H146832   6.497   0.071  12.293 -0.8084  1.6794  1.6585
 8447TIP3    H246833   6.467  -0.070  12.341  1.2764 -0.0920 -1.8460
 8448TIP3   OH246834   3.459   2.811  16.536  0.0130 -0.6423 -0.6457
 8448TIP3    H146835   3.391   2.825  16.470 -0.4613  0.0994 -0.0063
 8448TIP3    H246836   3.414   2.764  16.607  0.5031 -1.3662 -0.7965
 8449TIP3   OH246837   1.795   2.062   3.194  0.2179  0.4186 -0.6216
 8449TIP3    H146838   1.739   2.133   3.161 -0.7842 -0.4645 -0.8901
 8449TIP3    H246839   1.779   1.989   3.133  0.6477 -0.2717  0.0809
 8450TIP3   OH246840   5.728   2.755  10.914  0.3393  0.8326  0.3796
 8450TIP3    H146841   5.781   2.831  10.939  0.0336  0.8149  1.0870
 8450TIP3    H246842   5.742   2.747  10.819  2.1501  0.4058  0.6451
 8451TIP3   OH246843   5.712   5.419   3.564  0.4808 -0.8965  0.5892
 8451TIP3    H146844   5.754   5.378   3.639  1.4573 -1.1474 -0.0676
 8451TIP3    H246845   5.749   5.373   3.488 -1.0334 -1.1627 -0.0275
 8452TIP3   OH246846   3.125   2.265  16.075  0.1945  0.1006 -0.0483
 8452TIP3    H146847   3.047   2.211  16.062 -0.7008  0.4090  3.1276
 8452TIP3    H246848   3.093   2.355  16.067  0.6466  0.2277 -0.5074
 8453TIP3   OH246849   3.536   3.297   0.676 -0.0347 -0.2914 -0.3924
 8453TIP3    H146850   3.480   3.354   0.624  1.4047  0.6400 -0.9821
 8453TIP3    H246851   3.485   3.278   0.755 -0.9258  1.0379 -0.6215
 8454TIP3   OH246852   6.486   2.353   5.003  0.3320  0.0628 -0.4839
 8454TIP3    H146853   6.525   2.370   4.917 -0.6962  1.3696 -0.7241
 8454TIP3    H246854   6.434   2.274   4.990 -0.1394  0.4751 -1.1880
 8455TIP3   OH246855   4.666   5.521  14.093  0.3844 -0.3446 -0.0878
 8455TIP3    H146856   4.723   5.469  14.036  0.9842  1.0047 -0.7437
 8455TIP3    H246857   4.711   5.605  14.103 -1.2925  0.6285 -0.3174
 8456TIP3   OH246858   1.774   1.668  10.790  0.1302  0.9153 -0.3215
 8456TIP3    H146859   1.687   1.654  10.753  0.8631  0.3054 -1.9258
 8456TIP3    H246860   1.781   1.762  10.802 -0.4644  1.0405 -0.9261
 8457TIP3   OH246861   0.053   2.949  10.755 -0.3684  0.1570 -0.7352
 8457TIP3    H146862  -0.024   2.985  10.713 -1.0036  4.7029  3.4876
 8457TIP3    H246863   0.026   2.932  10.845  2.9539 -0.5046  0.2834
 8458TIP3   OH246864   3.759   6.101  12.204 -0.2603 -0.8181 -0.3780
 8458TIP3    H146865   3.684   6.056  12.242 -1.9363  2.0780  0.0793
 8458TIP3    H246866   3.722   6.151  12.132  1.1323  0.9651  0.0737
 8459TIP3   OH246867   6.614   2.043  14.398  0.1649 -0.3683 -0.4291
 8459TIP3    H146868   6.527   2.005  14.388 -0.2851  1.1455 -3.5582
 8459TIP3    H246869   6.673   1.979  14.357  0.0328  0.0931 -1.3713
 8460TIP3   OH246870   0.592   6.031  13.233  0.1100  0.6087 -0.1681
 8460TIP3    H146871   0.499   6.032  13.213  0.1566  0.3743 -0.4129
 8460TIP3    H246872   0.632   5.983  13.160  0.3280  0.0423  0.3152
 8461TIP3   OH246873   4.293   5.426   4.996 -0.0642  0.0389 -0.8050
 8461TIP3    H146874   4.305   5.517   5.022 -1.9464  0.7710 -2.2251
 8461TIP3    H246875   4.236   5.389   5.064  0.8453 -0.1612 -0.1326
 8462TIP3   OH246876   1.791   6.552  14.961 -0.0981  0.5158 -0.4323
 8462TIP3    H146877   1.729   6.482  14.983  0.1683 -0.1767 -1.7397
 8462TIP3    H246878   1.877   6.510  14.967  0.1792  1.1668  0.2837
 8463TIP3   OH246879   3.506   2.362  13.976  1.0974  0.3644  0.0380
 8463TIP3    H146880   3.507   2.351  14.071  0.4774  0.7832  0.0950
 8463TIP3    H246881   3.438   2.426  13.960  2.8230  2.1498 -0.4958
 8464TIP3   OH246882   4.164   0.224  12.654  0.3386 -0.1368  0.0546
 8464TIP3    H146883   4.192   0.287  12.588 -1.7458 -0.1054 -0.8850
 8464TIP3    H246884   4.180   0.138  12.615  0.4156 -0.1361  0.0859
 8465TIP3   OH246885   4.209   3.572  11.319  0.3251 -0.3013 -0.4741
 8465TIP3    H146886   4.160   3.492  11.300  0.4897 -0.5762  0.2463
 8465TIP3    H246887   4.291   3.542  11.358 -0.7189  0.2761  2.3615
 8466TIP3   OH246888   6.708   1.785  16.821  0.2453 -0.3644 -0.7477
 8466TIP3    H146889   6.766   1.849  16.780  2.9600 -1.6365  0.7643
 8466TIP3    H246890   6.670   1.831  16.896  0.6258  0.0528 -0.8075
 8467TIP3   OH246891   0.718   1.494  12.910  0.0081  0.9230 -0.3295
 8467TIP3    H146892   0.722   1.527  12.820  1.7396 -0.1897 -0.7031
 8467TIP3    H246893   0.781   1.422  12.912 -0.7543  0.2531  1.5154
 8468TIP3   OH246894   0.663   1.040  12.120  0.4384  0.2291 -0.2747
 8468TIP3    H146895   0.708   1.111  12.073  0.7350 -0.9664 -1.8914
 8468TIP3    H246896   0.627   0.984  12.051 -1.5612 -0.1241  0.9695
 8469TIP3   OH246897   3.333   5.269   6.285  0.0986 -0.3218  0.5012
 8469TIP3    H146898   3.304   5.181   6.310 -0.3152 -0.4504 -0.4093
 8469TIP3    H246899   3.252   5.318   6.273  0.2637 -0.3377 -0.8289
 8470TIP3   OH246900   4.532   4.821  12.801  0.2528 -0.4233  0.0486
 8470TIP3    H146901   4.553   4.890  12.864 -0.4318 -1.3069  1.3077
 8470TIP3    H246902   4.437   4.825  12.792  0.3175 -0.4818 -0.7436
 8471TIP3   OH246903   4.456   2.771  16.169  0.1796 -0.5858 -0.0546
 8471TIP3    H146904   4.484   2.681  16.158 -0.4836 -0.8162  0.0597
 8471TIP3    H246905   4.364   2.764  16.194  0.3666  0.0799  0.8837
 8472TIP3   OH246906   3.816   2.173   0.077 -0.2361 -0.6827  0.0147
 8472TIP3    H146907   3.819   2.102   0.142  0.6363 -0.9232 -0.2683
 8472TIP3    H246908   3.763   2.241   0.119  0.2383 -0.8673  0.9548
 8473TIP3   OH246909   1.440   5.463   4.150  0.9364 -0.3610  0.6096
 8473TIP3    H146910   1.362   5.453   4.204  0.5310 -3.0657 -0.2788
 8473TIP3    H246911   1.414   5.521   4.078  0.1284 -0.2375  0.9993
 8474TIP3   OH246912   4.429   3.397  11.411  0.2020  0.4141  0.3379
 8474TIP3    H146913   4.434   3.312  11.455 -1.4869 -0.2396 -0.6519
 8474TIP3    H246914   4.512   3.405  11.365  0.3332 -0.7530  0.3443
 8475TIP3   OH246915   1.582   1.976   0.351 -0.8979 -0.7851 -0.1596
 8475TIP3    H146916   1.661   1.978   0.297 -0.5923 -1.3150  0.2623
 8475TIP3    H246917   1.510   1.983   0.288 -0.5064  0.6570 -0.4864
 8476TIP3   OH246918   6.696   0.109  11.746  0.4545 -0.5802 -0.1434
 8476TIP3    H146919   6.723   0.060  11.669  1.4927  0.6963 -0.6324
 8476TIP3    H246920   6.733   0.060  11.820  0.4303 -1.1864 -0.5239
 8477TIP3   OH246921   5.528   3.355   5.006 -0.0750 -0.3845  0.0393
 8477TIP3    H146922   5.509   3.447   4.990  1.0832 -0.0038  0.7458
 8477TIP3    H246923   5.456   3.308   4.964 -1.2209  0.8754  0.5326
 8478TIP3   OH246924   5.252   1.821   0.876  0.4487 -0.2698 -0.3209
 8478TIP3    H146925   5.256   1.858   0.964  0.4158 -2.6328  0.7599
 8478TIP3    H246926   5.342   1.827   0.843  0.2596  1.5951 -0.6152
 8479TIP3   OH246927   0.625   6.358   4.339 -0.4661 -0.4046  0.3822
 8479TIP3    H146928   0.556   6.425   4.345 -0.7974 -0.7896  1.1046
 8479TIP3    H246929   0.577   6.277   4.322 -0.2722 -0.7920  1.5970
 8480TIP3   OH246930   5.958   5.484  12.577  0.4337  0.4590  0.4204
 8480TIP3    H146931   5.946   5.496  12.671  1.0758  0.3534  0.5223
 8480TIP3    H246932   5.885   5.532  12.537 -1.4579 -1.7496  1.0136
 8481TIP3   OH246933   3.011   6.778   3.380 -0.1060 -0.9849  0.2015
 8481TIP3    H146934   3.075   6.749   3.445 -1.6026 -1.1468  1.6860
 8481TIP3    H246935   2.933   6.725   3.398 -1.1364  0.1982 -0.5785
 8482TIP3   OH246936   4.740   5.968   2.752 -0.1983  0.3553  0.3985
 8482TIP3    H146937   4.686   5.920   2.689  1.0056  1.4479 -1.5636
 8482TIP3    H246938   4.824   5.981   2.707  0.4157  1.9375  1.8867
 8483TIP3   OH246939   0.769   5.772  16.578  0.1248  0.0369 -0.0204
 8483TIP3    H146940   0.706   5.725  16.524  0.4814  1.0552 -1.3718
 8483TIP3    H246941   0.777   5.718  16.657 -1.6831 -0.6164 -0.2284
 8484TIP3   OH246942   4.937   2.819   3.327 -0.1066  0.0998 -0.1181
 8484TIP3    H146943   4.845   2.828   3.351 -0.3637  0.0505 -1.0405
 8484TIP3    H246944   4.945   2.728   3.297  0.7189 -0.5382  1.8670
 8485TIP3   OH246945   5.281   0.983   4.181  0.4020 -0.5235  0.0105
 8485TIP3    H146946   5.277   0.891   4.156 -1.3533 -0.3771 -0.3837
 8485TIP3    H246947   5.219   0.991   4.254  0.1708  0.4245 -0.2733
 8486TIP3   OH246948   0.667   1.207  10.558  0.4674 -0.1701 -0.0748
 8486TIP3    H146949   0.596   1.266  10.534  1.3023 -0.1190 -2.7455
 8486TIP3    H246950   0.698   1.240  10.642 -1.1369  1.2189  0.0349
 8487TIP3   OH246951   4.919   4.950  15.497  0.0349 -0.3796  0.1743
 8487TIP3    H146952   4.858   4.902  15.441  1.1756  1.6982 -3.1670
 8487TIP3    H246953   4.875   5.034  15.512  1.2399  0.4421 -0.7238
 8488TIP3   OH246954   0.224   3.742   5.209 -0.5575  0.7764  0.8916
 8488TIP3    H146955   0.319   3.732   5.213 -0.4223  1.8040  0.6486
 8488TIP3    H246956   0.190   3.679   5.272  0.3410  1.0351  1.6580
 8489TIP3   OH246957   4.619   5.161   3.072  0.6329  0.6137 -0.3684
 8489TIP3    H146958   4.572   5.160   2.989  2.3147 -0.9041 -1.3805
 8489TIP3    H246959   4.566   5.107   3.131 -0.0931  0.9252 -0.7260
 8490TIP3   OH246960   2.836   5.591  12.228  0.1420 -0.8623 -0.3441
 8490TIP3    H146961   2.861   5.683  12.226  0.4235 -0.9342 -2.3615
 8490TIP3    H246962   2.916   5.546  12.255  0.4007 -0.6154 -0.6905
 8491TIP3   OH246963   3.054   6.805   0.357  0.2660 -0.3481 -0.4846
 8491TIP3    H146964   3.010   6.875   0.405 -0.3695 -0.2107 -1.2606
 8491TIP3    H246965   3.035   6.726   0.408  3.0741  0.2831  1.8388
 8492TIP3   OH246966   2.749   6.783  10.415 -0.6552  0.4388  0.1867
 8492TIP3    H146967   2.734   6.746  10.502 -1.0033 -0.4229 -0.2337
 8492TIP3    H246968   2.795   6.866  10.432 -2.1578  1.0890  1.2748
 8493TIP3   OH246969   5.480   1.233  10.422 -0.3757 -0.3146  0.0625
 8493TIP3    H146970   5.426   1.287  10.365  0.0582 -0.2551 -0.2952
 8493TIP3    H246971   5.552   1.290  10.449 -1.6082  0.3132  2.2972
 8494TIP3   OH246972   6.368   4.582   4.304  0.3330  0.2239 -0.1006
 8494TIP3    H146973   6.360   4.522   4.231 -1.7557  0.9712 -0.5542
 8494TIP3    H246974   6.307   4.653   4.284  0.5929  1.0500  1.7815
 8495TIP3   OH246975   3.784   6.852  10.523 -0.0987 -0.4200  0.2387
 8495TIP3    H146976   3.843   6.910  10.571  0.3790 -1.1390  0.5140
 8495TIP3    H246977   3.835   6.773  10.506 -0.2225 -0.1773 -1.5084
 8496TIP3   OH246978   1.092   1.884   2.353  0.7577  0.5313 -0.2106
 8496TIP3    H146979   1.157   1.950   2.328 -0.5279  1.8215 -0.2719
 8496TIP3    H246980   1.009   1.918   2.320 -0.0333 -0.8498  0.2685
 8497TIP3   OH246981   5.622   1.136  11.454  0.2287  0.1693 -0.3574
 8497TIP3    H146982   5.674   1.059  11.433  1.0282  0.2524  1.1629
 8497TIP3    H246983   5.532   1.111  11.431  0.5683 -0.9556 -0.5382
 8498TIP3   OH246984   3.327   6.036  14.801  0.3877  0.3149  0.2206
 8498TIP3    H146985   3.303   6.013  14.711 -0.0123 -1.4830  0.7497
 8498TIP3    H246986   3.373   6.119  14.793 -1.7547  1.4545 -1.3824
 8499TIP3   OH246987   1.210   0.492  12.082 -0.6469  0.6559  0.3652
 8499TIP3    H146988   1.164   0.408  12.085 -0.1553  0.3754  0.1976
 8499TIP3    H246989   1.158   0.545  12.021 -1.2227  0.6411  0.8329
 8500TIP3   OH246990   0.186   6.592   3.165 -0.5185  0.0765  0.0645
 8500TIP3    H146991   0.126   6.556   3.100 -0.7867 -0.4178  0.5749
 8500TIP3    H246992   0.271   6.594   3.121 -0.4286 -1.4622  0.0961
 8501TIP3   OH246993   3.292   0.860  14.563 -0.1095  0.7900 -0.0748
 8501TIP3    H146994   3.260   0.904  14.485 -1.4491 -1.4623 -0.8852
 8501TIP3    H246995   3.215   0.848  14.618  0.6101  1.2689  1.0929
 8502TIP3   OH246996   2.953   3.451   3.427  0.0999 -0.2900 -0.1344
 8502TIP3    H146997   3.033   3.457   3.480 -1.6121  0.9386  2.5134
 8502TIP3    H246998   2.901   3.527   3.453 -1.9562 -1.0457 -1.7487
 8503TIP3   OH246999   4.493   5.073  14.227  0.5744 -0.2290  0.2901
 8503TIP3    H147000   4.560   5.034  14.171  0.0046 -0.5599 -0.1629
 8503TIP3    H247001   4.541   5.136  14.281  0.8858  1.3245 -1.6954
 8504TIP3   OH247002   6.785   0.192   6.412 -0.1465  0.0986 -0.2120
 8504TIP3    H147003   6.769   0.140   6.490  0.5747  0.5077  0.2192
 8504TIP3    H247004   6.879   0.183   6.395 -0.2851  0.0567 -0.9999
 8505TIP3   OH247005   5.653   1.061   4.229  0.3878 -0.2581  0.0819
 8505TIP3    H147006   5.642   1.034   4.138  0.6302 -0.5076  0.1244
 8505TIP3    H247007   5.682   0.981   4.274  4.6541  0.7453 -0.4241
 8506TIP3   OH247008   0.622   3.871   1.088 -0.5360 -0.6537 -0.6568
 8506TIP3    H147009   0.593   3.796   1.139  0.2970 -0.2727  0.4019
 8506TIP3    H247010   0.562   3.941   1.113 -0.6032 -0.6647 -0.7855
 8507TIP3   OH247011   4.945   3.400  13.544  0.2297 -0.5333 -0.1476
 8507TIP3    H147012   4.899   3.440  13.619 -0.2732  1.6057 -1.5154
 8507TIP3    H247013   5.020   3.355  13.584 -0.2503  0.1693  1.6781
 8508TIP3   OH247014   1.904   2.389  13.808 -0.1957 -0.2739 -0.0406
 8508TIP3    H147015   1.843   2.425  13.872  0.8677  2.1454 -0.2507
 8508TIP3    H247016   1.941   2.467  13.765  0.5103 -1.7590 -2.2772
 8509TIP3   OH247017   5.708   2.757  14.375 -0.2646 -0.9596 -0.3659
 8509TIP3    H147018   5.622   2.731  14.407 -0.9717 -0.5418 -1.8275
 8509TIP3    H247019   5.745   2.811  14.444 -0.2025 -2.9503  1.2519
 8510TIP3   OH247020   0.071   5.666  10.932  0.6325  0.6622 -0.3863
 8510TIP3    H147021   0.018   5.641  11.008  0.7096 -0.6436 -0.7335
 8510TIP3    H247022   0.015   5.646  10.857  1.0743  0.6319 -0.7113
 8511TIP3   OH247023   5.318   0.822  16.602 -0.2860  0.0638 -0.7379
 8511TIP3    H147024   5.371   0.887  16.557 -1.4796 -0.0931 -2.4647
 8511TIP3    H247025   5.348   0.738  16.567 -0.8930 -0.1044 -0.8605
 8512TIP3   OH247026   1.633   4.994   3.641  0.1227  0.3235  0.3939
 8512TIP3    H147027   1.622   4.955   3.728  1.8302 -2.1614 -0.3970
 8512TIP3    H247028   1.675   4.926   3.589 -0.3453  1.9118 -2.2782
 8513TIP3   OH247029   4.175   2.664   1.932 -0.0745  0.0522 -0.2923
 8513TIP3    H147030   4.237   2.598   1.961  0.2900  0.7272  0.4953
 8513TIP3    H247031   4.089   2.628   1.954  0.1186 -0.1815  0.0896
 8514TIP3   OH247032   6.073   5.176  13.230 -0.0656 -0.2708  0.3911
 8514TIP3    H147033   5.984   5.176  13.194 -0.4497 -2.5380  1.2200
 8514TIP3    H247034   6.126   5.137  13.161  0.2035  0.5389  0.1307
 8515TIP3   OH247035   5.859   2.097  14.621 -0.0712  0.7688 -0.7264
 8515TIP3    H147036   5.904   2.058  14.546 -1.1345  0.0540 -1.0193
 8515TIP3    H247037   5.829   2.182  14.590  1.2034  1.3391 -0.4687
 8516TIP3   OH247038   3.231   3.261  12.789 -0.3502 -0.7529  0.4621
 8516TIP3    H147039   3.256   3.291  12.702 -0.0172  0.2453  0.8845
 8516TIP3    H247040   3.217   3.342  12.839 -1.0443 -1.3128  1.1875
 8517TIP3   OH247041   0.513   1.007   0.220  0.0730  0.7589 -0.1838
 8517TIP3    H147042   0.557   0.936   0.173  0.9720  1.9152 -1.1231
 8517TIP3    H247043   0.521   0.982   0.312 -1.6047 -1.4711 -0.5464
 8518TIP3   OH247044   2.097   3.383  15.831  0.0198 -0.2005  0.7641
 8518TIP3    H147045   2.143   3.436  15.897  0.5082 -1.7650  1.7392
 8518TIP3    H247046   2.152   3.390  15.753  0.3755  0.2536  1.0441
 8519TIP3   OH247047   3.033   4.721   6.135  0.2891  0.5133  0.2245
 8519TIP3    H147048   2.966   4.772   6.180 -0.9836  0.9559 -2.0533
 8519TIP3    H247049   3.116   4.753   6.172 -0.6121  1.9544  1.0968
 8520TIP3   OH247050   3.701   1.158  14.419  0.1105 -0.1910 -0.1642
 8520TIP3    H147051   3.765   1.229  14.429  0.1193 -0.2257  0.0260
 8520TIP3    H247052   3.703   1.138  14.326  0.0807  0.0862 -0.2265
 8521TIP3   OH247053   5.057   2.737  14.133  0.4199  0.5486  0.4444
 8521TIP3    H147054   5.126   2.802  14.141 -0.9785  2.2688 -0.7483
 8521TIP3    H247055   4.981   2.777  14.175 -0.4490 -0.3590 -0.2045
 8522TIP3   OH247056   5.949   0.215  12.523 -0.1972  0.6631  1.1727
 8522TIP3    H147057   6.039   0.208  12.491 -0.3652 -1.1277  0.9827
 8522TIP3    H247058   5.928   0.308  12.514  0.9778  0.8192 -0.5613
 8523TIP3   OH247059   3.996   4.694  13.416  0.3494  0.3343  0.3511
 8523TIP3    H147060   3.964   4.738  13.494  0.6274  0.9323  0.1279
 8523TIP3    H247061   4.050   4.622  13.449 -0.1309  0.1383  0.7133
 8524TIP3   OH247062   6.766   1.987   0.089  0.4521 -0.0465  0.2090
 8524TIP3    H147063   6.727   2.061   0.135  0.3450 -0.4314  0.7464
 8524TIP3    H247064   6.840   1.962   0.143  0.7689 -0.0417 -0.2169
 8525TIP3   OH247065   3.159   3.756  12.447  0.3641  0.2503  0.4623
 8525TIP3    H147066   3.232   3.704  12.414  1.3496  1.4568  0.6613
 8525TIP3    H247067   3.200   3.823  12.502 -0.5565  2.7465 -1.6794
 8526TIP3   OH247068   3.064   2.150   2.277  0.0523 -0.1362  0.2863
 8526TIP3    H147069   3.026   2.087   2.217 -0.3978 -0.6621  1.1094
 8526TIP3    H247070   2.998   2.162   2.345 -0.8725  2.9589 -0.9703
 8527TIP3   OH247071   5.550   1.968  12.771 -0.0485 -0.6775  0.0087
 8527TIP3    H147072   5.562   1.883  12.815  0.5725 -1.3211 -1.3337
 8527TIP3    H247073   5.623   1.973  12.709 -0.2416  0.7243 -0.1285
 8528TIP3   OH247074   1.690   4.770   0.496  0.4116 -0.0487  0.0644
 8528TIP3    H147075   1.735   4.689   0.520  4.1402  1.5542 -0.9346
 8528TIP3    H247076   1.705   4.829   0.570 -0.9238  0.2826  0.1049
 8529TIP3   OH247077   3.439   6.191   3.862 -0.0050 -0.5266  0.1338
 8529TIP3    H147078   3.346   6.201   3.877 -0.3529 -0.4014 -1.7793
 8529TIP3    H247079   3.444   6.135   3.784  1.5307 -0.9928  0.5298
 8530TIP3   OH247080   2.892   3.766   4.187  0.1059  0.1501 -0.0603
 8530TIP3    H147081   2.931   3.786   4.102  0.1362 -0.3963 -0.1790
 8530TIP3    H247082   2.829   3.836   4.201  1.6074  1.4547  0.4626
 8531TIP3   OH247083   6.130   1.814   4.599  0.0338  0.3483  0.4092
 8531TIP3    H147084   6.222   1.801   4.623 -0.4535 -0.5646  1.9714
 8531TIP3    H247085   6.104   1.893   4.647 -0.7180 -1.0096  2.3894
 8532TIP3   OH247086   6.505   5.738  12.289 -0.5261  0.9750  0.0898
 8532TIP3    H147087   6.553   5.685  12.352 -3.6076  0.1559  1.9473
 8532TIP3    H247088   6.519   5.695  12.205  1.6789  0.6526  0.5662
 8533TIP3   OH247089   3.286   2.500  13.916 -0.1084 -0.1901  0.3036
 8533TIP3    H147090   3.331   2.581  13.939 -1.9999  0.5370  1.6851
 8533TIP3    H247091   3.239   2.520  13.835 -0.7034  0.1512  0.7317
 8534TIP3   OH247092   2.319   4.474  12.416  0.5374  0.2301  0.3451
 8534TIP3    H147093   2.354   4.391  12.383  0.7565  0.4839 -0.0629
 8534TIP3    H247094   2.268   4.509  12.343  1.2142  0.9103  0.1889
 8535TIP3   OH247095   1.727   5.236  14.694 -0.0986 -0.6228 -0.7660
 8535TIP3    H147096   1.818   5.256  14.672  0.6413 -1.8375  0.9398
 8535TIP3    H247097   1.705   5.299  14.763 -1.0291  0.5278 -2.0736
 8536TIP3   OH247098   5.907   4.187   2.635  0.3956 -0.1703  0.0709
 8536TIP3    H147099   5.924   4.093   2.624  1.8565  0.0257  0.3953
 8536TIP3    H247100   5.942   4.207   2.722 -2.5293  0.1378  1.3029
 8537TIP3   OH247101   3.797   5.263  13.156  0.0417 -0.6892 -0.1691
 8537TIP3    H147102   3.749   5.322  13.214  0.5838 -0.5946  0.1802
 8537TIP3    H247103   3.843   5.203  13.214  1.2466 -0.0793 -0.4654
 8538TIP3   OH247104   5.408   1.046   1.596 -0.2738  0.6525  0.1690
 8538TIP3    H147105   5.399   1.090   1.681 -0.4342 -0.8163  0.9483
 8538TIP3    H247106   5.468   1.101   1.546 -0.4978  1.7585  1.0891
 8539TIP3   OH247107   3.336   6.586  13.830  0.1832 -0.0767  0.6370
 8539TIP3    H147108   3.259   6.622  13.873  1.1743 -0.6979  3.0859
 8539TIP3    H247109   3.388   6.663  13.806 -0.4236  0.2864  0.4552
 8540TIP3   OH247110   1.804   3.121   5.118 -0.2454  0.0438  0.0238
 8540TIP3    H147111   1.893   3.155   5.121 -0.3756  0.3652  0.3669
 8540TIP3    H247112   1.764   3.150   5.200 -0.3587 -0.9546  0.3285
 8541TIP3   OH247113   1.806   0.377  16.512  0.4282  0.1557  0.7468
 8541TIP3    H147114   1.734   0.409  16.457 -0.1033 -1.4475  0.4798
 8541TIP3    H247115   1.822   0.449  16.574  0.7217  1.8099 -1.1421
 8542TIP3   OH247116   2.097   3.987   2.127  0.2213 -0.3127  0.1593
 8542TIP3    H147117   2.190   3.994   2.149  0.0178  0.4170  0.8310
 8542TIP3    H247118   2.065   3.918   2.186  0.3007 -0.4485  0.0444
 8543TIP3   OH247119   2.483   2.233  13.543  0.1206 -0.3098 -0.1732
 8543TIP3    H147120   2.554   2.169  13.543 -0.1044 -0.5637  0.1620
 8543TIP3    H247121   2.404   2.181  13.560 -0.4243 -0.3177 -2.4750
 8544TIP3   OH247122   4.753   4.508   2.360  0.0939  0.2024 -0.1454
 8544TIP3    H147123   4.671   4.502   2.311 -0.2546  0.5774  0.3788
 8544TIP3    H247124   4.756   4.598   2.391 -0.5137 -0.4207  1.9013
 8545TIP3   OH247125   5.091   4.238  12.499 -0.5794 -0.2097 -1.0544
 8545TIP3    H147126   5.104   4.198  12.585 -1.0778 -0.2782 -1.0078
 8545TIP3    H247127   5.061   4.327  12.518 -1.1048 -0.3587 -1.1482
 8546TIP3   OH247128   2.042   5.640   4.914  0.5359 -0.0778  0.3039
 8546TIP3    H147129   1.966   5.652   4.972 -0.0142  0.6885 -0.5579
 8546TIP3    H247130   2.032   5.551   4.880  0.7087 -0.4341  1.1337
 8547TIP3   OH247131   2.523   3.722   6.026 -0.0434 -0.2440 -0.0427
 8547TIP3    H147132   2.526   3.690   5.936 -0.3599 -0.2085 -0.0659
 8547TIP3    H247133   2.608   3.765   6.039  0.7002 -1.7331  0.2261
 8548TIP3   OH247134   4.838   2.484  10.948 -0.1788  0.1337 -0.3965
 8548TIP3    H147135   4.853   2.483  11.042 -0.4657 -0.6935 -0.3597
 8548TIP3    H247136   4.852   2.576  10.923 -0.2039  0.3772  0.4587
 8549TIP3   OH247137   1.760   1.715  13.071 -0.0269 -0.7367 -0.6122
 8549TIP3    H147138   1.708   1.750  12.999 -1.9874 -3.4133 -0.6153
 8549TIP3    H247139   1.851   1.721  13.039 -0.5167  1.2467 -1.8385
 8550TIP3   OH247140   5.848   3.825   4.050 -0.0992 -0.2148 -0.3135
 8550TIP3    H147141   5.824   3.732   4.052  0.7781 -0.4523  2.3207
 8550TIP3    H247142   5.784   3.868   4.107  1.2743  0.2861  0.8951
 8551TIP3   OH247143   5.808   2.004   3.630 -0.6065 -0.0510 -0.0413
 8551TIP3    H147144   5.814   2.097   3.648  0.3004 -0.1953  0.4729
 8551TIP3    H247145   5.896   1.979   3.602 -1.1822 -0.4796 -1.5789
 8552TIP3   OH247146   1.514   6.719   1.176 -0.5854  0.0110  0.0387
 8552TIP3    H147147   1.541   6.806   1.147  1.7862 -1.3028 -2.0698
 8552TIP3    H247148   1.501   6.728   1.270  0.9035  2.3510  0.0911
 8553TIP3   OH247149   3.750   4.371  12.494 -0.1869  0.2601  0.0831
 8553TIP3    H147150   3.657   4.382  12.513 -0.3219 -0.1948 -0.2939
 8553TIP3    H247151   3.761   4.406  12.405 -0.6441 -2.4983 -1.1859
 8554TIP3   OH247152   2.569   3.292   5.769  0.5630  0.3931 -0.8089
 8554TIP3    H147153   2.579   3.333   5.683  0.8704  1.8697 -0.1082
 8554TIP3    H247154   2.478   3.309   5.794  0.8587  1.2713 -0.2474
 8555TIP3   OH247155   2.077   2.374  11.565  0.3583 -0.1831  0.0660
 8555TIP3    H147156   2.132   2.450  11.543 -0.7468  0.7421  0.4485
 8555TIP3    H247157   2.021   2.404  11.637 -0.7896 -1.0370 -0.4416
 8556TIP3   OH247158   1.144   5.750  15.552 -0.8100 -0.2789 -0.5873
 8556TIP3    H147159   1.132   5.656  15.537 -0.0865  0.0660 -4.0061
 8556TIP3    H247160   1.226   5.756  15.601 -0.0568 -1.4014 -1.6533
 8557TIP3   OH247161   6.408   2.808   1.716 -0.0474 -0.3800  0.3639
 8557TIP3    H147162   6.414   2.875   1.783 -0.6486  0.5869 -0.5156
 8557TIP3    H247163   6.314   2.789   1.709 -0.0419 -0.1019 -0.5489
 8558TIP3   OH247164   2.610   5.440   4.208  0.4345 -0.0365 -0.2573
 8558TIP3    H147165   2.638   5.401   4.125 -0.6170  0.6191 -0.9563
 8558TIP3    H247166   2.609   5.535   4.190 -0.2981  0.0733  0.3340
 8559TIP3   OH247167   6.800   3.945   4.022  0.3101 -0.3102 -0.0626
 8559TIP3    H147168   6.827   4.018   3.965  0.4526  0.8406  1.4112
 8559TIP3    H247169   6.718   3.975   4.061  0.1942 -1.0927  0.3045
 8560TIP3   OH247170   6.332   1.618  16.960  0.7686 -0.2119 -0.2019
 8560TIP3    H147171   6.312   1.691  16.901 -2.2692 -0.9807 -0.2999
 8560TIP3    H247172   6.264   1.553  16.942  2.2191 -2.2714  1.2507
 8561TIP3   OH247173   3.165   3.227   5.855 -0.3370  0.1663 -0.3585
 8561TIP3    H147174   3.258   3.243   5.872 -0.0083  0.4757 -2.1969
 8561TIP3    H247175   3.138   3.300   5.799 -1.5967 -0.1035 -0.1297
 8562TIP3   OH247176   2.412   0.591  16.494 -0.1267 -0.2427 -0.1000
 8562TIP3    H147177   2.434   0.635  16.577 -1.8891  1.2005 -0.3399
 8562TIP3    H247178   2.450   0.647  16.427  2.1112 -1.8976 -0.3245
 8563TIP3   OH247179   4.796   0.929   0.014  0.2194  0.5935  0.4324
 8563TIP3    H147180   4.874   0.918  -0.041 -0.5119 -0.3956 -0.4317
 8563TIP3    H247181   4.822   0.995   0.078  1.7711  0.2783  0.1679
 8564TIP3   OH247182   1.420   6.528   5.169  0.0389 -0.0958 -0.4685
 8564TIP3    H147183   1.406   6.604   5.224  0.1265 -0.0650 -0.4878
 8564TIP3    H247184   1.483   6.474   5.218  1.0220  0.4784 -1.0525
 8565TIP3   OH247185   2.206   2.305  16.983  0.2869  0.0362  0.1936
 8565TIP3    H147186   2.259   2.366  17.034  1.8458 -0.5029 -0.6919
 8565TIP3    H247187   2.188   2.352  16.901 -0.0694 -0.0189  0.2394
 8566TIP3   OH247188   3.297   3.232   1.382  0.3232 -0.4393 -0.3433
 8566TIP3    H147189   3.343   3.220   1.465  1.3992  0.7547 -0.7466
 8566TIP3    H247190   3.268   3.323   1.384 -1.5728 -1.0004 -0.3445
 8567TIP3   OH247191   6.557   3.536   1.281  0.1161 -0.2730  0.3346
 8567TIP3    H147192   6.650   3.554   1.293 -0.2367 -0.1398  3.5526
 8567TIP3    H247193   6.528   3.498   1.364 -2.4995 -1.3570 -0.9475
 8568TIP3   OH247194   2.420   3.859   1.150  0.9674  0.2477 -0.4708
 8568TIP3    H147195   2.511   3.888   1.144  0.7512  0.7513 -1.6740
 8568TIP3    H247196   2.389   3.897   1.232  1.6502  0.6532 -0.3848
 8569TIP3   OH247197   3.242   0.226  10.423 -0.0612 -0.2874  0.3451
 8569TIP3    H147198   3.301   0.295  10.392  0.8297 -0.4457  1.6411
 8569TIP3    H247199   3.290   0.182  10.492 -0.3342 -2.6902 -0.8959
 8570TIP3   OH247200   4.487   4.912   6.151  0.4782  0.0615 -0.1336
 8570TIP3    H147201   4.570   4.892   6.195  0.0459  0.8482  1.0948
 8570TIP3    H247202   4.451   4.826   6.127  0.8686 -0.3762  0.8075
 8571TIP3   OH247203   2.077   2.275   3.578  0.5580 -0.2509 -0.1096
 8571TIP3    H147204   2.009   2.286   3.511 -0.3362 -2.2834  0.3834
 8571TIP3    H247205   2.029   2.240   3.654  2.3007 -3.3624 -0.2652
 8572TIP3   OH247206   1.091   5.504  14.336  0.2392  0.0999  0.7412
 8572TIP3    H147207   1.008   5.534  14.372  0.0937 -1.6222  1.9445
 8572TIP3    H247208   1.157   5.529  14.401  0.1374 -1.8914  1.6796
 8573TIP3   OH247209   3.733   5.380  15.432 -0.2492  0.2145 -0.3991
 8573TIP3    H147210   3.711   5.304  15.378  0.8077  0.0259 -0.5858
 8573TIP3    H247211   3.815   5.356  15.474  0.4606  1.5123 -0.9969
 8574TIP3   OH247212   4.618   2.715   3.178  0.1253 -0.0480  0.2688
 8574TIP3    H147213   4.562   2.783   3.141 -1.8413 -0.0161  2.9279
 8574TIP3    H247214   4.644   2.750   3.264  1.9366 -1.2631  0.2673
 8575TIP3   OH247215   0.321   6.162   0.372  0.3824  0.2077  0.0076
 8575TIP3    H147216   0.256   6.152   0.301 -0.3662 -0.7311  0.8024
 8575TIP3    H247217   0.388   6.218   0.334 -0.6098  0.7455 -1.0457
 8576TIP3   OH247218   4.539   3.917  13.517  0.1405  0.6307 -0.7659
 8576TIP3    H147219   4.591   3.892  13.440 -0.7684 -2.9509 -0.3868
 8576TIP3    H247220   4.462   3.962  13.480  0.4824  0.3711 -1.8228
 8577TIP3   OH247221   6.516   2.575  11.215 -0.4200 -0.4497  0.1261
 8577TIP3    H147222   6.461   2.649  11.241 -0.7125 -0.1599 -1.2017
 8577TIP3    H247223   6.605   2.611  11.213 -0.1524 -0.9016  2.2116
 8578TIP3   OH247224   1.453   4.624   2.786 -0.6514 -0.1282  0.2358
 8578TIP3    H147225   1.496   4.575   2.717  0.9060 -0.1097  1.1521
 8578TIP3    H247226   1.522   4.675   2.827 -1.7775  0.8892  0.9495
 8579TIP3   OH247227   2.629   0.819  15.795 -0.4153 -0.5787 -0.5594
 8579TIP3    H147228   2.692   0.874  15.749  0.2863 -0.0457  1.0012
 8579TIP3    H247229   2.677   0.739  15.816  0.5167  0.6468  2.5029
 8580TIP3   OH247230   4.114   2.435  10.751  0.1876  0.0990  0.5568
 8580TIP3    H147231   4.165   2.403  10.677  1.6380 -1.3465  2.0963
 8580TIP3    H247232   4.150   2.521  10.771  0.4709  0.0610  0.2063
 8581TIP3   OH247233   6.192   0.494  16.079  0.4406 -0.6742  0.0884
 8581TIP3    H147234   6.167   0.585  16.097  1.4223  0.0757 -1.9849
 8581TIP3    H247235   6.115   0.456  16.036  1.5855  0.7540 -3.6014
 8582TIP3   OH247236   6.771   5.580   5.792  0.4214 -0.5220  0.5528
 8582TIP3    H147237   6.699   5.632   5.827  1.3323  1.7819 -0.7572
 8582TIP3    H247238   6.759   5.583   5.697  2.6630  0.7440  0.2219
 8583TIP3   OH247239   1.615   5.896   0.945 -0.4241 -0.2103  0.1323
 8583TIP3    H147240   1.646   5.862   0.862  1.1196  0.9614  0.1901
 8583TIP3    H247241   1.691   5.895   1.002 -0.9977  0.7388  0.9613
 8584TIP3   OH247242   3.897   5.644   5.182 -0.5647 -0.8534  0.2121
 8584TIP3    H147243   3.870   5.557   5.212 -0.3732 -0.8690  0.3354
 8584TIP3    H247244   3.838   5.662   5.108 -1.7122 -0.3825  1.2109
 8585TIP3   OH247245   6.139   6.643   2.845  0.5132 -0.0989  0.6369
 8585TIP3    H147246   6.200   6.717   2.837  0.4656 -0.2418 -1.7456
 8585TIP3    H247247   6.131   6.629   2.939  0.3057  3.1074  1.2325
 8586TIP3   OH247248   0.302   6.298   1.899  0.5601  0.4517  0.0726
 8586TIP3    H147249   0.255   6.381   1.896  0.0564  0.1486 -1.8298
 8586TIP3    H247250   0.339   6.294   1.988 -1.4516  1.5554  1.0301
 8587TIP3   OH247251   5.027   3.649  12.050 -0.2917  0.0990  0.2767
 8587TIP3    H147252   5.031   3.596  12.130 -1.9269 -3.2829 -1.6673
 8587TIP3    H247253   5.091   3.609  11.991  0.7199  2.3859 -0.3208
 8588TIP3   OH247254   4.823   1.520   1.119  0.5318  0.2425  0.2861
 8588TIP3    H147255   4.842   1.613   1.129  0.0346  0.3005  0.7344
 8588TIP3    H247256   4.804   1.510   1.026 -1.5130  1.0113  0.5694
 8589TIP3   OH247257   1.609   3.761   6.352 -0.2610 -0.7383 -0.3949
 8589TIP3    H147258   1.695   3.786   6.386 -1.5022  1.6875  1.2723
 8589TIP3    H247259   1.580   3.691   6.409  0.1246 -0.7532 -0.2158
 8590TIP3   OH247260   5.744   0.565   3.913  0.1037 -0.0230 -0.2526
 8590TIP3    H147261   5.719   0.576   3.821  1.5528 -0.6023 -0.7460
 8590TIP3    H247262   5.835   0.595   3.917 -0.4459  1.6180  1.3802
 8591TIP3   OH247263   1.003   6.497  11.323 -0.0264  0.0056  0.3112
 8591TIP3    H147264   1.015   6.484  11.417 -0.0999 -0.1885  0.2927
 8591TIP3    H247265   1.091   6.520  11.291 -0.0268  0.2060  0.4464
 8592TIP3   OH247266   3.563   3.350  16.284  0.3514  0.0001 -0.3789
 8592TIP3    H147267   3.527   3.381  16.200 -0.4142 -0.6808 -0.3211
 8592TIP3    H247268   3.645   3.308  16.260  0.1800 -0.1168 -0.7822
 8593TIP3   OH247269   4.013   0.237  13.853 -0.1401 -0.0631  0.2515
 8593TIP3    H147270   4.041   0.170  13.791 -2.7017 -0.6179 -0.4245
 8593TIP3    H247271   3.960   0.190  13.917 -0.6503  1.0813  0.6896
 8594TIP3   OH247272   5.934   4.001  14.170 -0.1956  0.5391 -0.0131
 8594TIP3    H147273   5.939   4.044  14.085  0.7263  0.4755 -0.0083
 8594TIP3    H247274   5.973   4.063  14.231  0.7634 -0.1122  0.0621
 8595TIP3   OH247275   3.972   5.356  16.026 -0.3009  0.1040 -0.0901
 8595TIP3    H147276   3.893   5.399  15.993 -0.1822  0.5307  0.1847
 8595TIP3    H247277   3.950   5.262  16.024 -0.2291  0.0963 -1.5726
 8596TIP3   OH247278   6.828   2.148   3.355 -0.0061  0.2062 -0.2008
 8596TIP3    H147279   6.878   2.145   3.274 -1.3519  1.9711 -1.1842
 8596TIP3    H247280   6.787   2.235   3.355 -0.0351  0.2893  2.3997
 8597TIP3   OH247281   1.038   1.246   3.039  0.1664 -0.0137 -0.5126
 8597TIP3    H147282   1.103   1.220   2.974  2.0824  2.0522  0.4050
 8597TIP3    H247283   0.996   1.165   3.065  1.4981 -1.2857 -2.0935
 8598TIP3   OH247284   5.792   2.251   3.754  0.2536 -0.0907  0.2586
 8598TIP3    H147285   5.883   2.263   3.781  1.0425 -1.5988 -1.4802
 8598TIP3    H247286   5.749   2.214   3.832  2.1564 -3.2571 -0.0079
 8599TIP3   OH247287   5.593   4.061   1.588 -0.6324 -0.4440  0.0452
 8599TIP3    H147288   5.526   4.129   1.595 -0.6605 -0.5800  1.1575
 8599TIP3    H247289   5.556   3.985   1.632  0.3886 -0.4131  0.9864
 8600TIP3   OH247290   3.470   3.240  16.987  0.3492 -0.0882 -0.3298
 8600TIP3    H147291   3.481   3.263  17.079 -0.5478  0.4387 -0.3430
 8600TIP3    H247292   3.389   3.189  16.985 -0.1393  0.6913 -0.9468
 8601TIP3   OH247293   6.745   3.425   6.212  0.2936  0.0466  0.0144
 8601TIP3    H147294   6.830   3.444   6.252  0.4593  0.9089 -0.7260
 8601TIP3    H247295   6.764   3.418   6.118 -0.5876  1.1013 -0.2598
 8602TIP3   OH247296   0.190   3.783  12.916  0.5474  0.1922 -0.4650
 8602TIP3    H147297   0.170   3.811  12.827  1.6932  2.6207 -0.0437
 8602TIP3    H247298   0.284   3.764  12.915  0.3641 -0.8213 -0.0019
 8603TIP3   OH247299   2.217   1.496   1.026  0.6116  0.0619 -0.3784
 8603TIP3    H147300   2.125   1.503   1.001  0.4214  0.2353  0.3248
 8603TIP3    H247301   2.224   1.409   1.066  0.4150  0.5603  0.8100
 8604TIP3   OH247302   2.337   0.037   3.773 -0.5018 -0.4245 -0.3828
 8604TIP3    H147303   2.254   0.012   3.733 -0.4622 -0.6149 -0.3457
 8604TIP3    H247304   2.365   0.115   3.725  0.4524 -1.6803 -1.9667
 8605TIP3   OH247305   0.427   5.923  14.801  0.2271 -0.2228 -0.3509
 8605TIP3    H147306   0.429   5.907  14.707  0.8700  0.6779 -0.5003
 8605TIP3    H247307   0.519   5.929  14.827  0.0721  2.0945 -0.1426
 8606TIP3   OH247308   0.225   0.773  16.281  0.4778 -0.0058 -0.1426
 8606TIP3    H147309   0.227   0.863  16.247  0.0730 -0.2428 -0.8065
 8606TIP3    H247310   0.195   0.782  16.372  0.4937  0.5300 -0.1882
 8607TIP3   OH247311   1.932   3.329  11.023 -0.0304  0.2015  0.2337
 8607TIP3    H147312   1.884   3.282  10.955  0.7344  1.5815 -1.3504
 8607TIP3    H247313   2.015   3.353  10.980  0.9729  0.1282  2.0469
 8608TIP3   OH247314   0.536   2.219   1.734  0.3611  0.1833 -0.4066
 8608TIP3    H147315   0.589   2.155   1.686  2.8242 -0.5738  2.9051
 8608TIP3    H247316   0.579   2.303   1.717  0.1124  0.2055 -0.9323
 8609TIP3   OH247317   5.579   2.911   2.516 -0.1585  0.5264 -0.1184
 8609TIP3    H147318   5.603   3.002   2.535  2.4340 -0.3292  1.2102
 8609TIP3    H247319   5.500   2.896   2.568  0.1580  1.6419  0.7290
 8610TIP3   OH247320   5.203   4.591  15.960 -0.4480  0.5073  0.1559
 8610TIP3    H147321   5.193   4.640  16.042  1.4622  0.6320  0.3597
 8610TIP3    H247322   5.247   4.652  15.901  2.1246 -0.9248  0.4559
 8611TIP3   OH247323   6.827   1.281   5.578  0.2653  0.2052  0.1566
 8611TIP3    H147324   6.794   1.366   5.608  0.1063  0.0588  0.3973
 8611TIP3    H247325   6.751   1.238   5.541  0.1831 -0.1299  0.7043
 8612TIP3   OH247326   1.856   4.028  14.378 -0.4070  0.3935 -0.3117
 8612TIP3    H147327   1.788   4.048  14.442  1.5650 -2.4260  2.9869
 8612TIP3    H247328   1.863   3.933  14.379  2.3385  0.4676 -1.9207
 8613TIP3   OH247329   1.998   4.420   3.015 -0.2999  0.5466 -0.2738
 8613TIP3    H147330   2.000   4.327   3.039 -0.5104  0.8173  0.8496
 8613TIP3    H247331   1.993   4.466   3.098  0.5292  1.6040 -0.7896
 8614TIP3   OH247332   2.929   6.277  16.354  0.6497 -0.4442  0.1729
 8614TIP3    H147333   2.917   6.283  16.448 -1.3067 -1.6018  0.0585
 8614TIP3    H247334   2.997   6.211  16.342  0.1051 -1.1251  0.7722
 8615TIP3   OH247335   6.214   3.720  16.996  0.6081 -0.4797  0.4124
 8615TIP3    H147336   6.193   3.683  17.082  2.2820 -1.7332  0.3493
 8615TIP3    H247337   6.223   3.814  17.012 -1.4589 -0.3529  1.0724
 8616TIP3   OH247338   5.691   1.140  16.021 -0.3131  0.1008 -0.2746
 8616TIP3    H147339   5.697   1.144  15.925 -0.4185  0.2927 -0.2747
 8616TIP3    H247340   5.616   1.084  16.038 -1.0875  1.0856 -0.3256
 8617TIP3   OH247341   6.344   4.677   6.157 -0.5147  0.0797 -0.3343
 8617TIP3    H147342   6.364   4.768   6.177  0.6102 -0.3066  0.3966
 8617TIP3    H247343   6.260   4.680   6.112 -0.1854  1.5369 -0.9073
 8618TIP3   OH247344   2.218   3.800  13.655 -0.6969  0.2852 -0.1717
 8618TIP3    H147345   2.274   3.813  13.579 -1.4710  0.4861 -0.7205
 8618TIP3    H247346   2.158   3.731  13.628 -1.2474  0.6535  0.0992
 8619TIP3   OH247347   2.158   0.255   2.673 -0.5792  0.1165  0.7488
 8619TIP3    H147348   2.247   0.225   2.652 -0.4026  0.5031  0.9405
 8619TIP3    H247349   2.102   0.210   2.609 -0.5533 -2.1327  2.2041
 8620TIP3   OH247350   5.222   5.758  14.320 -0.4517  0.3729  0.2224
 8620TIP3    H147351   5.273   5.804  14.254 -0.1309 -0.7125 -0.3017
 8620TIP3    H247352   5.191   5.679  14.277  0.0808 -0.5545  1.4655
 8621TIP3   OH247353   1.731   6.603   4.873 -0.1055 -0.0334  0.1350
 8621TIP3    H147354   1.726   6.572   4.964  0.1515  2.7856  1.2252
 8621TIP3    H247355   1.818   6.577   4.844  0.1230 -0.2605  0.9885
 8622TIP3   OH247356   0.753   6.527  11.243 -0.2167 -0.6643  0.1822
 8622TIP3    H147357   0.749   6.590  11.171  0.4950 -2.0825 -1.1501
 8622TIP3    H247358   0.842   6.535  11.277  0.4594 -2.0830 -1.1195
 8623TIP3   OH247359   3.822   6.761   4.494  0.5282  0.5558 -0.6102
 8623TIP3    H147360   3.797   6.737   4.405  0.3571  1.3509 -0.7903
 8623TIP3    H247361   3.755   6.824   4.521 -0.1932 -0.7044  0.5997
 8624TIP3   OH247362   2.544   3.018  16.642 -0.1217 -0.4737 -0.2171
 8624TIP3    H147363   2.555   3.109  16.667 -2.9883  0.2225 -1.0879
 8624TIP3    H247364   2.476   2.985  16.702 -0.0085 -1.6760 -0.7088
 8625TIP3   OH247365   0.198   0.985   1.197 -0.1070 -0.0105  0.7355
 8625TIP3    H147366   0.250   1.065   1.195  0.3039 -0.2928 -0.5060
 8625TIP3    H247367   0.213   0.949   1.284  0.2951  0.8610  1.0419
 8626TIP3   OH247368   1.543   0.224  12.124  0.8616 -0.6144 -0.0939
 8626TIP3    H147369   1.507   0.298  12.173  2.0603  0.0611 -0.1980
 8626TIP3    H247370   1.547   0.152  12.188 -1.2797 -0.9347 -0.2591
 8627TIP3   OH247371   1.145   1.812   1.074 -0.7351  0.2617  0.0794
 8627TIP3    H147372   1.197   1.758   1.015  1.0634  0.9313  0.9938
 8627TIP3    H247373   1.065   1.761   1.089 -0.8430 -0.3313 -2.1630
 8628TIP3   OH247374   6.618   6.033   5.079 -0.0824 -0.0548  0.4193
 8628TIP3    H147375   6.625   6.065   4.989  2.4588  0.4277  0.6996
 8628TIP3    H247376   6.564   6.097   5.124 -1.9056 -0.6143 -0.8322
 8629TIP3   OH247377   4.580   6.756  16.124  0.1709 -0.0723 -0.2718
 8629TIP3    H147378   4.622   6.771  16.040  0.1705 -1.8939 -0.6384
 8629TIP3    H247379   4.486   6.766  16.106  0.2435  1.0965 -0.1032
 8630TIP3   OH247380   5.393   4.198  16.553  0.1558  0.4071  0.0130
 8630TIP3    H147381   5.469   4.140  16.559  0.8281  1.3186  0.5519
 8630TIP3    H247382   5.319   4.144  16.578  0.4233 -0.8413 -1.6952
 8631TIP3   OH247383   0.664   4.558   0.733 -0.3951 -0.2165  0.2939
 8631TIP3    H147384   0.719   4.490   0.695 -0.2807 -0.6736  1.2454
 8631TIP3    H247385   0.631   4.607   0.658  0.5033 -0.5595 -0.3436
 8632TIP3   OH247386   6.198   2.772  12.651  0.6492  0.3643  0.2748
 8632TIP3    H147387   6.182   2.682  12.681 -0.8584 -0.2294 -2.0498
 8632TIP3    H247388   6.158   2.775  12.564  2.7328  2.6216 -0.6917
 8633TIP3   OH247389   0.566   0.560  11.503  0.0741  0.0838 -0.6743
 8633TIP3    H147390   0.575   0.485  11.444 -1.2889  0.5696 -1.5446
 8633TIP3    H247391   0.537   0.632  11.447 -0.4488  0.7868  0.4529
 8634TIP3   OH247392   0.611   3.221  13.910 -0.2276 -0.4408  0.2763
 8634TIP3    H147393   0.575   3.237  13.823 -0.1447 -2.1503 -0.1131
 8634TIP3    H247394   0.601   3.304  13.956 -1.7038  0.0472 -0.8504
 8635TIP3   OH247395   1.546   1.062   2.471 -0.1511 -0.5460  0.3497
 8635TIP3    H147396   1.453   1.081   2.464 -0.2491 -0.8418  0.7675
 8635TIP3    H247397   1.550   0.967   2.483  0.1836 -0.4952  0.6743
 8636TIP3   OH247398   5.913   0.171  13.032  0.3466 -0.2687  0.4376
 8636TIP3    H147399   5.862   0.252  13.040  0.1839 -0.5133  2.3114
 8636TIP3    H247400   5.884   0.132  12.949  0.4082  1.5532 -0.4928
 8637TIP3   OH247401   5.682   2.941  11.509  0.7006 -0.3912 -0.0553
 8637TIP3    H147402   5.714   2.874  11.569 -1.3168 -1.0012  0.3919
 8637TIP3    H247403   5.725   2.921  11.426  2.7185 -0.1572  0.8678
 8638TIP3   OH247404   5.438   4.723  16.937 -0.4625 -0.2208 -0.0808
 8638TIP3    H147405   5.356   4.731  16.888  0.1377 -2.3668 -1.5740
 8638TIP3    H247406   5.413   4.682  17.020 -0.8515 -1.4890 -0.8040
 8639TIP3   OH247407   2.918   3.313   0.390  0.1072  0.4802 -0.5917
 8639TIP3    H147408   2.961   3.321   0.305  0.5808 -0.5498 -0.4696
 8639TIP3    H247409   2.865   3.393   0.399 -0.4136  0.3348 -2.1060
 8640TIP3   OH247410   4.711   6.370   3.193 -0.2184 -0.6764 -0.0550
 8640TIP3    H147411   4.617   6.384   3.206 -0.0769 -0.0281  0.3067
 8640TIP3    H247412   4.720   6.275   3.188 -0.8990 -0.7416 -0.1290
 8641TIP3   OH247413   2.438   5.613  16.855 -0.0518 -0.1315 -0.2928
 8641TIP3    H147414   2.497   5.620  16.931  0.3047 -3.3395 -0.1353
 8641TIP3    H247415   2.361   5.664  16.880  0.5375 -0.1239  1.7395
 8642TIP3   OH247416   4.717   2.419   0.341  0.4097  0.1129  0.1884
 8642TIP3    H147417   4.669   2.385   0.416  1.5750 -1.3061  0.3349
 8642TIP3    H247418   4.750   2.504   0.370  0.0413  0.0143  0.9253
 8643TIP3   OH247419   0.015   5.042  13.192  0.3449 -0.1139 -0.8867
 8643TIP3    H147420  -0.030   5.051  13.276  1.1793  0.6653 -0.5021
 8643TIP3    H247421   0.104   5.074  13.208  1.3327 -2.3698 -1.4133
 8644TIP3   OH247422   2.249   4.119  13.401  0.3966  0.8416 -0.6427
 8644TIP3    H147423   2.322   4.057  13.408 -0.3023  0.0049 -0.5626
 8644TIP3    H247424   2.172   4.067  13.424  0.0607  2.3791  2.1260
 8645TIP3   OH247425   1.115   4.949   0.354 -0.0910  0.3749  0.2357
 8645TIP3    H147426   1.061   4.872   0.337  1.2093 -0.3475 -0.7834
 8645TIP3    H247427   1.082   5.015   0.293 -0.9102  0.4873  0.7921
 8646TIP3   OH247428   1.594   3.970  15.355  0.4142 -0.1696  0.5880
 8646TIP3    H147429   1.587   3.950  15.448 -0.0459  2.0646  1.0848
 8646TIP3    H247430   1.677   4.017  15.347  0.3795 -0.2152 -0.1246
 8647TIP3   OH247431   6.643   6.788  14.297  0.1275  0.2643 -0.1348
 8647TIP3    H147432   6.586   6.711  14.305 -0.0287  0.3883 -0.0461
 8647TIP3    H247433   6.646   6.805  14.203  5.0074 -3.4877 -1.0974
 8648TIP3   OH247434   3.607   3.620   1.533  0.7652 -0.5796 -0.2189
 8648TIP3    H147435   3.567   3.566   1.602 -0.4639 -1.0623 -1.2746
 8648TIP3    H247436   3.607   3.564   1.456 -2.7455  1.5568 -2.0257
 8649TIP3   OH247437   4.747   4.790   1.519 -0.3312  0.6545  0.2072
 8649TIP3    H147438   4.789   4.813   1.436 -2.5119  3.0752 -0.3499
 8649TIP3    H247439   4.658   4.825   1.512 -1.2974 -0.9580  2.7575
 8650TIP3   OH247440   6.578   4.940   4.413 -0.4065 -0.0964 -0.3453
 8650TIP3    H147441   6.575   4.934   4.318  0.3412 -0.2476 -0.3642
 8650TIP3    H247442   6.529   4.863   4.443  1.7800 -1.6983 -0.6182
 8651TIP3   OH247443   3.027   6.753   4.519 -0.2394  0.3528  0.2488
 8651TIP3    H147444   3.041   6.844   4.546  1.2251  0.3595 -0.4357
 8651TIP3    H247445   3.026   6.704   4.601 -0.3853  0.8958  0.5803
 8652TIP3   OH247446   4.174   5.031  16.376 -0.1183 -0.1214  0.2874
 8652TIP3    H147447   4.253   5.016  16.428  1.4502  0.3996 -1.8392
 8652TIP3    H247448   4.137   4.944  16.362  0.1425 -0.3861  1.1807
 8653TIP3   OH247449   3.918   0.745   3.525 -0.6580  0.4711 -0.2207
 8653TIP3    H147450   3.824   0.742   3.508 -0.7250  1.3642 -0.0369
 8653TIP3    H247451   3.956   0.776   3.443 -0.2877 -1.9385 -1.0396
 8654TIP3   OH247452   3.817   4.090   3.861 -0.2717 -0.0413 -0.1922
 8654TIP3    H147453   3.724   4.103   3.880 -1.0879 -1.5644 -2.6814
 8654TIP3    H247454   3.838   4.005   3.900 -0.1852 -0.1181 -0.4025
 8655TIP3   OH247455   0.056   3.787   0.449 -0.0683  0.3061  0.5413
 8655TIP3    H147456   0.124   3.727   0.479 -0.6033  0.6944  2.7193
 8655TIP3    H247457  -0.026   3.738   0.459 -0.2653  0.4596 -0.3023
 8656TIP3   OH247458   2.783   5.588  16.932 -0.4345  0.1530 -0.2610
 8656TIP3    H147459   2.801   5.621  16.844 -3.4448 -1.2052 -1.5229
 8656TIP3    H247460   2.808   5.495  16.928  0.8139  0.4138  0.8455
 8657TIP3   OH247461   3.743   4.445   1.939  0.0943  0.0533 -0.5604
 8657TIP3    H147462   3.772   4.384   1.871 -3.0206 -1.8774 -0.3414
 8657TIP3    H247463   3.648   4.439   1.938 -0.2128 -1.3656  4.9986
 8658TIP3   OH247464   6.448   1.015  16.562  0.4818 -0.8331  0.4567
 8658TIP3    H147465   6.401   1.034  16.481  0.8404  2.6004  0.8806
 8658TIP3    H247466   6.540   1.019  16.538  0.5827 -0.9459  0.8214
 8659TIP3   OH247467   0.853   1.210   5.127 -0.4770  0.2685  0.3922
 8659TIP3    H147468   0.825   1.244   5.212  1.3965  1.1044  0.7107
 8659TIP3    H247469   0.771   1.187   5.083 -1.5581  1.0780  1.8812
 8660TIP3   OH247470   2.690   5.011  14.865 -0.3041 -0.1844 -0.4307
 8660TIP3    H147471   2.749   5.079  14.831  0.8744 -1.3028 -0.6747
 8660TIP3    H247472   2.680   5.033  14.957  0.6820 -0.1064 -0.3317
 8661TIP3   OH247473   4.495   5.856   5.008  0.0415  0.5340  1.0345
 8661TIP3    H147474   4.463   5.943   4.985  0.4400  0.1587 -1.1893
 8661TIP3    H247475   4.569   5.871   5.066 -0.4208  1.6309  1.3574
 8662TIP3   OH247476   3.123   3.630   4.539 -0.1366 -0.2260 -0.2079
 8662TIP3    H147477   3.061   3.651   4.609 -1.9006  1.0646 -2.0356
 8662TIP3    H247478   3.072   3.583   4.474  0.7838  0.8040 -1.7541
 8663TIP3   OH247479   3.018   0.862  12.758  0.6682  0.3433 -0.0338
 8663TIP3    H147480   2.975   0.841  12.841  0.8605  1.2441  0.3132
 8663TIP3    H247481   3.002   0.956  12.746 -0.7289 -0.0962 -1.8522
 8664TIP3   OH247482   2.110   3.307   1.402  0.0059  0.6077 -0.0624
 8664TIP3    H147483   2.153   3.388   1.427  2.5863 -0.7192  0.0838
 8664TIP3    H247484   2.120   3.250   1.478 -1.6434  0.0555 -0.2143
 8665TIP3   OH247485   0.252   2.111   0.888 -0.0030 -0.0893  0.3516
 8665TIP3    H147486   0.242   2.186   0.948 -0.9966  0.1141 -0.0561
 8665TIP3    H247487   0.257   2.151   0.801  2.8026 -0.2788  0.3383
 8666TIP3   OH247488   3.508   5.996   3.211  0.4623  0.4034  0.0836
 8666TIP3    H147489   3.601   5.977   3.224  0.5957  1.1581  0.2829
 8666TIP3    H247490   3.463   5.919   3.245  1.0830 -1.8779 -3.7233
 8667TIP3   OH247491   2.532   3.051   1.183 -0.0954 -0.1657  0.5214
 8667TIP3    H147492   2.604   3.087   1.131  0.0292  0.5969  1.2091
 8667TIP3    H247493   2.516   3.117   1.251  0.8365 -1.8804  2.5028
 8668TIP3   OH247494   6.803   4.375  16.284 -0.0417 -0.4125 -0.2672
 8668TIP3    H147495   6.863   4.312  16.325 -0.8832 -0.1169  1.5203
 8668TIP3    H247496   6.740   4.320  16.238  1.2320 -0.7417 -1.6981
 8669TIP3   OH247497   4.965   1.290   2.818 -0.2455 -0.1096 -0.6864
 8669TIP3    H147498   5.057   1.317   2.821 -0.6135  1.1550  0.0141
 8669TIP3    H247499   4.966   1.205   2.773  1.2888 -0.2563 -0.4186
 8670TIP3   OH247500   4.441   4.264   2.723  0.1465  0.2102 -0.1724
 8670TIP3    H147501   4.478   4.350   2.741  0.2061  0.2657 -0.5563
 8670TIP3    H247502   4.425   4.226   2.810 -1.0221  1.0948  0.0236
 8671TIP3   OH247503   2.914   1.473   0.068 -0.7586 -0.3973 -0.4788
 8671TIP3    H147504   2.923   1.380   0.086 -0.8720 -0.5432 -1.1732
 8671TIP3    H247505   2.989   1.513   0.113 -0.2244 -0.9143 -0.9031
 8672TIP3   OH247506   5.466   5.573   0.696 -0.2395 -0.1620  0.6831
 8672TIP3    H147507   5.507   5.489   0.713 -0.8760 -0.0661  3.0209
 8672TIP3    H247508   5.459   5.614   0.782 -1.4014  1.6038 -0.1946
 8673TIP3   OH247509   2.053   6.086  11.396  0.0591 -0.1459  0.1668
 8673TIP3    H147510   2.090   6.134  11.322  1.0619 -0.7403  0.2674
 8673TIP3    H247511   2.111   6.106  11.469 -0.0500 -0.7710  0.4292
 8674TIP3   OH247512   5.117   0.970  16.000  0.1476  1.0366 -0.4639
 8674TIP3    H147513   5.054   1.015  15.944 -1.1551  1.3964  1.1933
 8674TIP3    H247514   5.106   0.877  15.978  0.5458  1.2487 -1.6295
 8675TIP3   OH247515   0.832   6.560  16.042  0.2110 -0.5197 -0.3963
 8675TIP3    H147516   0.834   6.544  15.948 -0.5230 -1.0319 -0.3373
 8675TIP3    H247517   0.912   6.520  16.076  1.1179  0.7563 -0.9419
 8676TIP3   OH247518   4.212   3.232   1.915 -0.8872  0.4193  0.3582
 8676TIP3    H147519   4.137   3.263   1.965  1.1715 -0.3897  4.3622
 8676TIP3    H247520   4.214   3.137   1.931  1.7058  0.6084  1.6614
 8677TIP3   OH247521   5.575   0.974   5.524 -0.3225 -0.2439  0.4309
 8677TIP3    H147522   5.556   0.955   5.616  2.7107  1.4042  1.5333
 8677TIP3    H247523   5.646   0.915   5.501 -2.3159 -2.0351 -1.6107
 8678TIP3   OH247524   6.420   6.606  14.343 -0.2847  0.1071 -0.1921
 8678TIP3    H147525   6.381   6.631  14.427  1.1859  0.8618  0.2893
 8678TIP3    H247526   6.345   6.602  14.283 -1.2516  0.3772  0.9495
 8679TIP3   OH247527   3.984   1.168  12.848  0.6564  0.1494 -0.3128
 8679TIP3    H147528   4.068   1.199  12.881  0.2708 -0.5234  1.4703
 8679TIP3    H247529   3.982   1.076  12.872 -1.2347  0.5200  1.2280
 8680TIP3   OH247530   4.646   4.051   4.129 -0.2327  0.0312  0.5664
 8680TIP3    H147531   4.630   4.142   4.103 -0.4210 -0.3315 -0.6446
 8680TIP3    H247532   4.611   3.999   4.057  0.7078 -0.9848  0.8191
 8681TIP3   OH247533   5.968   1.290   1.779  0.4435  0.2294  0.2532
 8681TIP3    H147534   5.897   1.352   1.798  0.8384  0.4283  1.1452
 8681TIP3    H247535   6.048   1.340   1.795  0.8575  0.4799 -2.1998
 8682TIP3   OH247536   4.057   6.760   5.797 -0.4352  0.2759  0.2206
 8682TIP3    H147537   3.977   6.741   5.844 -1.2306  0.1964 -1.1056
 8682TIP3    H247538   4.118   6.692   5.824 -1.6112 -1.1499 -0.5776
 8683TIP3   OH247539   6.271   5.308  14.228 -0.4934  0.4033  0.3583
 8683TIP3    H147540   6.289   5.381  14.169  0.8645 -1.3597 -1.5380
 8683TIP3    H247541   6.303   5.231  14.182 -0.3166 -1.2320  2.9879
 8684TIP3   OH247542   3.822   6.053  16.714 -0.2739  0.3887 -0.0419
 8684TIP3    H147543   3.876   6.130  16.735  0.1999  0.2458 -0.7146
 8684TIP3    H247544   3.765   6.083  16.643  0.0161  0.0773 -0.4096
 8685TIP3   OH247545   3.184   2.266   2.928  0.6424  0.1874  0.0048
 8685TIP3    H147546   3.105   2.297   2.884  0.6844  0.1986 -0.0630
 8685TIP3    H247547   3.191   2.174   2.903  0.1728 -0.0556  0.7048
 8686TIP3   OH247548   5.428   3.859   3.336  0.0482  0.4627 -0.3441
 8686TIP3    H147549   5.459   3.784   3.285  0.7065 -0.3515  1.2068
 8686TIP3    H247550   5.508   3.903   3.364 -0.3252  2.2655 -1.8959
 8687TIP3   OH247551   6.756   3.943  14.298  0.2256  0.2626 -0.4278
 8687TIP3    H147552   6.661   3.949  14.303  0.3342  1.8944  0.1067
 8687TIP3    H247553   6.775   3.943  14.204 -0.2444  1.0967 -0.5262
 8688TIP3   OH247554   2.980   5.065  12.471 -0.0147 -0.5692 -0.5588
 8688TIP3    H147555   2.950   5.031  12.555 -0.2069  0.1708 -0.3135
 8688TIP3    H247556   3.069   5.031  12.460 -0.4920 -1.7983 -0.7165
 8689TIP3   OH247557   5.053   0.509  16.058 -0.4862  0.5294 -0.3441
 8689TIP3    H147558   5.067   0.553  16.141 -0.8230 -1.9298  1.1120
 8689TIP3    H247559   4.960   0.522  16.039 -0.3985  1.1281 -0.3853
 8690TIP3   OH247560   1.846   3.909  11.142  0.5653 -0.0122  0.0697
 8690TIP3    H147561   1.776   3.874  11.198 -0.3015  0.5864 -0.6063
 8690TIP3    H247562   1.926   3.891  11.190 -0.1600  0.5839  1.5609
 8691TIP3   OH247563   0.360   6.742  16.135  0.3670 -0.4282 -0.2405
 8691TIP3    H147564   0.303   6.666  16.124  1.0703 -0.8090 -1.4458
 8691TIP3    H247565   0.449   6.707  16.125  0.8153  0.2170  1.2058
 8692TIP3   OH247566   1.212   3.843  13.821 -0.4584  0.1223  0.4162
 8692TIP3    H147567   1.161   3.779  13.771  0.3274 -0.9857  0.9875
 8692TIP3    H247568   1.299   3.842  13.780 -0.0448 -0.1996  1.2628
 8693TIP3   OH247569   4.267   2.288   4.048 -0.3648  0.1721  0.8677
 8693TIP3    H147570   4.290   2.372   4.010  3.5509 -0.9922  0.1372
 8693TIP3    H247571   4.334   2.273   4.115 -1.9793 -1.6611  2.2068
 8694TIP3   OH247572   6.136   2.189  13.015  0.1709  0.2270 -0.4642
 8694TIP3    H147573   6.053   2.172  13.060 -0.3234  0.1012 -1.3947
 8694TIP3    H247574   6.199   2.201  13.085 -0.5585 -0.0686  0.2619
 8695TIP3   OH247575   5.708   4.209  13.775  0.1889 -0.6963  0.2224
 8695TIP3    H147576   5.653   4.269  13.826  0.3779 -0.1401 -0.2158
 8695TIP3    H247577   5.648   4.141  13.744  0.0621 -1.0088  1.1233
 8696TIP3   OH247578   0.708   0.552  10.860 -0.3109 -0.4185 -0.0930
 8696TIP3    H147579   0.780   0.570  10.800  0.6527  0.0886  1.1590
 8696TIP3    H247580   0.667   0.472  10.826  2.0417 -1.8457  0.1767
 8697TIP3   OH247581   5.543   4.326  12.630 -0.1600 -0.4829 -0.7197
 8697TIP3    H147582   5.517   4.250  12.577  0.6097 -1.0852 -0.2499
 8697TIP3    H247583   5.586   4.384  12.568 -0.4211 -0.5965 -1.0121
 8698TIP3   OH247584   2.654   2.968   3.253 -0.2320 -0.5626 -0.2627
 8698TIP3    H147585   2.709   3.012   3.188  0.5299 -0.0813  0.6837
 8698TIP3    H247586   2.665   2.875   3.235  1.6755 -0.5319  0.4894
 8699TIP3   OH247587   4.285   0.552   2.971  0.0287  0.6479 -0.4131
 8699TIP3    H147588   4.262   0.604   2.894  0.7310 -1.2477 -1.9941
 8699TIP3    H247589   4.283   0.462   2.939 -2.8201 -0.5607  2.5724
 8700TIP3   OH247590   2.301   2.478  11.234 -0.0063 -0.2526  0.0589
 8700TIP3    H147591   2.310   2.385  11.215 -0.5288 -0.6144  1.4557
 8700TIP3    H247592   2.317   2.485  11.328  1.6045  1.3061 -0.2660
 8701TIP3   OH247593   2.943   1.191  14.536 -0.0941  0.6779  0.0225
 8701TIP3    H147594   2.862   1.239  14.553  0.5652  1.3717  1.4004
 8701TIP3    H247595   3.008   1.233  14.593  1.5322  0.9137 -1.9010
 8702TIP3   OH247596   4.160   6.855  16.374 -0.6438 -0.4806 -0.2051
 8702TIP3    H147597   4.100   6.914  16.329 -2.3079 -0.9501  1.2874
 8702TIP3    H247598   4.107   6.814  16.442  1.6517 -0.0716  1.9751
 8703TIP3   OH247599   5.074   5.179   5.603 -0.3934 -0.1691  0.0544
 8703TIP3    H147600   5.077   5.131   5.520  1.1409  0.3955 -0.2494
 8703TIP3    H247601   5.097   5.114   5.669 -0.8845 -0.4449 -0.0406
 8704TIP3   OH247602   2.596   2.192  15.910  0.1383  0.3510  0.0130
 8704TIP3    H147603   2.521   2.211  15.966 -0.2183 -0.4435 -0.1709
 8704TIP3    H247604   2.626   2.277  15.879  0.9162  0.8813  2.1058
 8705TIP3   OH247605   2.544   6.833  16.337 -0.7272  0.0828  0.6975
 8705TIP3    H147606   2.551   6.862  16.246 -0.4261 -3.2765 -0.4677
 8705TIP3    H247607   2.635   6.831  16.369 -0.5516 -1.3743  0.1364
 8706TIP3   OH247608   6.662   0.078  16.405  0.1861  0.0894  0.3789
 8706TIP3    H147609   6.579   0.100  16.363  0.4962  0.7950  0.1294
 8706TIP3    H247610   6.697   0.005  16.353 -0.7497 -0.9160  1.0982
 8707TIP3   OH247611   4.106   1.997   1.759 -1.1449  0.1002  0.3868
 8707TIP3    H147612   4.117   1.909   1.796 -0.7975 -0.7451 -1.5629
 8707TIP3    H247613   4.119   1.984   1.665  1.7405  2.7013  0.2770
 8708TIP3   OH247614   3.428   1.090  10.520 -0.5378 -0.0767  0.2808
 8708TIP3    H147615   3.379   1.129  10.593 -0.7515  0.0263  0.0847
 8708TIP3    H247616   3.416   1.152  10.448  3.2610  2.1308  1.2744
 8709TIP3   OH247617   3.330   1.442  15.850 -0.2742 -0.3836  0.1046
 8709TIP3    H147618   3.298   1.352  15.853  0.9843 -0.8837 -0.5109
 8709TIP3    H247619   3.310   1.473  15.762 -1.7106  0.3600  0.6603
 8710TIP3   OH247620   5.966   5.734   3.408  0.1607 -0.1046  0.5954
 8710TIP3    H147621   5.878   5.726   3.370  1.1631 -0.0236 -1.9776
 8710TIP3    H247622   5.957   5.798   3.478 -2.0670 -1.0962  1.3077
 8711TIP3   OH247623   2.031   6.750   4.843 -0.4720 -0.2492  0.3152
 8711TIP3    H147624   2.049   6.789   4.928 -0.2745  0.9162 -0.2460
 8711TIP3    H247625   2.051   6.657   4.854  0.6851  0.0909  1.2128
 8712TIP3   OH247626   4.556   3.590   5.452  0.5405  0.3694  0.5285
 8712TIP3    H147627   4.580   3.679   5.478  2.4923  0.4749 -1.3820
 8712TIP3    H247628   4.604   3.534   5.514  0.0732  0.6292  1.1339
 8713TIP3   OH247629   2.137   0.824  15.321  0.2291 -0.0498  0.4552
 8713TIP3    H147630   2.107   0.839  15.232 -0.6438 -2.2299  0.3349
 8713TIP3    H247631   2.146   0.912  15.358 -1.6147  0.8394 -1.0556
 8714TIP3   OH247632   5.606   6.496   4.087  0.5088 -0.2243 -1.0889
 8714TIP3    H147633   5.672   6.548   4.041  1.1142  1.7415  1.7275
 8714TIP3    H247634   5.610   6.526   4.177 -4.2915  0.0622 -0.6926
 8715TIP3   OH247635   6.451   6.083  15.418 -0.2933 -0.0708  0.5370
 8715TIP3    H147636   6.410   6.070  15.333  0.6601  2.3685 -0.3668
 8715TIP3    H247637   6.389   6.046  15.481 -0.7017 -2.5645 -1.2050
 8716TIP3   OH247638   5.623   3.609  11.641 -0.3854  0.7629 -0.1044
 8716TIP3    H147639   5.699   3.663  11.662 -1.3013  1.5973  1.2057
 8716TIP3    H247640   5.560   3.669  11.602 -0.5026  0.1452 -0.8836
 8717TIP3   OH247641   1.155   1.039  14.167  0.1134 -0.7463  0.2968
 8717TIP3    H147642   1.234   1.033  14.219 -0.1866  0.2338  0.8789
 8717TIP3    H247643   1.186   1.063  14.079  0.4335  0.0426  0.6206
 8718TIP3   OH247644   1.685   0.022   0.234  0.0443 -0.1224  0.2766
 8718TIP3    H147645   1.693   0.108   0.277  0.4201 -0.5241  1.0415
 8718TIP3    H247646   1.643  -0.033   0.300  2.3446 -1.2600  0.8863
 8719TIP3   OH247647   2.200   6.637   1.771 -0.1677 -0.1710 -0.1743
 8719TIP3    H147648   2.110   6.670   1.763  0.1659  0.8378  0.0343
 8719TIP3    H247649   2.195   6.546   1.742 -1.1779 -0.0062 -0.5738
 8720TIP3   OH247650   1.561   0.912   3.768 -0.1466  0.1955  0.0196
 8720TIP3    H147651   1.562   1.007   3.760  0.8480  0.0640 -2.4892
 8720TIP3    H247652   1.473   0.891   3.799 -0.9746  1.8411 -1.0766
 8721TIP3   OH247653   4.647   6.579  13.565 -0.0352 -0.0298 -0.4202
 8721TIP3    H147654   4.555   6.558  13.549 -0.1614 -0.3589  0.6592
 8721TIP3    H247655   4.688   6.572  13.479 -1.1584  0.9018 -1.0620
 8722TIP3   OH247656   1.476   1.080   0.959  0.4257 -0.3203  0.1314
 8722TIP3    H147657   1.470   1.111   1.050 -0.0729  0.2111 -0.0741
 8722TIP3    H247658   1.425   1.144   0.909  0.1210 -0.9855 -0.4271
 8723TIP3   OH247659   6.179   6.712   4.820  0.8675  0.2340  0.1380
 8723TIP3    H147660   6.182   6.701   4.725  0.2538  0.2385  0.1165
 8723TIP3    H247661   6.270   6.702   4.847  1.1365  0.7802 -0.5076
 8724TIP3   OH247662   3.339   1.152   0.316 -0.2591 -0.5743  0.4017
 8724TIP3    H147663   3.419   1.101   0.328  0.2380  0.2216  0.5702
 8724TIP3    H247664   3.355   1.234   0.364 -1.4417 -0.6798  1.0074
 8725TIP3   OH247665   0.849   2.392   4.207  0.0293  0.3127  0.1836
 8725TIP3    H147666   0.939   2.391   4.238  0.5705  1.2287 -1.2596
 8725TIP3    H247667   0.856   2.385   4.112 -1.4152  0.6044  0.0272
 8726TIP3   OH247668   2.511   6.802   0.863  0.1125  0.0501  0.2092
 8726TIP3    H147669   2.432   6.776   0.815  0.4910 -1.2588  0.2453
 8726TIP3    H247670   2.481   6.869   0.924 -0.7586  0.3250 -0.4984
 8727TIP3   OH247671   5.400   2.710  14.469  0.2650  0.6167  0.6693
 8727TIP3    H147672   5.356   2.629  14.443  0.8992  0.4840 -0.0427
 8727TIP3    H247673   5.390   2.713  14.564 -1.9824  1.0274  0.4810
 8728TIP3   OH247674   4.072   3.274  15.805  0.2040 -0.4752 -0.3397
 8728TIP3    H147675   4.108   3.186  15.821  0.2653 -0.1988  1.1036
 8728TIP3    H247676   4.041   3.304  15.890 -2.1804 -0.1048 -1.2620
 8729TIP3   OH247677   1.262   3.176  12.987 -0.2477 -0.3864 -0.9949
 8729TIP3    H147678   1.229   3.135  12.907  1.5407 -1.9033 -1.0010
 8729TIP3    H247679   1.348   3.210  12.964 -0.6178  1.1425 -0.2705
 8730TIP3   OH247680   3.111   2.463   4.556 -0.1078 -0.8408 -0.0989
 8730TIP3    H147681   3.206   2.451   4.565  0.2421 -0.0852 -2.2510
 8730TIP3    H247682   3.098   2.556   4.573 -0.2540 -0.6709 -1.0758
 8731TIP3   OH247683   6.668   5.825   1.861  0.4425 -0.2227  0.4323
 8731TIP3    H147684   6.723   5.787   1.792  1.8014 -0.2177  1.4683
 8731TIP3    H247685   6.720   5.898   1.895 -0.3770  0.0230  1.1982
 8732TIP3   OH247686   3.548   5.388  11.645  0.1788 -0.4041  0.0605
 8732TIP3    H147687   3.480   5.322  11.632  0.2864 -0.0557 -3.0830
 8732TIP3    H247688   3.500   5.471  11.646  0.3432 -0.3130  0.5116
 8733TIP3   OH247689   0.594   3.789  13.542 -0.0291  0.0567 -1.0399
 8733TIP3    H147690   0.507   3.785  13.503 -0.0027 -0.9483 -1.0346
 8733TIP3    H247691   0.588   3.857  13.609 -1.5297 -1.5863  0.6067
 8734TIP3   OH247692   2.972   6.490  16.150 -0.8406  0.1985 -0.2924
 8734TIP3    H147693   2.936   6.425  16.212 -0.9741 -0.6510 -1.2259
 8734TIP3    H247694   2.989   6.567  16.204  1.7220 -1.3885  1.4246
 8735TIP3   OH247695   1.298   2.193  15.169  0.0738  0.2812 -0.0612
 8735TIP3    H147696   1.312   2.196  15.074  0.8325 -0.0077  0.0345
 8735TIP3    H247697   1.345   2.269  15.203  1.5456 -0.7274  0.2694
 8736TIP3   OH247698   5.072   0.106   2.499  0.1185  0.1583 -0.0012
 8736TIP3    H147699   5.152   0.086   2.548 -0.8143 -0.3000  1.4235
 8736TIP3    H247700   5.099   0.168   2.432  1.5964  0.3008  0.6854
 8737TIP3   OH247701   5.462   5.128   1.906 -0.1781  0.2771  0.2692
 8737TIP3    H147702   5.428   5.046   1.871  1.1546 -0.5611  0.8833
 8737TIP3    H247703   5.403   5.148   1.979 -1.7770  1.0129 -1.1505
 8738TIP3   OH247704   2.807   0.686   0.416  0.1353 -0.4416 -0.1582
 8738TIP3    H147705   2.773   0.598   0.424 -2.3783  0.6022  1.5858
 8738TIP3    H247706   2.789   0.711   0.325 -1.9913 -0.6621  0.1751
 8739TIP3   OH247707   0.791   6.046  11.911  0.0016 -0.2045 -0.4674
 8739TIP3    H147708   0.700   6.054  11.938  0.6527 -0.5119  2.0950
 8739TIP3    H247709   0.794   6.085  11.823 -2.3548  0.8567 -0.1528
 8740TIP3   OH247710   4.797   3.297  12.941  0.1838 -0.1107 -0.2281
 8740TIP3    H147711   4.847   3.373  12.969 -0.5522  0.8378 -1.3443
 8740TIP3    H247712   4.848   3.222  12.969  1.8296  0.8074 -0.6391
 8741TIP3   OH247713   3.889   5.636   5.590 -0.3399 -0.2252 -0.3773
 8741TIP3    H147714   3.804   5.614   5.552  0.3858  1.0062 -2.9141
 8741TIP3    H247715   3.953   5.587   5.538  0.6866  1.2683 -0.6083
 8742TIP3   OH247716   2.244   6.464  13.273  0.2801 -0.3610 -0.3859
 8742TIP3    H147717   2.327   6.494  13.310  0.0376 -0.1250 -0.0301
 8742TIP3    H247718   2.184   6.460  13.348 -0.0800 -0.3509 -0.6697
 8743TIP3   OH247719   6.127   4.369   2.752  0.2052  0.4786 -0.0712
 8743TIP3    H147720   6.139   4.435   2.821  1.2932 -1.2867  1.5088
 8743TIP3    H247721   6.183   4.400   2.680  0.4792  1.4147  0.5186
 8744TIP3   OH247722   3.539   6.388   5.218  0.0094  0.3148 -0.0746
 8744TIP3    H147723   3.497   6.302   5.219  1.7072 -0.5945  1.6365
 8744TIP3    H247724   3.484   6.442   5.162 -0.8467 -2.0151 -1.6105
 8745TIP3   OH247725   1.067   2.465  10.549  0.2172 -0.3826 -0.4943
 8745TIP3    H147726   1.010   2.462  10.472 -0.3377  0.9654 -0.1481
 8745TIP3    H247727   1.117   2.546  10.539 -0.4038  0.1994  0.9492
 8746TIP3   OH247728   5.727   6.324  12.534 -0.2648 -0.0797  0.2926
 8746TIP3    H147729   5.633   6.321  12.554 -0.7899  0.7089 -1.8256
 8746TIP3    H247730   5.755   6.410  12.564 -0.4142  0.0448  0.0682
 8747TIP3   OH247731   0.418   2.582   0.270  0.0110  0.4681  0.1182
 8747TIP3    H147732   0.356   2.647   0.303 -0.3875  0.7349 -1.0896
 8747TIP3    H247733   0.438   2.611   0.181 -0.2141 -1.0808 -0.4769
 8748TIP3   OH247734   0.319   5.652   3.721 -0.3774  0.1685  1.0427
 8748TIP3    H147735   0.338   5.727   3.665 -2.1560  0.5215  0.8713
 8748TIP3    H247736   0.279   5.588   3.662 -1.0608  0.0286  1.6542
 8749TIP3   OH247737   5.170   3.873  16.319 -0.2161  0.2225  0.6610
 8749TIP3    H147738   5.083   3.837  16.302  0.4930 -1.8829  1.1714
 8749TIP3    H247739   5.156   3.968  16.323 -2.8324 -0.1100  2.5776
 8750TIP3   OH247740   2.871   1.453   0.685  0.5401  0.1053 -0.5386
 8750TIP3    H147741   2.808   1.406   0.632  0.7021 -0.9223  0.1576
 8750TIP3    H247742   2.936   1.387   0.711  0.0215  0.3413  1.6169
 8751TIP3   OH247743   0.701   3.932   6.211 -0.1416  0.0904  0.4346
 8751TIP3    H147744   0.643   4.009   6.213 -0.9585 -0.5126  0.3853
 8751TIP3    H247745   0.641   3.857   6.212  0.6618 -0.5611  1.4174
 8752TIP3   OH247746   2.008   4.853   5.040  0.0468 -0.3522 -0.0515
 8752TIP3    H147747   2.081   4.907   5.068  0.0555  0.3618 -1.3517
 8752TIP3    H247748   2.043   4.800   4.969 -1.4215  2.5398 -3.2360
 8753TIP3   OH247749   5.336   5.239  16.906 -0.3010  0.7545  0.5020
 8753TIP3    H147750   5.297   5.326  16.913 -0.0799  0.8676  0.3425
 8753TIP3    H247751   5.284   5.184  16.964 -3.5379 -0.1097 -2.8598
 8754TIP3   OH247752   5.109   2.386  13.136 -0.5141  0.1174  0.0889
 8754TIP3    H147753   5.195   2.352  13.112  0.2334  1.1549  1.2055
 8754TIP3    H247754   5.047   2.322  13.100  0.8346 -2.8738  2.6409
 8755TIP3   OH247755   3.611   1.063  13.032 -0.1558  0.4580 -0.9640
 8755TIP3    H147756   3.659   1.047  12.951  1.3669 -0.6118  0.0825
 8755TIP3    H247757   3.567   0.980  13.050  1.8465 -0.3345  0.7244
 8756TIP3   OH247758   6.748   6.635   3.297 -0.1348  0.1916  0.3890
 8756TIP3    H147759   6.838   6.614   3.272 -0.7812  0.7628 -2.8791
 8756TIP3    H247760   6.755   6.718   3.345  1.0932  0.0871  0.4159
 8757TIP3   OH247761   4.292   5.046   2.296 -0.2325 -0.4800 -0.0066
 8757TIP3    H147762   4.257   4.957   2.288 -1.1924  0.0566 -2.8245
 8757TIP3    H247763   4.255   5.093   2.221  0.0958  2.3732  1.4958
 8758TIP3   OH247764   2.590   4.792   0.027 -0.5350 -0.6805 -0.0207
 8758TIP3    H147765   2.517   4.846   0.056  0.5544  0.9429 -0.1870
 8758TIP3    H247766   2.638   4.846  -0.035  1.5465 -1.1731  1.0521
 8759TIP3   OH247767   6.282   2.764   1.032 -0.8180 -0.0548  0.0779
 8759TIP3    H147768   6.273   2.822   1.107 -0.0234 -1.7934  1.6064
 8759TIP3    H247769   6.197   2.767   0.988 -1.7209  0.0656  1.7665
 8760TIP3   OH247770   5.414   3.255   2.159  0.0635  0.2209 -0.4167
 8760TIP3    H147771   5.483   3.194   2.133 -0.6866 -0.1736 -1.6267
 8760TIP3    H247772   5.441   3.339   2.123  0.6887  0.4207  0.5134
 8761TIP3   OH247773   0.079   1.210   4.322  0.0961 -0.0187  0.5621
 8761TIP3    H147774   0.146   1.208   4.390  1.2438  2.2159 -0.3895
 8761TIP3    H247775   0.019   1.280   4.349 -0.1647  0.0133 -0.0760
 8762TIP3   OH247776   4.090   5.895   1.868  0.1617  0.0252 -0.3059
 8762TIP3    H147777   4.011   5.924   1.915  1.1639  0.3629  1.2357
 8762TIP3    H247778   4.083   5.936   1.782 -0.6059  1.3104  0.3345
 8763TIP3   OH247779   1.674   6.387   1.653  0.5828 -0.8909 -0.3889
 8763TIP3    H147780   1.685   6.296   1.625  1.6649 -0.8972  0.0107
 8763TIP3    H247781   1.703   6.387   1.745 -0.5106 -0.3677 -0.0269
 8764TIP3   OH247782   5.726   6.406   0.825 -0.0469  0.0963  0.2390
 8764TIP3    H147783   5.791   6.473   0.805  0.5001 -0.4466  0.1696
 8764TIP3    H247784   5.771   6.323   0.807 -0.8076 -0.2814  0.0424
 8765TIP3   OH247785   2.956   3.250  16.364 -0.3695 -0.2482 -0.5746
 8765TIP3    H147786   2.880   3.302  16.337 -1.0162 -2.0376 -2.4029
 8765TIP3    H247787   3.032   3.302  16.337 -0.8745  1.3430  0.8530
 8766TIP3   OH247788   4.807   4.837  13.263  0.4311  0.5369 -0.5688
 8766TIP3    H147789   4.779   4.922  13.227 -0.5606  1.1133  1.4014
 8766TIP3    H247790   4.892   4.855  13.302 -0.6584  1.2390  1.6616
 8767TIP3   OH247791   6.403   0.589  11.812 -0.1547 -0.4116  0.5386
 8767TIP3    H147792   6.337   0.616  11.748  0.1518 -0.1574  0.3299
 8767TIP3    H247793   6.436   0.670  11.850  2.2990 -0.2849 -1.6112
 8768TIP3   OH247794   0.389   5.108  12.022 -0.1788  0.4577  0.5804
 8768TIP3    H147795   0.370   5.016  12.039  0.4005  0.1465 -0.3513
 8768TIP3    H247796   0.385   5.150  12.107  0.9812 -0.6974  1.2237
 8769TIP3   OH247797   4.969   2.592   4.620  0.4511 -0.0273  0.9513
 8769TIP3    H147798   5.056   2.625   4.598  0.2293 -0.0654 -0.0438
 8769TIP3    H247799   4.975   2.498   4.604  0.7358 -0.3269  2.6312
 8770TIP3   OH247800   2.422   1.425   5.994  0.1619 -0.4260  0.4156
 8770TIP3    H147801   2.425   1.394   6.084 -0.4387 -1.2881  0.1534
 8770TIP3    H247802   2.329   1.429   5.972  0.3078 -0.5908 -0.2838
 8771TIP3   OH247803   2.357   5.662  11.897  0.1161 -0.2066  0.6632
 8771TIP3    H147804   2.418   5.686  11.827 -0.0608  0.0017  0.5796
 8771TIP3    H247805   2.277   5.637  11.851  0.2326 -0.7614  0.7590
 8772TIP3   OH247806   4.496   1.947   3.150 -0.3733 -0.3493 -0.2294
 8772TIP3    H147807   4.420   1.949   3.091 -1.3438  0.3703  1.0053
 8772TIP3    H247808   4.459   1.961   3.237  1.1358 -0.4940  0.4604
 8773TIP3   OH247809   2.065   4.088   6.041 -0.0996 -0.0229  0.1114
 8773TIP3    H147810   2.007   4.090   6.117  0.3314  1.1755  0.4228
 8773TIP3    H247811   2.108   4.173   6.040 -1.2977  0.6613 -2.4136
 8774TIP3   OH247812   0.307   5.549   2.151 -0.6831 -0.5975 -0.0108
 8774TIP3    H147813   0.342   5.637   2.143 -2.0371 -0.1247 -0.8802
 8774TIP3    H247814   0.378   5.499   2.192  0.0120  0.9291  0.7174
 8775TIP3   OH247815   6.498   4.795   5.823  0.4386  0.2535  0.3416
 8775TIP3    H147816   6.450   4.858   5.877  0.7980  0.2863  0.6240
 8775TIP3    H247817   6.437   4.721   5.815 -0.2490  0.8866 -0.5435
 8776TIP3   OH247818   2.696   4.649  12.219  0.2507 -0.5266 -0.8497
 8776TIP3    H147819   2.701   4.578  12.283  0.4187  0.4588  0.2821
 8776TIP3    H247820   2.743   4.722  12.261 -0.2923  0.3833 -1.7767
 8777TIP3   OH247821   5.212   5.732  12.547  0.2840  0.5128  0.2059
 8777TIP3    H147822   5.220   5.806  12.607  0.9890  0.2698  0.4234
 8777TIP3    H247823   5.118   5.717  12.539  0.0908  1.8212 -0.3301
 8778TIP3   OH247824   6.291   0.821   1.615 -0.1098 -0.4648 -0.0428
 8778TIP3    H147825   6.242   0.846   1.537 -0.6272 -1.4764 -0.0589
 8778TIP3    H247826   6.289   0.725   1.614  1.6871 -0.5315  0.0664
 8779TIP3   OH247827   5.927   5.819   1.625  0.5624 -0.0071  0.7794
 8779TIP3    H147828   5.852   5.783   1.577  0.7336  1.2899 -0.5135
 8779TIP3    H247829   5.892   5.843   1.711 -0.3311 -0.0542  0.4336
 8780TIP3   OH247830   3.626   4.900   2.455  0.3263  0.6557  0.1834
 8780TIP3    H147831   3.622   4.952   2.375  1.2930  0.4406 -0.0101
 8780TIP3    H247832   3.707   4.850   2.448 -1.0086 -1.6398 -0.1035
 8781TIP3   OH247833   1.051   0.443  13.213 -0.2399  0.4195  0.0827
 8781TIP3    H147834   1.132   0.422  13.260  0.1898 -0.6166 -1.0717
 8781TIP3    H247835   0.983   0.437  13.279  0.6766  2.1176  1.2803
 8782TIP3   OH247836   6.555   0.690   5.958 -0.7427 -0.0997  0.1949
 8782TIP3    H147837   6.633   0.743   5.943 -0.9763 -0.1654 -1.3875
 8782TIP3    H247838   6.579   0.603   5.928 -1.4833 -0.0630 -0.5402
 8783TIP3   OH247839   0.239   5.684   5.665  0.0691  0.2533  0.4731
 8783TIP3    H147840   0.279   5.771   5.663  1.1610 -0.2452 -0.8293
 8783TIP3    H247841   0.188   5.679   5.584  1.9834 -1.1663 -0.7299
 8784TIP3   OH247842   4.864   0.257  13.239 -0.5177 -0.1546  1.4560
 8784TIP3    H147843   4.924   0.230  13.169 -1.4850  1.2174  0.0213
 8784TIP3    H247844   4.778   0.228  13.209 -0.9388  0.3429  2.1471
 8785TIP3   OH247845   0.156   1.482   4.745  0.4151  0.1743  0.3223
 8785TIP3    H147846   0.200   1.457   4.664  1.7255  2.6295  0.1917
 8785TIP3    H247847   0.086   1.417   4.756  1.7252 -1.6442 -1.4544
 8786TIP3   OH247848   3.116   2.848  15.064 -0.6459 -0.0810 -0.1839
 8786TIP3    H147849   3.084   2.764  15.097  0.5425 -0.5138 -0.0829
 8786TIP3    H247850   3.131   2.900  15.143 -0.4881 -0.1206 -0.1862
 8787TIP3   OH247851   0.203   2.788   4.297 -0.3059  0.1473 -0.4270
 8787TIP3    H147852   0.185   2.721   4.231  0.9524  0.7334 -1.4074
 8787TIP3    H247853   0.141   2.770   4.367  0.2101 -2.2346 -0.5040
 8788TIP3   OH247854   6.053   4.368  10.913 -0.1508  0.5270  0.5009
 8788TIP3    H147855   5.993   4.318  10.967 -1.3880 -0.3967 -1.6123
 8788TIP3    H247856   6.108   4.301  10.871  1.2433  1.2635  1.0725
 8789TIP3   OH247857   0.392   2.032   0.124 -0.1881  0.1630  0.1078
 8789TIP3    H147858   0.351   2.117   0.143  1.1842  0.9577 -0.3340
 8789TIP3    H247859   0.469   2.029   0.180 -0.0053 -0.6226 -0.1675
 8790TIP3   OH247860   2.062   1.886  16.240 -0.1729  0.1489  0.3332
 8790TIP3    H147861   2.154   1.900  16.215 -0.5674 -1.1920 -2.2067
 8790TIP3    H247862   2.018   1.968  16.218  0.2327  0.4049  0.4745
 8791TIP3   OH247863   6.459   6.824   2.396 -0.4623 -0.7142  0.1781
 8791TIP3    H147864   6.431   6.773   2.472 -1.4465 -1.5386 -0.7141
 8791TIP3    H247865   6.425   6.912   2.413  1.3831 -0.2331  1.8039
 8792TIP3   OH247866   6.239   1.167   0.146  0.0369 -0.0953  0.1777
 8792TIP3    H147867   6.279   1.173   0.060 -1.1232 -1.8527 -0.5478
 8792TIP3    H247868   6.147   1.192   0.132 -0.0984 -0.1175  0.9504
 8793TIP3   OH247869   2.542   0.411  14.841  0.4872 -0.1513  0.2060
 8793TIP3    H147870   2.510   0.478  14.780  0.9705  0.7481  0.9254
 8793TIP3    H247871   2.476   0.409  14.911 -0.7720 -2.1163 -0.9328
 8794TIP3   OH247872   5.562   3.630  12.601  0.3497  0.1406 -0.3898
 8794TIP3    H147873   5.598   3.609  12.687 -0.5158  0.2188  0.0055
 8794TIP3    H247874   5.598   3.563  12.543  0.0146 -0.6246  0.2662
 8795TIP3   OH247875   0.252   5.612   4.639  0.2405 -0.4822  0.0230
 8795TIP3    H147876   0.336   5.646   4.671  0.2755 -0.5507  0.0046
 8795TIP3    H247877   0.187   5.675   4.669  0.5037  0.6591 -1.6694
 8796TIP3   OH247878   0.192   1.209  14.501  0.4239  0.2163  0.1952
 8796TIP3    H147879   0.175   1.138  14.438 -1.8515  1.6553 -0.9392
 8796TIP3    H247880   0.105   1.236  14.530  1.2263  2.4554  0.6848
 8797TIP3   OH247881   2.814   1.489   3.563  0.1112 -0.1916  0.1200
 8797TIP3    H147882   2.882   1.422   3.558  0.3026 -0.2275  2.2026
 8797TIP3    H247883   2.756   1.459   3.633 -1.6826  0.2056 -1.1316
 8798TIP3   OH247884   2.518   2.004  10.506  0.2964 -0.2465 -0.2321
 8798TIP3    H147885   2.430   1.973  10.527  1.7605 -3.2199  2.2634
 8798TIP3    H247886   2.544   2.057  10.581  1.3629 -1.0887  0.0064
 8799TIP3   OH247887   1.805   6.821  16.417 -0.3637 -0.3259  0.1369
 8799TIP3    H147888   1.748   6.884  16.372 -1.5636 -1.0765  0.5528
 8799TIP3    H247889   1.894   6.852  16.399 -0.8818  0.6838 -0.8274
 8800TIP3   OH247890   0.554   6.360   5.640 -0.3857 -0.5087  0.2883
 8800TIP3    H147891   0.518   6.446   5.662 -2.2441 -0.2089 -3.1989
 8800TIP3    H247892   0.485   6.298   5.662  0.4782 -1.0295  1.6544
 8801TIP3   OH247893   6.001   1.891  16.839  0.0258  0.4307  0.2053
 8801TIP3    H147894   6.086   1.936  16.838 -0.7184  1.9440  1.0520
 8801TIP3    H247895   6.009   1.825  16.908  0.7559  0.0200 -0.2582
 8802TIP3   OH247896   1.268   0.399   5.223 -0.3526 -0.4867  0.5438
 8802TIP3    H147897   1.183   0.355   5.219 -0.9925  0.7526 -0.9242
 8802TIP3    H247898   1.326   0.346   5.169 -0.5576 -0.6398  0.4748
 8803TIP3   OH247899   3.216   1.675  16.874 -0.3537  0.2016  0.6399
 8803TIP3    H147900   3.125   1.646  16.865  0.0909 -1.5045  1.1088
 8803TIP3    H247901   3.250   1.678  16.785 -1.0878  1.7363  0.3787
 8804TIP3   OH247902   0.604   4.852   3.468  0.0864 -0.4145 -0.1684
 8804TIP3    H147903   0.531   4.866   3.408  0.8450  1.8993 -0.6273
 8804TIP3    H247904   0.675   4.907   3.434  1.5305 -1.3724  1.1599
 8805TIP3   OH247905   6.732   4.886  17.011  0.4646  0.4543  0.4303
 8805TIP3    H147906   6.727   4.958  17.074  0.5596 -0.2300  1.2442
 8805TIP3    H247907   6.641   4.865  16.992  0.4166  0.2163  0.8863
 8806TIP3   OH247908   3.520   4.795   4.467 -0.2532  0.0500 -0.5110
 8806TIP3    H147909   3.595   4.848   4.495 -0.0332  0.3308 -1.5994
 8806TIP3    H247910   3.538   4.773   4.376 -0.7917 -1.1308 -0.3537
 8807TIP3   OH247911   4.364   4.227  11.891 -0.2267 -0.0257  0.4046
 8807TIP3    H147912   4.353   4.147  11.840 -2.9585 -0.2383  1.1676
 8807TIP3    H247913   4.459   4.236  11.902  0.2188 -2.3478 -0.9290
 8808TIP3   OH247914   6.140   6.422  15.959  0.1904 -0.2477 -0.3217
 8808TIP3    H147915   6.151   6.462  15.873 -2.3771  1.0874 -0.1274
 8808TIP3    H247916   6.220   6.371  15.973  3.1808  3.7400 -1.1466
 8809TIP3   OH247917   1.532   1.055  14.726 -0.2670  0.5330 -0.2951
 8809TIP3    H147918   1.533   0.963  14.753  1.9804  1.2760  2.5770
 8809TIP3    H247919   1.461   1.094  14.777 -0.6311  0.6121 -0.8468
 8810TIP3   OH247920   6.049   0.719   5.842  0.2485 -0.2974 -0.3738
 8810TIP3    H147921   6.105   0.694   5.769  0.1233  0.7186 -0.8419
 8810TIP3    H247922   6.086   0.802   5.873 -1.1906  0.5891 -0.9354
 8811TIP3   OH247923   6.431   2.255  10.244  0.1532 -0.3116 -0.4331
 8811TIP3    H147924   6.392   2.305  10.173 -0.4083 -1.1451 -0.7251
 8811TIP3    H247925   6.500   2.311  10.278  0.2504  0.2098 -1.4604
 8812TIP3   OH247926   5.561   5.702   1.136  0.1404 -0.2510  0.0004
 8812TIP3    H147927   5.598   5.777   1.089  1.0657 -0.1813  0.8069
 8812TIP3    H247928   5.466   5.716   1.131  0.2486  0.2582 -0.9926
 8813TIP3   OH247929   3.143   3.990  11.931 -0.4170 -0.4409 -0.5057
 8813TIP3    H147930   3.166   3.911  11.980  2.2120  0.9996  0.8182
 8813TIP3    H247931   3.125   4.055  11.998  1.3343  1.0700 -1.4327
 8814TIP3   OH247932   6.418   2.924  12.835  0.0661 -0.2233 -0.3992
 8814TIP3    H147933   6.444   2.878  12.755  1.7597  2.6485 -1.6773
 8814TIP3    H247934   6.325   2.944  12.823  0.3246  0.2781 -1.7775
 8815TIP3   OH247935   4.538   0.265   0.636 -0.5134 -0.2430 -0.1538
 8815TIP3    H147936   4.602   0.224   0.577 -0.0808  0.2600 -0.0454
 8815TIP3    H247937   4.493   0.192   0.677  0.3006 -0.6164  0.0994
 8816TIP3   OH247938   4.778   4.032   2.620  0.6973 -0.0283 -0.0034
 8816TIP3    H147939   4.705   4.007   2.563 -0.5744  1.2857  0.9706
 8816TIP3    H247940   4.827   4.096   2.569  0.2295  0.2753 -0.0830
 8817TIP3   OH247941   6.633   4.575   1.883  0.1195  0.0541  0.6474
 8817TIP3    H147942   6.679   4.561   1.800  1.8288  2.3916  1.0961
 8817TIP3    H247943   6.620   4.670   1.887 -0.7561 -0.1175  2.6485
 8818TIP3   OH247944   0.632   3.250   0.462 -0.2896  0.1340  0.4369
 8818TIP3    H147945   0.549   3.296   0.475 -0.7309 -0.5328  0.0226
 8818TIP3    H247946   0.607   3.161   0.438  0.5402  0.1167 -0.4369
 8819TIP3   OH247947   4.510   5.647   0.565 -0.2342  0.2442 -0.0955
 8819TIP3    H147948   4.575   5.691   0.621  1.5794 -1.7221 -0.5387
 8819TIP3    H247949   4.562   5.594   0.505 -2.2471 -0.3000 -1.4654
 8820TIP3   OH247950   2.761   4.152  17.032  0.2866  0.1474  0.0731
 8820TIP3    H147951   2.789   4.095  16.961 -0.6691  0.9829 -1.0314
 8820TIP3    H247952   2.774   4.101  17.112  1.0695 -0.9433 -0.7333
 8821TIP3   OH247953   4.640   4.823   4.365  0.3378  0.0018  0.2340
 8821TIP3    H147954   4.671   4.914   4.365  1.7496 -0.4485 -1.1315
 8821TIP3    H247955   4.603   4.810   4.278 -0.0780 -0.6699  0.5040
 8822TIP3   OH247956   3.811   6.564  12.639  0.7441 -0.3418 -0.0022
 8822TIP3    H147957   3.892   6.539  12.684  1.7935  0.4492 -1.3686
 8822TIP3    H247958   3.809   6.659  12.646 -0.5072 -0.3995  0.6862
 8823TIP3   OH247959   2.696   4.498   3.014 -0.7868 -0.2023  0.2609
 8823TIP3    H147960   2.698   4.406   2.986  1.8334 -0.1160 -0.0192
 8823TIP3    H247961   2.706   4.494   3.109 -1.3912 -0.2145  0.3278
 8824TIP3   OH247962   2.038   0.401  15.728  0.0001  0.3665 -0.1203
 8824TIP3    H147963   2.121   0.354  15.718  0.0924  0.6118 -0.5135
 8824TIP3    H247964   1.971   0.335  15.711  0.1214  0.2592 -0.1818
 8825TIP3   OH247965   2.022   2.776  16.166  0.2772 -0.0048  0.0947
 8825TIP3    H147966   1.940   2.768  16.215  1.6050 -1.8258  2.2167
 8825TIP3    H247967   2.065   2.692  16.177  3.4254  1.5620  0.9908
 8826TIP3   OH247968   6.743   3.954  14.033  0.1576  0.4603  0.6652
 8826TIP3    H147969   6.675   4.000  13.984 -2.0607 -1.0378  2.1536
 8826TIP3    H247970   6.761   3.876  13.982 -1.5466 -0.6751  1.6782
 8827TIP3   OH247971   1.861   2.138   0.180 -0.2320  0.5371  0.1288
 8827TIP3    H147972   1.842   2.053   0.220  1.0435  0.5520  0.8357
 8827TIP3    H247973   1.843   2.126   0.087  0.1105 -0.5750  0.1904
 8828TIP3   OH247974   5.058   4.372   4.768 -0.1194 -0.3022 -0.7252
 8828TIP3    H147975   5.064   4.389   4.674 -1.5890 -1.4828 -1.0825
 8828TIP3    H247976   5.136   4.321   4.788 -0.0806 -0.5421 -1.4434
 8829TIP3   OH247977   1.899   4.878  14.555 -0.0746 -0.3722  0.0499
 8829TIP3    H147978   1.833   4.931  14.599 -0.3991 -0.1413 -0.7064
 8829TIP3    H247979   1.867   4.788  14.565 -0.8121 -0.2238 -0.7826
 8830TIP3   OH247980   1.589   1.245   3.415  0.4698  0.7243  0.1299
 8830TIP3    H147981   1.553   1.330   3.388  0.0226  0.2301 -0.8954
 8830TIP3    H247982   1.664   1.231   3.357 -0.1931 -0.1221 -0.5512
 8831TIP3   OH247983   2.693   1.675  15.256 -0.2197  0.1318  0.3964
 8831TIP3    H147984   2.720   1.750  15.204 -0.8249 -0.0741 -0.2310
 8831TIP3    H247985   2.604   1.655  15.225 -0.6006  0.0115  1.5053
 8832TIP3   OH247986   1.412   6.009   2.681  0.2897  0.1186  0.2227
 8832TIP3    H147987   1.483   6.012   2.745 -0.7044  1.0012  1.3302
 8832TIP3    H247988   1.431   6.081   2.621  0.6039  0.0207  0.2034
 8833TIP3   OH247989   5.848   5.991  16.985 -0.0040 -0.9135  0.3820
 8833TIP3    H147990   5.774   5.995  16.925 -0.6923 -1.0157  1.1950
 8833TIP3    H247991   5.819   5.931  17.055  0.4416 -0.1653  1.2331
 8834TIP3   OH247992   5.509   1.935  14.952  0.4225  0.1130  0.2064
 8834TIP3    H147993   5.449   1.870  14.989 -0.1155 -0.0506 -0.8987
 8834TIP3    H247994   5.595   1.912  14.988  0.5998 -2.3656 -1.5098
 8835TIP3   OH247995   6.162   0.378   5.082 -0.0445 -0.0987 -0.0554
 8835TIP3    H147996   6.151   0.295   5.130 -1.1753 -1.1438 -1.9846
 8835TIP3    H247997   6.256   0.388   5.073  0.1838 -0.2025  1.7591
 8836TIP3   OH247998   4.671   6.797   2.559  0.5407 -0.4502 -0.1553
 8836TIP3    H147999   4.658   6.795   2.464  1.6800 -1.3666 -0.3119
 8836TIP3    H248000   4.761   6.767   2.572  0.8701  0.9673  1.1483
 8837TIP3   OH248001   4.329   3.668   5.289 -0.5016  0.0471 -0.5006
 8837TIP3    H148002   4.381   3.616   5.350 -0.9454  2.1110  1.8049
 8837TIP3    H248003   4.239   3.644   5.308 -0.6631  0.9962  0.0066
 8838TIP3   OH248004   6.138   3.829  13.219  0.0765  0.2487  0.2907
 8838TIP3    H148005   6.123   3.923  13.209  0.0275  0.5206  2.4247
 8838TIP3    H248006   6.091   3.789  13.146 -0.0799  1.8540 -0.5351
 8839TIP3   OH248007   3.191   1.480  11.421 -0.6356 -0.6669 -0.4218
 8839TIP3    H148008   3.157   1.503  11.335  2.0677  2.5292 -0.8074
 8839TIP3    H248009   3.128   1.517  11.483 -1.3531 -0.8636 -1.0250
 8840TIP3   OH248010   0.226   4.329   5.241 -0.3144  0.1923  0.5740
 8840TIP3    H148011   0.142   4.374   5.229  0.3052  0.8880 -1.6923
 8840TIP3    H248012   0.206   4.237   5.226 -1.0019  0.1009  1.9676
 8841TIP3   OH248013   0.217   5.459  17.027  0.5597  0.3143 -0.7519
 8841TIP3    H148014   0.180   5.531  16.976 -0.4071  0.1537 -0.2982
 8841TIP3    H248015   0.145   5.430  17.084  0.9190 -0.9921 -0.9156
 8842TIP3   OH248016   0.328   4.184  13.217 -0.0697  0.4683  0.1812
 8842TIP3    H148017   0.270   4.261  13.220  0.2787  0.8051 -1.1455
 8842TIP3    H248018   0.355   4.178  13.125 -0.0129 -1.1961  0.2754
 8843TIP3   OH248019   0.615   4.714   3.712  0.6220  0.4477  0.6171
 8843TIP3    H148020   0.609   4.754   3.625 -0.0327  0.1086  0.4964
 8843TIP3    H248021   0.689   4.654   3.706  0.2254 -0.0051  0.1043
 8844TIP3   OH248022   6.571   0.147  10.779 -0.3068 -0.3761  0.4495
 8844TIP3    H148023   6.515   0.133  10.703  0.3919  0.3182 -0.2206
 8844TIP3    H248024   6.660   0.146  10.743 -0.0159  1.1786  1.0331
 8845TIP3   OH248025   4.782   6.430  14.426  0.0652  0.1362 -0.4412
 8845TIP3    H148026   4.750   6.450  14.514  2.7997 -0.5668  0.8079
 8845TIP3    H248027   4.757   6.339  14.412 -0.5443  0.3057 -0.5112
 8846TIP3   OH248028   0.301   2.836  11.893 -0.1004 -0.2719 -0.1926
 8846TIP3    H148029   0.291   2.768  11.827 -0.6171 -0.2922 -0.1012
 8846TIP3    H248030   0.269   2.796  11.974  1.6301 -0.6464  0.3413
 8847TIP3   OH248031   4.998   1.956  14.069 -0.3753 -0.5635 -0.4418
 8847TIP3    H148032   4.970   1.980  14.157 -0.4398 -0.5534 -0.4651
 8847TIP3    H248033   4.967   2.027  14.014 -0.0802 -0.4274 -0.4311
 8848TIP3   OH248034   1.871   6.480   4.279 -0.1134 -0.0454  0.2930
 8848TIP3    H148035   1.837   6.552   4.226 -0.8233 -0.6677 -0.1303
 8848TIP3    H248036   1.876   6.515   4.368 -0.3722  0.5488  0.0814
 8849TIP3   OH248037   4.825   2.434  12.231 -0.3833  0.1252 -0.1923
 8849TIP3    H148038   4.786   2.347  12.235  1.7223 -0.8593  0.1364
 8849TIP3    H248039   4.868   2.437  12.145  0.2703  0.5099  0.1417
 8850TIP3   OH248040   2.473   2.672  12.310 -0.1617  0.0463 -0.1399
 8850TIP3    H148041   2.515   2.758  12.309  0.5978 -0.3167 -0.3711
 8850TIP3    H248042   2.481   2.642  12.401 -1.0597  0.5219  0.0951
 8851TIP3   OH248043   6.572   6.154   1.603 -0.4166 -0.0959  0.1452
 8851TIP3    H148044   6.651   6.207   1.594  1.0917 -1.9242  1.7910
 8851TIP3    H248045   6.548   6.163   1.696  0.2563 -2.6696  0.6385
 8852TIP3   OH248046   3.524   0.175  12.838  0.4509 -0.3108 -0.4641
 8852TIP3    H148047   3.442   0.186  12.790 -1.0115 -1.6425  1.5441
 8852TIP3    H248048   3.536   0.258  12.884  1.0324  0.4070 -1.8762
 8853TIP3   OH248049   5.729   5.498  17.054  0.3915 -0.5351 -0.2798
 8853TIP3    H148050   5.779   5.580  17.055 -0.2506 -0.0066 -3.0138
 8853TIP3    H248051   5.721   5.476  16.961 -0.9001 -2.8293  0.2972
 8854TIP3   OH248052   6.004   4.737   1.142 -0.6977  0.6874  0.6755
 8854TIP3    H148053   5.911   4.759   1.147 -0.3836  2.4721 -0.5142
 8854TIP3    H248054   6.036   4.783   1.065  0.6936 -1.8656 -0.4063
 8855TIP3   OH248055   1.942   2.938   2.014 -0.1312 -0.0669  0.2161
 8855TIP3    H148056   1.856   2.905   2.039 -1.3029  0.8474 -2.2986
 8855TIP3    H248057   1.977   2.872   1.954 -0.0846  0.6337 -0.5370
 8856TIP3   OH248058   1.539   5.050  16.947 -0.2254  0.6274  0.5488
 8856TIP3    H148059   1.626   5.012  16.959  0.2320  0.1063 -3.1866
 8856TIP3    H248060   1.479   4.984  16.980  0.7271  0.4834  2.0984
 8857TIP3   OH248061   4.926   6.477   1.611  0.4583 -0.1422 -0.2103
 8857TIP3    H148062   5.012   6.517   1.615 -0.0556  0.9753  0.1038
 8857TIP3    H248063   4.902   6.460   1.702  0.3240 -0.3867 -0.2896
 8858TIP3   OH248064   2.631   2.423   2.988 -0.2482  0.3009 -0.1387
 8858TIP3    H148065   2.648   2.517   2.978 -3.1633  0.7527 -1.7698
 8858TIP3    H248066   2.656   2.385   2.904 -4.9617  0.7872 -2.0964
 8859TIP3   OH248067   3.230   5.018   1.448 -0.1340 -0.6832 -0.2940
 8859TIP3    H148068   3.199   4.927   1.450  0.4516 -0.9637 -2.1582
 8859TIP3    H248069   3.243   5.037   1.355 -0.3976  1.3814  0.0496
 8860TIP3   OH248070   2.444   4.093   5.296 -0.2247  0.3067 -0.4496
 8860TIP3    H148071   2.479   4.010   5.264 -0.8851  0.0729 -0.5715
 8860TIP3    H248072   2.361   4.103   5.251 -1.8434 -0.6606  2.1023
 8861TIP3   OH248073   4.011   1.424  15.899  0.0730 -0.2487 -0.0264
 8861TIP3    H148074   3.981   1.463  15.981 -0.2820 -1.0149  0.2176
 8861TIP3    H248075   3.930   1.400  15.853  0.2813 -1.2814  0.1222
 8862TIP3   OH248076   3.850   6.604   3.985  0.3213  0.5802  0.1968
 8862TIP3    H148077   3.818   6.583   4.073  2.4620 -1.6926  0.5592
 8862TIP3    H248078   3.873   6.696   3.989 -3.1455  1.5959  0.7582
 8863TIP3   OH248079   2.648   0.051  12.421  0.5952  0.1824 -0.5560
 8863TIP3    H148080   2.599  -0.006  12.361 -1.3367  1.6735 -0.4911
 8863TIP3    H248081   2.658   0.133  12.374  0.4694  0.8504  0.5478
 8864TIP3   OH248082   5.662   0.355  12.780 -0.0754  0.3282  0.0384
 8864TIP3    H148083   5.701   0.412  12.846  3.2984 -0.3048 -1.2162
 8864TIP3    H248084   5.635   0.277  12.828  1.1714  0.3956  0.8948
 8865TIP3   OH248085   0.817   5.399  14.538  0.2688  0.0016 -0.3035
 8865TIP3    H148086   0.852   5.472  14.487 -0.0945  0.9451  0.7442
 8865TIP3    H248087   0.837   5.321  14.486 -2.0856  1.0344 -3.0586
 8866TIP3   OH248088   3.572   4.052  13.170  0.1917 -0.3364 -0.4939
 8866TIP3    H148089   3.640   4.039  13.103  0.6978 -0.1217 -0.0304
 8866TIP3    H248090   3.577   3.974  13.225 -0.0929 -0.4241 -0.5908
 8867TIP3   OH248091   1.129   0.908  11.727  0.4585 -0.0001 -0.9114
 8867TIP3    H148092   1.157   0.943  11.812 -1.5884 -0.0368 -0.1552
 8867TIP3    H248093   1.053   0.961  11.703  0.4563 -0.5851 -2.2985
 8868TIP3   OH248094   5.260   1.040   2.245  0.2916  0.3286  0.0592
 8868TIP3    H148095   5.347   1.003   2.229  0.4823  0.8392 -0.1166
 8868TIP3    H248096   5.199   0.968   2.226  0.6417  0.1801 -0.5186
 8869TIP3   OH248097   5.364   6.407   4.135 -0.1995  0.2800 -0.4606
 8869TIP3    H148098   5.345   6.320   4.099 -0.7701  0.0913  0.2750
 8869TIP3    H248099   5.449   6.430   4.099 -0.2756 -0.3636 -1.0737
 8870TIP3   OH248100   1.387   3.132  13.419  0.1147  0.1557  0.0672
 8870TIP3    H148101   1.450   3.096  13.482  0.0666  0.2483  0.1680
 8870TIP3    H248102   1.404   3.083  13.338 -0.4564 -0.6314  0.4054
 8871TIP3   OH248103   5.390   4.290   4.513  0.3196 -0.2236  0.0578
 8871TIP3    H148104   5.377   4.197   4.532 -1.9558 -0.1202 -0.6776
 8871TIP3    H248105   5.468   4.314   4.562 -0.2211 -2.0289  1.9417
 8872TIP3   OH248106   1.205   6.018  13.141 -0.7033  0.0589 -0.1991
 8872TIP3    H148107   1.227   5.958  13.070 -0.7634 -1.1311  0.7532
 8872TIP3    H248108   1.168   5.962  13.209 -0.7108  1.1768  0.7478
 8873TIP3   OH248109   5.261   5.057   6.776 -0.0690 -0.1777 -0.3133
 8873TIP3    H148110   5.180   5.013   6.752  0.2356 -0.0910 -1.5816
 8873TIP3    H248111   5.301   5.082   6.692  2.8689 -3.0924  0.0236
 8874TIP3   OH248112   0.468   3.214   2.157  0.1781  0.4635  0.6522
 8874TIP3    H148113   0.518   3.139   2.125 -0.1442 -0.1846  1.6083
 8874TIP3    H248114   0.406   3.176   2.220 -0.3214  1.4721  0.7908
 8875TIP3   OH248115   3.826   6.001   3.827 -0.3520 -0.0626  0.4740
 8875TIP3    H148116   3.818   6.090   3.793  0.2256  0.4262  1.5583
 8875TIP3    H248117   3.736   5.975   3.846 -0.6568 -0.2450 -1.1267
 8876TIP3   OH248118   4.043   2.643  15.650  0.1004  0.4521 -0.3873
 8876TIP3    H148119   3.956   2.647  15.610 -0.7507 -1.5061  1.0761
 8876TIP3    H248120   4.039   2.703  15.724 -0.7931 -1.1039  0.9110
 8877TIP3   OH248121   2.674   3.227   3.095  0.4800 -0.0081  0.0796
 8877TIP3    H148122   2.714   3.182   3.020  0.3680  0.4354 -0.2480
 8877TIP3    H248123   2.741   3.288   3.125  1.1641 -1.3192  1.3876
 8878TIP3   OH248124   2.175   3.538   1.964 -0.1763 -0.3091 -0.3599
 8878TIP3    H148125   2.148   3.615   1.914 -0.4198 -0.3582 -0.3007
 8878TIP3    H248126   2.206   3.572   2.048 -1.0803 -0.3488 -0.0056
 8879TIP3   OH248127   2.672   5.652   5.187  0.6269  0.4637  0.6191
 8879TIP3    H148128   2.594   5.630   5.135  1.2477 -2.3468  0.7087
 8879TIP3    H248129   2.734   5.687   5.124  0.3147 -0.0800 -0.0058
 8880TIP3   OH248130   6.496   3.555   4.019  0.1437 -0.6528 -0.4046
 8880TIP3    H148131   6.493   3.466   4.056 -0.9861 -0.4638 -0.0069
 8880TIP3    H248132   6.587   3.581   4.028  0.3133 -1.4331  0.3077
 8881TIP3   OH248133   2.573   2.053   3.188  0.4063  0.1146  0.6116
 8881TIP3    H148134   2.490   2.012   3.213 -0.4208  1.3906  0.0292
 8881TIP3    H248135   2.562   2.145   3.210 -0.5197  1.4743 -4.4153
 8882TIP3   OH248136   4.646   6.523  15.924  0.2770  0.2014 -0.2097
 8882TIP3    H148137   4.708   6.489  15.988 -0.6906 -0.6971  0.2739
 8882TIP3    H248138   4.664   6.474  15.844  1.1928  1.0159 -0.5175
 8883TIP3   OH248139   3.672   2.589   0.432  0.4759  0.0165  0.0632
 8883TIP3    H148140   3.689   2.553   0.520 -0.4261  1.7345  1.0022
 8883TIP3    H248141   3.588   2.635   0.441  1.0547  1.4345 -1.2924
 8884TIP3   OH248142   5.423   2.621   4.284  0.5437  0.0613  0.6920
 8884TIP3    H148143   5.387   2.540   4.249  0.1134  0.9948 -1.2109
 8884TIP3    H248144   5.512   2.599   4.309  0.9153 -0.7113 -1.1335
 8885TIP3   OH248145   3.607   6.599  16.192 -0.3054 -0.5258  0.0872
 8885TIP3    H148146   3.684   6.656  16.189  0.9321 -2.0604  1.0402
 8885TIP3    H248147   3.565   6.612  16.108 -1.0367  2.9821  0.8214
 8886TIP3   OH248148   3.583   6.545   4.724 -0.2580 -0.6349 -0.0240
 8886TIP3    H148149   3.679   6.549   4.728 -0.3100 -0.4267  1.6271
 8886TIP3    H248150   3.558   6.486   4.794 -1.3914  0.2057  0.3226
 8887TIP3   OH248151   2.229   3.750   0.048 -0.4930 -0.7333 -0.3009
 8887TIP3    H148152   2.306   3.696   0.066  0.2662  0.7900  1.3149
 8887TIP3    H248153   2.241   3.779  -0.043  1.3073  0.1234  0.1655
 8888TIP3   OH248154   1.549   3.026  14.457  0.5843 -0.2825 -0.2510
 8888TIP3    H148155   1.491   3.014  14.532  1.7906  0.3518  0.8202
 8888TIP3    H248156   1.513   2.968  14.389 -0.4506 -0.9748  0.8515
 8889TIP3   OH248157   3.419   2.364   5.531 -0.1384 -0.5529  0.3122
 8889TIP3    H148158   3.478   2.293   5.553  0.4892 -0.2508 -0.3395
 8889TIP3    H248159   3.384   2.394   5.615 -1.6875 -2.6682  0.5106
 8890TIP3   OH248160   5.948   2.429   2.329  0.0839  0.1966  0.1841
 8890TIP3    H148161   5.965   2.423   2.423  1.9135 -0.6623 -0.1602
 8890TIP3    H248162   5.856   2.402   2.320  0.5609 -2.1600  1.5160
 8891TIP3   OH248163   5.742   1.358   2.818  0.3798  0.0806 -0.5638
 8891TIP3    H148164   5.735   1.280   2.873 -1.0608  0.5891  0.0048
 8891TIP3    H248165   5.786   1.423   2.873  1.4438 -0.2475 -0.9871
 8892TIP3   OH248166   6.187   6.585   5.218 -0.3177 -0.4405  0.0893
 8892TIP3    H148167   6.268   6.543   5.189 -0.8422 -0.1287 -1.9699
 8892TIP3    H248168   6.214   6.674   5.243  0.3567 -1.1218  1.8941
 8893TIP3   OH248169   6.720   5.304   6.116 -0.0131 -0.2506 -0.4993
 8893TIP3    H148170   6.761   5.286   6.201 -1.1174  1.4406  0.4620
 8893TIP3    H248171   6.789   5.349   6.067  0.5093 -0.8709 -0.3484
 8894TIP3   OH248172   3.496   6.352  13.278  0.3098  0.1116  0.0885
 8894TIP3    H148173   3.582   6.312  13.263  0.2153  0.3132 -1.1482
 8894TIP3    H248174   3.507   6.443  13.249 -0.1203  0.3343  0.6185
 8895TIP3   OH248175   4.787   3.841   3.037 -0.3033 -0.0585  0.4271
 8895TIP3    H148176   4.836   3.891   2.972 -0.9141 -0.1151 -0.0847
 8895TIP3    H248177   4.727   3.786   2.986 -1.9010  1.0259  1.0397
 8896TIP3   OH248178   6.006   5.704  12.980  0.0351 -0.0773 -0.2923
 8896TIP3    H148179   5.937   5.738  12.922 -0.6752  1.7335  1.4777
 8896TIP3    H248180   5.968   5.626  13.019  0.1798 -0.8052 -1.5584
 8897TIP3   OH248181   4.714   2.565   4.067  0.0745  0.3033 -0.1230
 8897TIP3    H148182   4.729   2.585   4.159 -1.1592 -1.1336  0.4295
 8897TIP3    H248183   4.736   2.472   4.059  2.2200  0.8522 -1.7911
 8898TIP3   OH248184   3.493   4.967   2.920 -0.5205 -0.7118  0.3268
 8898TIP3    H148185   3.497   4.909   2.996  0.2322  0.7589  1.4628
 8898TIP3    H248186   3.575   4.952   2.873 -0.7334 -1.2069  0.1049
 8899TIP3   OH248187   6.561   2.307  11.606 -0.0406 -0.3407  0.1530
 8899TIP3    H148188   6.597   2.395  11.597  0.9885 -0.6344  1.1998
 8899TIP3    H248189   6.632   2.256  11.645 -0.8628 -1.4636  0.2191
 8900TIP3   OH248190   1.950   1.366   4.371  0.3000 -0.1072  0.2583
 8900TIP3    H148191   1.903   1.417   4.305  0.8186  0.9709  0.7056
 8900TIP3    H248192   1.882   1.313   4.412 -0.6407  1.6721  1.1277
 8901TIP3   OH248193   0.426   3.670  12.035  0.8157 -0.8404 -0.3296
 8901TIP3    H148194   0.397   3.581  12.054  0.3397 -0.5242  0.4547
 8901TIP3    H248195   0.522   3.663  12.030  1.2478 -0.7056  4.0605
 8902TIP3   OH248196   0.044   2.873   1.541  0.3042  0.6491 -0.2226
 8902TIP3    H148197   0.017   2.911   1.458 -1.3295  0.8256  0.3588
 8902TIP3    H248198   0.001   2.927   1.608 -1.0032 -1.3616  0.6547
 8903TIP3   OH248199   3.240   2.389   2.526  0.3468 -0.4460  0.0606
 8903TIP3    H148200   3.255   2.295   2.531  3.2319 -0.0530  0.5428
 8903TIP3    H248201   3.320   2.428   2.562 -1.0441  2.1942  0.5306
 8904TIP3   OH248202   2.026   4.611  15.364  0.2398  0.3651  0.2586
 8904TIP3    H148203   2.035   4.677  15.433 -2.2882  0.1556  0.8748
 8904TIP3    H248204   2.066   4.532  15.401 -0.0694  0.5621  1.0316
 8905TIP3   OH248205   1.398   6.235   0.040  0.0580  0.2401 -0.8826
 8905TIP3    H148206   1.313   6.193   0.028  0.6509 -1.0453 -0.7539
 8905TIP3    H248207   1.461   6.170   0.009  1.0875  0.5342  0.5080
 8906TIP3   OH248208   1.962   2.730  13.004  0.2710  0.1048 -0.4062
 8906TIP3    H148209   2.001   2.815  13.024 -2.6014  1.7309 -1.1830
 8906TIP3    H248210   1.995   2.708  12.917  0.5589  0.6927 -0.4503
 8907TIP3   OH248211   4.990   4.058   4.129 -0.1942  0.3008 -0.2111
 8907TIP3    H148212   4.990   4.063   4.033 -0.1830 -3.0320 -0.5144
 8907TIP3    H248213   4.899   4.036   4.151 -0.1773  0.9694  0.5402
 8908TIP3   OH248214   0.728   4.822  10.971  0.4765  0.4079 -0.3971
 8908TIP3    H148215   0.700   4.736  10.939  1.8966  0.1320 -0.9750
 8908TIP3    H248216   0.649   4.860  11.009 -0.9565  0.1340 -2.8987
 8909TIP3   OH248217   5.392   5.048   3.563 -0.2493 -0.2496  0.2209
 8909TIP3    H148218   5.407   4.995   3.485 -0.8119 -0.4164  0.2175
 8909TIP3    H248219   5.477   5.054   3.606  0.3217  0.8302 -1.0047
 8910TIP3   OH248220   0.130   6.293  11.895 -0.2432 -0.2189  0.5067
 8910TIP3    H148221   0.090   6.265  11.977 -0.4591  0.0368  0.4869
 8910TIP3    H248222   0.172   6.214  11.861 -0.0991 -0.3115  0.8949
 8911TIP3   OH248223   3.985   5.605   4.033 -0.3703  0.0544 -0.3188
 8911TIP3    H148224   4.014   5.693   4.010 -0.3543 -0.0796 -0.8182
 8911TIP3    H248225   3.890   5.611   4.038 -0.5804 -0.4157 -2.6740
 8912TIP3   OH248226   1.110   3.059   1.267 -0.3895 -0.3078  0.0336
 8912TIP3    H148227   1.024   3.097   1.250 -0.8015 -0.8980  0.7406
 8912TIP3    H248228   1.102   3.018   1.353  0.2009 -1.5011 -0.4409
 8913TIP3   OH248229   2.644   0.103   2.009 -0.0495 -0.3001 -0.0865
 8913TIP3    H148230   2.637   0.063   1.922 -0.8223  1.5467 -0.9355
 8913TIP3    H248231   2.563   0.153   2.018 -0.0765 -0.6266  1.8108
 8914TIP3   OH248232   2.012   5.427  13.154  0.2896  0.8114 -0.4967
 8914TIP3    H148233   2.025   5.489  13.082 -0.6290  1.1224 -0.4178
 8914TIP3    H248234   1.924   5.393  13.139  0.3225  0.4365  0.1515
 8915TIP3   OH248235   2.721   5.365   1.715 -0.1386 -0.4692  0.4448
 8915TIP3    H148236   2.806   5.404   1.696 -0.6968  0.7104  0.3010
 8915TIP3    H248237   2.677   5.430   1.769 -1.0001 -1.0210  0.4184
 8916TIP3   OH248238   0.716   2.284   5.420 -0.2542 -0.5980 -1.0256
 8916TIP3    H148239   0.628   2.320   5.407 -0.9169 -1.7596  0.0890
 8916TIP3    H248240   0.759   2.347   5.478 -1.8133 -2.0709  1.9168
 8917TIP3   OH248241   3.568   3.602  12.192  0.4313 -0.0911  0.0000
 8917TIP3    H148242   3.649   3.574  12.234  0.9585  0.5561 -0.5624
 8917TIP3    H248243   3.554   3.539  12.121 -0.6031 -1.3457  1.2547
 8918TIP3   OH248244   2.561   6.302  12.076 -0.0518  0.1988 -0.3276
 8918TIP3    H148245   2.494   6.286  12.143 -0.5149  1.3728 -0.4898
 8918TIP3    H248246   2.516   6.288  11.993  0.6193 -1.6285 -0.4273
 8919TIP3   OH248247   3.021   1.937  16.895 -0.1622  0.0972 -0.2896
 8919TIP3    H148248   3.046   1.846  16.912  1.7845  0.4611 -0.9163
 8919TIP3    H248249   2.930   1.932  16.867  0.0126 -1.7225 -0.6732
 8920TIP3   OH248250   5.365   2.003  16.484 -0.2578  0.2343 -0.1692
 8920TIP3    H148251   5.274   1.998  16.457 -0.3727  1.8683 -0.2078
 8920TIP3    H248252   5.404   2.068  16.425  1.8019 -2.7368 -2.3734
 8921TIP3   OH248253   3.294   5.440  12.436 -0.2548 -0.3729  0.1945
 8921TIP3    H148254   3.299   5.377  12.364  1.3616  0.2329 -0.2578
 8921TIP3    H248255   3.235   5.509  12.403  1.4996  0.5861 -1.1759
 8922TIP3   OH248256   2.155   5.401   1.114  0.2288 -0.4008 -0.7505
 8922TIP3    H148257   2.131   5.312   1.087 -0.2079 -1.1618  1.8898
 8922TIP3    H248258   2.247   5.394   1.140  0.1552 -0.0931 -0.4062
 8923TIP3   OH248259   3.875   4.470  16.381  0.7017  0.2843  0.4563
 8923TIP3    H148260   3.786   4.438  16.372  0.0643  1.5444  1.9262
 8923TIP3    H248261   3.890   4.474  16.476  2.2456  0.3066  0.2385
 8924TIP3   OH248262   2.372   1.979   2.247 -0.8731  0.0135  0.8853
 8924TIP3    H148263   2.374   1.908   2.312 -0.1019 -1.4940 -0.7168
 8924TIP3    H248264   2.464   1.992   2.223 -1.2835 -0.9300 -1.4030
 8925TIP3   OH248265   0.074   3.556  13.094  0.6396 -0.0599 -0.1255
 8925TIP3    H148266   0.087   3.617  13.022  0.6933 -2.5131 -2.3477
 8925TIP3    H248267   0.139   3.487  13.080 -0.1831 -1.2598  1.5452
 8926TIP3   OH248268   4.746   1.988  13.926  0.0777  0.0844  0.1780
 8926TIP3    H148269   4.760   1.947  13.841 -0.9921  0.2243 -0.0769
 8926TIP3    H248270   4.775   1.922  13.989  3.1111  0.8420 -0.2816
 8927TIP3   OH248271   3.714   1.325  12.887 -0.3597 -0.4083  0.4133
 8927TIP3    H148272   3.761   1.402  12.854 -1.7492  0.6328  0.7878
 8927TIP3    H248273   3.779   1.255  12.882 -0.3700 -0.4632 -4.6504
 8928TIP3   OH248274   6.793   4.699  10.682  0.9400 -0.5530 -0.1511
 8928TIP3    H148275   6.824   4.628  10.738 -0.0539 -0.9147 -0.0404
 8928TIP3    H248276   6.871   4.729  10.635  1.5560 -1.0334  0.5544
 8929TIP3   OH248277   4.779   1.552  12.592 -0.4450  0.1008 -0.4212
 8929TIP3    H148278   4.783   1.482  12.658  0.0835  0.2902 -0.2453
 8929TIP3    H248279   4.775   1.506  12.508  0.7244 -0.1449 -0.3509
 8930TIP3   OH248280   1.031   1.697  10.849 -0.0636  0.1988  0.3211
 8930TIP3    H148281   1.109   1.697  10.905  0.2781  0.0683 -0.1455
 8930TIP3    H248282   1.046   1.770  10.788  0.0010 -0.2278 -0.1810
 8931TIP3   OH248283   0.871   4.177  15.966 -0.1334  0.1565  0.3917
 8931TIP3    H148284   0.835   4.168  15.877  0.4923 -0.3708  0.1831
 8931TIP3    H248285   0.797   4.205  16.019 -0.5727  0.2444 -0.2557
 8932TIP3   OH248286   5.404   0.350   4.025  0.6064  0.0071  0.0020
 8932TIP3    H148287   5.458   0.364   4.102  3.3333  0.1195 -1.7944
 8932TIP3    H248288   5.358   0.267   4.042  2.4094 -0.8143  1.0893
 8933TIP3   OH248289   2.780   3.894  14.122 -0.3580 -0.0066 -0.1635
 8933TIP3    H148290   2.758   3.981  14.089  2.5569  0.6584 -0.6604
 8933TIP3    H248291   2.786   3.906  14.217 -0.7839  0.1314 -0.1534
 8934TIP3   OH248292   2.486   5.884  15.483  0.3086  0.0094  0.3081
 8934TIP3    H148293   2.445   5.934  15.412 -0.6502  0.0921  0.8986
 8934TIP3    H248294   2.530   5.812  15.439 -1.0453 -0.4596 -0.3355
 8935TIP3   OH248295   2.717   2.252  11.858 -0.1516 -0.2701 -0.2267
 8935TIP3    H148296   2.756   2.339  11.855 -1.6363  0.4406  0.3758
 8935TIP3    H248297   2.790   2.193  11.838  1.5778  0.9068  2.1037
 8936TIP3   OH248298   0.922   0.741  13.865 -0.3177  0.0763  0.6053
 8936TIP3    H148299   0.881   0.813  13.914  0.6830  1.8072 -1.0075
 8936TIP3    H248300   0.880   0.663  13.901 -0.0561  1.2267  3.8248
 8937TIP3   OH248301   2.721   6.277  12.449 -0.7826  0.5360 -0.0340
 8937TIP3    H148302   2.664   6.221  12.397  1.7396  0.2610 -2.8030
 8937TIP3    H248303   2.741   6.351  12.391  1.3754  0.7418  0.8600
 8938TIP3   OH248304   0.163   5.504   3.551  0.2683  0.0953  0.1937
 8938TIP3    H148305   0.139   5.543   3.467 -0.7700  1.1223  0.9427
 8938TIP3    H248306   0.114   5.421   3.553  2.3270 -1.2494 -1.3118
 8939TIP3   OH248307   2.483   1.548   1.554  0.3760 -0.3676 -0.4665
 8939TIP3    H148308   2.450   1.462   1.528 -1.3384 -0.2295  1.0783
 8939TIP3    H248309   2.405   1.602   1.563  1.2405  0.7258  0.7984
 8940TIP3   OH248310   1.968   0.119   2.043  0.2310 -0.3596 -0.4648
 8940TIP3    H148311   2.003   0.051   2.100  0.5854  2.3058  2.8197
 8940TIP3    H248312   2.029   0.123   1.969  1.2369 -2.2846  0.2131
 8941TIP3   OH248313   0.043   4.410  14.887 -0.1132  0.3214  0.0877
 8941TIP3    H148314  -0.001   4.475  14.833  1.7359  0.5690 -1.2151
 8941TIP3    H248315   0.081   4.461  14.959  1.8341  0.8410 -1.2479
 8942TIP3   OH248316   5.107   1.105   0.616 -0.3620  0.6578  0.0528
 8942TIP3    H148317   5.032   1.122   0.674 -0.2153  1.5826 -0.0018
 8942TIP3    H248318   5.174   1.069   0.674 -0.4924  0.8198  0.3063
 8943TIP3   OH248319   6.433   4.955   4.898  0.4041 -0.2712 -0.5296
 8943TIP3    H148320   6.475   4.990   4.819 -3.1281  0.4971 -2.2854
 8943TIP3    H248321   6.441   5.025   4.963  0.9290  0.2473 -1.1408
 8944TIP3   OH248322   6.416   3.452  10.337 -0.1323  0.0796 -0.1029
 8944TIP3    H148323   6.346   3.387  10.336  0.5709 -0.7120  0.4178
 8944TIP3    H248324   6.388   3.515  10.404  0.0143 -0.6659  0.6822
 8945TIP3   OH248325   4.581   3.391   0.816  0.0036  0.3854  0.7743
 8945TIP3    H148326   4.624   3.477   0.818 -0.5792  0.7262 -0.3379
 8945TIP3    H248327   4.489   3.412   0.798  0.0089 -0.5091 -0.3680
 8946TIP3   OH248328   3.077   5.030  16.391 -0.3877  0.4882 -0.2586
 8946TIP3    H148329   3.090   4.997  16.302 -1.3866 -0.0703 -0.2172
 8946TIP3    H248330   3.133   4.974  16.445 -0.9915 -0.2310 -0.3601
 8947TIP3   OH248331   0.569   6.406  16.067  0.0153 -0.2976  0.2665
 8947TIP3    H148332   0.644   6.425  16.122  0.6073 -1.2482 -0.1867
 8947TIP3    H248333   0.517   6.344  16.118 -0.0087 -0.3252  0.2082
 8948TIP3   OH248334   2.248   6.464  11.218 -0.3162  0.1963 -0.3963
 8948TIP3    H148335   2.159   6.488  11.192 -0.1314 -0.0354 -1.2684
 8948TIP3    H248336   2.303   6.533  11.182 -0.0939  0.0709 -0.2980
 8949TIP3   OH248337   4.254   0.899   3.513 -0.1997  0.2953 -0.4082
 8949TIP3    H148338   4.241   0.819   3.564 -3.4942  0.9095 -0.1199
 8949TIP3    H248339   4.198   0.889   3.437 -0.0797  2.0196 -0.7619
 8950TIP3   OH248340   5.386   1.386  10.935  0.4871 -0.0336  0.2268
 8950TIP3    H148341   5.427   1.416  11.016  1.4538 -2.2247  0.6205
 8950TIP3    H248342   5.458   1.359  10.879 -0.2330  0.1877 -0.8359
 8951TIP3   OH248343   5.836   3.218   6.288 -0.0743 -0.0329  0.3878
 8951TIP3    H148344   5.873   3.302   6.315  2.9149 -0.9500 -0.3851
 8951TIP3    H248345   5.766   3.241   6.226  0.5124  1.8898  0.3784
 8952TIP3   OH248346   5.403   1.667  14.970 -0.3746  0.5899  0.2441
 8952TIP3    H148347   5.420   1.676  14.877  0.3172  0.3200  0.3364
 8952TIP3    H248348   5.312   1.641  14.976 -0.6109  1.2442 -0.3217
 8953TIP3   OH248349   0.133   2.983   0.728 -0.2851 -0.1503  0.8058
 8953TIP3    H148350   0.075   3.037   0.675 -1.8040 -1.0336  1.5108
 8953TIP3    H248351   0.204   2.958   0.668 -1.0535  0.2674 -0.3079
 8954TIP3   OH248352   1.655   4.797   2.248 -0.7520 -0.2672 -0.9717
 8954TIP3    H148353   1.560   4.789   2.246 -0.8245  0.5092 -0.8294
 8954TIP3    H248354   1.677   4.851   2.172 -0.5010  0.2353 -0.5531
 8955TIP3   OH248355   4.155   5.280  13.636  0.2249  0.7668  0.3755
 8955TIP3    H148356   4.206   5.353  13.672 -0.1968  1.5067 -0.5007
 8955TIP3    H248357   4.129   5.309  13.549  1.7332 -1.2189 -0.8146
 8956TIP3   OH248358   5.659   4.930  13.623  0.4824 -0.5077 -0.2446
 8956TIP3    H148359   5.633   4.964  13.538  1.8931 -2.4390 -1.5140
 8956TIP3    H248360   5.580   4.889  13.658  0.0050 -0.0662 -0.7944
 8957TIP3   OH248361   2.926   5.129  13.364 -0.6654  0.3451 -0.3347
 8957TIP3    H148362   2.854   5.151  13.424  0.0199 -1.5866  1.3139
 8957TIP3    H248363   2.930   5.034  13.365  0.9421  0.3523 -1.5983
 8958TIP3   OH248364   5.369   0.984   0.060  0.6060  0.4380 -0.4644
 8958TIP3    H148365   5.384   1.055   0.123 -1.6278  1.3169 -0.8215
 8958TIP3    H248366   5.357   0.906   0.115  0.6773  0.8043  0.0873
 8959TIP3   OH248367   3.610   1.098  17.114  0.6717 -0.1729 -0.2677
 8959TIP3    H148368   3.600   1.003  17.109  2.1553 -0.3491 -0.2052
 8959TIP3    H248369   3.593   1.129  17.025 -0.6642 -0.3804 -0.1114
 8960TIP3   OH248370   4.267   4.776   2.352 -0.2366 -0.3362  0.5687
 8960TIP3    H148371   4.304   4.691   2.374  0.8192  0.0220  0.2059
 8960TIP3    H248372   4.194   4.787   2.413 -0.2911 -1.4327  0.7113
 8961TIP3   OH248373   6.123   2.350  14.908 -0.2701 -0.4980 -0.0126
 8961TIP3    H148374   6.158   2.405  14.978  0.6495  0.7310 -1.3538
 8961TIP3    H248375   6.199   2.331  14.852 -0.3189 -4.0848  0.9150
 8962TIP3   OH248376   6.028   0.481  13.261  0.3518 -1.4896  0.3650
 8962TIP3    H148377   6.077   0.400  13.272  0.9097 -1.5966 -2.3244
 8962TIP3    H248378   5.950   0.457  13.212  1.6034 -0.1684 -2.4736
 8963TIP3   OH248379   6.705   6.611   1.748 -0.4164  0.1700  0.2827
 8963TIP3    H148380   6.783   6.562   1.775 -1.1132 -0.4592  1.2428
 8963TIP3    H248381   6.676   6.654   1.828  0.9375  3.3508 -0.7902
 8964TIP3   OH248382   5.508   5.581  13.167 -0.0240  0.3978  0.0144
 8964TIP3    H148383   5.420   5.542  13.171  1.0144 -2.1105  0.2014
 8964TIP3    H248384   5.492   5.672  13.142 -2.6182 -0.2570 -1.1213
 8965TIP3   OH248385   2.890   6.721   3.876  0.0781 -0.4919 -0.0046
 8965TIP3    H148386   2.824   6.779   3.838  1.4859  0.2094 -1.4879
 8965TIP3    H248387   2.867   6.634   3.846 -0.5034 -0.3392 -0.0143
 8966TIP3   OH248388   4.614   0.213   5.367  0.1603  0.4643  0.2558
 8966TIP3    H148389   4.525   0.189   5.339  0.7182 -1.3762 -0.0638
 8966TIP3    H248390   4.651   0.259   5.291 -0.3318  0.7960  0.2078
 8967TIP3   OH248391   1.828   2.052  12.399  0.4924  1.1808  0.4100
 8967TIP3    H148392   1.839   2.099  12.316 -0.6847  0.4373 -0.1999
 8967TIP3    H248393   1.819   2.122  12.464 -0.6770  1.8231 -0.4007
 8968TIP3   OH248394   5.187   2.897   2.812  0.3279 -0.1783 -0.3931
 8968TIP3    H148395   5.220   2.814   2.778 -1.5881 -1.6013  0.9878
 8968TIP3    H248396   5.265   2.941   2.846  1.4011 -1.4413 -1.1041
 8969TIP3   OH248397   2.098   1.190  12.195  0.7204  0.3279 -0.0261
 8969TIP3    H148398   2.102   1.135  12.273 -0.7883 -0.4175 -0.4335
 8969TIP3    H248399   2.181   1.175  12.150  0.6530 -1.0343  0.2629
 8970TIP3   OH248400   4.147   5.510  15.264  0.1433  0.2240  0.0729
 8970TIP3    H148401   4.174   5.595  15.230 -0.6758  1.2949  1.9708
 8970TIP3    H248402   4.055   5.521  15.286 -0.3789 -1.6204 -0.9565
 8971TIP3   OH248403   0.300   0.232   4.922 -0.5835  0.1953  0.0733
 8971TIP3    H148404   0.262   0.272   4.844 -1.6570 -1.5839 -0.3723
 8971TIP3    H248405   0.279   0.294   4.992 -0.9339  1.1031 -0.7972
 8972TIP3   OH248406   5.311   4.555   5.619 -0.0636  0.0599 -0.1365
 8972TIP3    H148407   5.315   4.523   5.529 -1.1311  0.0509 -0.2033
 8972TIP3    H248408   5.295   4.649   5.609  1.4980  0.3685  0.0583
 8973TIP3   OH248409   1.858   0.327  14.167  0.1636 -0.6815  0.4784
 8973TIP3    H148410   1.883   0.387  14.097  0.1172 -0.5409  0.5794
 8973TIP3    H248411   1.934   0.272  14.180 -0.1747 -1.3705 -0.3600
 8974TIP3   OH248412   6.428   1.915   0.521  0.4100 -0.9397 -0.1587
 8974TIP3    H148413   6.347   1.951   0.558  1.1246 -1.9646  2.6463
 8974TIP3    H248414   6.476   1.992   0.490 -1.3918 -0.2697 -1.4598
 8975TIP3   OH248415   4.946   2.880   2.923 -0.0575  0.3246 -0.0948
 8975TIP3    H148416   5.038   2.870   2.899 -0.6363 -2.0312 -1.8161
 8975TIP3    H248417   4.901   2.899   2.840 -1.2371  0.4378  0.5384
 8976TIP3   OH248418   6.177   0.239   5.489 -0.4443 -0.2048 -0.2483
 8976TIP3    H148419   6.270   0.240   5.512 -0.5623  0.1666  0.2404
 8976TIP3    H248420   6.151   0.331   5.490 -0.5489 -0.2115 -1.5189
 8977TIP3   OH248421   5.492   1.437  16.135  0.0961  0.2667  0.3697
 8977TIP3    H148422   5.569   1.443  16.079 -0.3341  1.5500 -0.1118
 8977TIP3    H248423   5.522   1.388  16.212  1.1417 -0.0281 -0.2068
 8978TIP3   OH248424   4.338   5.390   4.240 -0.2677 -0.5915 -0.5054
 8978TIP3    H148425   4.368   5.312   4.286 -0.0940 -0.7611 -0.8982
 8978TIP3    H248426   4.357   5.372   4.147  0.0015  0.0167 -0.5752
 8979TIP3   OH248427   6.149   2.335   5.064 -0.0216  0.0815  0.1390
 8979TIP3    H148428   6.076   2.272   5.064 -0.2035  0.2905 -0.1368
 8979TIP3    H248429   6.216   2.293   5.119  0.1924 -0.7315 -0.7175
 8980TIP3   OH248430   4.964   0.774   3.486  0.3297 -0.0962  0.1859
 8980TIP3    H148431   4.902   0.797   3.555  0.1366  1.2811 -0.4031
 8980TIP3    H248432   5.023   0.710   3.526 -1.0262 -0.8889  0.9742
 8981TIP3   OH248433   2.209   0.412   3.807  0.1337  0.6886  0.1256
 8981TIP3    H148434   2.126   0.420   3.760 -0.0262  4.1837  0.7163
 8981TIP3    H248435   2.271   0.380   3.741 -1.1575  0.3877 -0.9832
 8982TIP3   OH248436   2.374   2.763  12.783 -0.1827  0.3111  0.1519
 8982TIP3    H148437   2.341   2.673  12.776  0.4995 -0.1825  2.3889
 8982TIP3    H248438   2.467   2.756  12.762  0.8133 -0.3566  3.9912
 8983TIP3   OH248439   1.233   5.583  11.848 -0.1257  0.2659 -0.2459
 8983TIP3    H148440   1.271   5.655  11.797 -2.1103 -0.2662 -2.6823
 8983TIP3    H248441   1.281   5.584  11.931  2.0326  2.3813 -1.4010
 8984TIP3   OH248442   4.549   2.835  13.823  0.4781 -0.0783  0.7316
 8984TIP3    H148443   4.483   2.884  13.775  2.2104  0.4306 -1.2570
 8984TIP3    H248444   4.562   2.884  13.904 -0.0806  0.9853  0.1905
 8985TIP3   OH248445   3.555   3.913   3.405 -0.0731 -0.2116  0.6916
 8985TIP3    H148446   3.504   3.959   3.473 -1.1991  1.6424 -1.2564
 8985TIP3    H248447   3.646   3.933   3.426 -0.4307  0.8302  1.3469
 8986TIP3   OH248448   0.265   1.772   2.632  0.1196 -0.3165 -0.2532
 8986TIP3    H148449   0.224   1.834   2.692  1.1636  0.1520 -0.0090
 8986TIP3    H248450   0.194   1.746   2.572 -0.4176  0.8085 -0.1244
 8987TIP3   OH248451   4.949   4.796   3.486 -0.0941  0.0929 -0.1479
 8987TIP3    H148452   4.866   4.837   3.462 -0.7540 -0.9975  0.2411
 8987TIP3    H248453   5.000   4.796   3.405  0.5481  3.0360  0.1509
 8988TIP3   OH248454   3.401   6.799   2.534 -0.6899  1.1810 -0.0571
 8988TIP3    H148455   3.357   6.753   2.606 -0.4992  1.9748  0.5702
 8988TIP3    H248456   3.353   6.770   2.456 -2.7340  2.4433  0.6502
 8989TIP3   OH248457   1.985   1.393   5.200  0.4330  1.0439 -0.3909
 8989TIP3    H148458   1.949   1.338   5.131 -2.1405 -1.7122  2.8271
 8989TIP3    H248459   2.072   1.418   5.168  0.1941 -1.6896 -3.7088
 8990TIP3   OH248460   0.870   3.583  14.428  0.3191 -0.0424 -0.1437
 8990TIP3    H148461   0.847   3.639  14.355 -0.8476  0.2543  0.4286
 8990TIP3    H248462   0.873   3.495  14.391 -0.5656  0.0641 -0.4932
 8991TIP3   OH248463   6.635   6.806  13.996 -0.1446 -0.2307 -0.2066
 8991TIP3    H148464   6.622   6.856  13.916 -1.2496 -0.5009 -0.2141
 8991TIP3    H248465   6.566   6.740  13.994  0.3504 -0.7876  0.5494
 8992TIP3   OH248466   3.667   4.995   0.029  0.0616  0.6238 -0.5309
 8992TIP3    H148467   3.664   4.918  -0.027  0.0617 -0.2731  0.6551
 8992TIP3    H248468   3.743   5.045  -0.003 -0.0644  0.2481 -1.4451
 8993TIP3   OH248469   0.923   0.802  10.629  0.3897  0.1508 -0.4787
 8993TIP3    H148470   0.884   0.876  10.676  0.4326  1.2697 -2.1265
 8993TIP3    H248471   1.014   0.828  10.614  0.9248 -1.0467  0.4942
 8994TIP3   OH248472   2.089   0.402   0.867  0.1013  0.7092 -0.2121
 8994TIP3    H148473   1.996   0.414   0.888  0.7490  1.0582  3.0686
 8994TIP3    H248474   2.119   0.488   0.839 -0.2891  0.9342  0.0506
 8995TIP3   OH248475   4.855   5.593   1.287 -0.1988  0.2060  0.0588
 8995TIP3    H148476   4.925   5.547   1.333 -0.3639 -2.1434 -1.8127
 8995TIP3    H248477   4.897   5.670   1.249  0.1623  1.5828  3.0429
 8996TIP3   OH248478   5.588   4.530  13.005 -0.3285  0.2936  0.5985
 8996TIP3    H148479   5.583   4.626  13.010 -2.9772  0.1883  1.2420
 8996TIP3    H248480   5.608   4.503  13.094  2.1355  0.2293  0.1052
 8997TIP3   OH248481   0.785   5.637   2.190 -0.1101 -0.6228 -0.0336
 8997TIP3    H148482   0.792   5.555   2.238  1.1652 -1.1872 -1.1267
 8997TIP3    H248483   0.843   5.697   2.236  0.3526 -0.8730 -0.2866
 8998TIP3   OH248484   2.143   2.378   0.712 -0.1958 -0.0066  0.1046
 8998TIP3    H148485   2.171   2.436   0.783 -1.6291  1.0944 -0.1800
 8998TIP3    H248486   2.133   2.436   0.636  0.5907 -1.0409 -0.8372
 8999TIP3   OH248487   0.333   3.670  12.631  0.1683  0.0978 -0.4808
 8999TIP3    H148488   0.386   3.706  12.559  0.5441  2.7955  1.0020
 8999TIP3    H248489   0.251   3.719  12.626  0.6597  1.2514  1.5806
 9000TIP3   OH248490   6.837   0.303  12.103 -0.6723 -0.2212 -1.1553
 9000TIP3    H148491   6.822   0.374  12.040  1.6802  1.2208 -0.2134
 9000TIP3    H248492   6.909   0.253  12.065  0.8337  0.7151  0.3259
 9001TIP3   OH248493   2.286   6.222  12.118  0.7759  0.1641 -0.2003
 9001TIP3    H148494   2.259   6.130  12.123  0.2634  0.3474  0.5820
 9001TIP3    H248495   2.247   6.254  12.037  0.2903 -0.1091 -0.0793
 9002TIP3   OH248496   4.823   5.049   0.792  0.0179  0.6679 -0.2987
 9002TIP3    H148497   4.808   5.142   0.778 -0.1385  0.7299  0.2520
 9002TIP3    H248498   4.843   5.041   0.885  0.3543  0.1928 -0.4049
 9003TIP3   OH248499   3.026   5.354   3.206  0.0203 -0.1072 -0.1265
 9003TIP3    H148500   2.957   5.345   3.140 -0.4939 -0.9838  0.5054
 9003TIP3    H248501   3.033   5.267   3.246  1.5916 -0.0700 -0.2606
 9004TIP3   OH248502   6.558   3.374  14.333 -0.2807  0.7851  0.1291
 9004TIP3    H148503   6.547   3.357  14.240 -0.3422  2.2253 -0.1438
 9004TIP3    H248504   6.520   3.461  14.347 -2.3353 -0.2721  1.9228
 9005TIP3   OH248505   5.461   3.979  14.768  0.2770 -0.1652 -0.3129
 9005TIP3    H148506   5.419   3.930  14.838  1.2234 -0.8899 -0.2314
 9005TIP3    H248507   5.555   3.969  14.785  0.6469 -2.4696 -3.0390
 9006TIP3   OH248508   1.718   5.211  13.317 -0.0445  0.2570 -0.1485
 9006TIP3    H148509   1.725   5.156  13.239  0.6299  0.9801 -0.6137
 9006TIP3    H248510   1.677   5.292  13.285  4.1470  2.3844 -0.7971
 9007TIP3   OH248511   4.529   4.950   1.999 -0.0566 -0.2888  0.0632
 9007TIP3    H148512   4.477   4.881   2.040 -0.4257 -0.6474 -0.9783
 9007TIP3    H248513   4.464   5.008   1.958  0.2642  0.5290  0.7020
 9008TIP3   OH248514   1.177   6.759  12.333  0.5508  0.4920 -0.1285
 9008TIP3    H148515   1.086   6.773  12.305  0.5648  0.8260 -0.0070
 9008TIP3    H248516   1.180   6.792  12.422  0.9829  1.1845 -0.3961
 9009TIP3   OH248517   3.271   4.118   6.032 -0.0652 -0.5435 -0.0308
 9009TIP3    H148518   3.242   4.168   6.108 -0.2478  0.1612 -0.5409
 9009TIP3    H248519   3.275   4.183   5.961 -1.0186 -1.4005 -0.8968
 9010TIP3   OH248520   0.595   5.361   0.231  0.3094  0.3008  0.0622
 9010TIP3    H148521   0.636   5.442   0.262 -0.2146  0.2777  0.8193
 9010TIP3    H248522   0.558   5.321   0.309  0.2080 -0.4715 -0.3750
 9011TIP3   OH248523   4.617   4.762   1.821 -0.6523 -0.3343  0.0429
 9011TIP3    H148524   4.619   4.851   1.858  1.1081 -1.0092  1.7538
 9011TIP3    H248525   4.633   4.775   1.728  2.3904  1.0678  0.6386
 9012TIP3   OH248526   6.266   4.102  15.985 -0.1295 -0.3307 -0.3806
 9012TIP3    H148527   6.289   4.009  15.992  3.2168  0.4847  2.6493
 9012TIP3    H248528   6.350   4.147  15.980 -1.6422  2.6042 -3.2102
 9013TIP3   OH248529   3.342   3.323   6.192 -0.1240 -0.0282  0.4405
 9013TIP3    H148530   3.368   3.233   6.210  1.1296  0.2086 -0.0162
 9013TIP3    H248531   3.305   3.355   6.274 -0.4994 -0.9251  0.6289
 9014TIP3   OH248532   6.489   6.095   3.841 -0.4384 -0.0571 -0.1989
 9014TIP3    H148533   6.430   6.085   3.915 -0.0549  0.9382  0.2593
 9014TIP3    H248534   6.432   6.114   3.766 -0.9794 -2.7128 -0.5672
 9015TIP3   OH248535   6.592   1.570   3.527 -0.0207  0.2192  1.1194
 9015TIP3    H148536   6.648   1.608   3.459  1.4859 -1.4072  1.3568
 9015TIP3    H248537   6.585   1.639   3.594 -0.8830  1.5544 -0.2926
 9016TIP3   OH248538   6.835   5.618  12.111 -0.0094 -0.0138  0.1304
 9016TIP3    H148539   6.744   5.647  12.110  0.3279  1.0706  0.2638
 9016TIP3    H248540   6.836   5.544  12.172 -0.4429  1.1784  1.6349
 9017TIP3   OH248541   1.195   0.276  13.638 -0.0377 -0.1028 -0.2583
 9017TIP3    H148542   1.254   0.350  13.624 -0.3879  0.2322  0.0042
 9017TIP3    H248543   1.223   0.238  13.721 -0.9874  0.8377  0.5182
 9018TIP3   OH248544   5.623   3.154   0.944  0.3088  0.0400  0.0572
 9018TIP3    H148545   5.690   3.110   0.996 -0.0661  0.4482  0.8955
 9018TIP3    H248546   5.557   3.182   1.008  0.2216  1.2501 -0.5344
 9019TIP3   OH248547   5.465   6.087  13.052  0.0630  0.7362  0.6140
 9019TIP3    H148548   5.505   6.000  13.051 -1.7131 -0.1342  1.4833
 9019TIP3    H248549   5.538   6.147  13.033  0.8805 -1.0567 -2.8255
 9020TIP3   OH248550   4.987   3.181   4.076 -0.0458 -0.5964 -0.3083
 9020TIP3    H148551   4.998   3.159   4.168  0.6873  2.3302  0.4144
 9020TIP3    H248552   5.074   3.168   4.038  0.0060 -0.4540 -0.2404
 9021TIP3   OH248553   4.272   4.524   6.586 -0.5022  0.5424  0.4111
 9021TIP3    H148554   4.319   4.537   6.668 -2.3602  3.1700  1.2020
 9021TIP3    H248555   4.225   4.442   6.598  1.3243 -0.4916  0.8439
 9022TIP3   OH248556   6.606   6.477  14.824  0.1477  0.2103 -0.3065
 9022TIP3    H148557   6.585   6.384  14.819 -1.0822  0.5249 -2.0983
 9022TIP3    H248558   6.701   6.481  14.827  0.3683 -1.0954 -2.8497
 9023TIP3   OH248559   0.933   4.465   0.855 -0.7302 -0.0324  0.0674
 9023TIP3    H148560   0.891   4.534   0.803  0.7337 -0.0489 -1.2115
 9023TIP3    H248561   1.003   4.510   0.902  0.2241 -0.6107 -0.7620
 9024TIP3   OH248562   0.727   6.442  17.054  0.0121  0.2710  1.0159
 9024TIP3    H148563   0.635   6.439  17.029 -0.1288 -0.3049  1.5636
 9024TIP3    H248564   0.752   6.350  17.062  0.5311  0.4271  1.2354
 9025TIP3   OH248565   6.634   5.889   3.734  0.0500 -0.2487 -0.2937
 9025TIP3    H148566   6.721   5.925   3.718 -0.3284  0.7303 -0.2296
 9025TIP3    H248567   6.590   5.955   3.788  0.0334 -1.7722  1.6609
 9026TIP3   OH248568   6.026   5.915   0.485  0.0479 -0.4836  0.5752
 9026TIP3    H148569   5.976   5.931   0.564  0.1104 -1.5385  0.8382
 9026TIP3    H248570   6.063   6.000   0.462 -1.0208  0.0981  0.9410
 9027TIP3   OH248571   0.682   5.601   4.205 -0.5194  0.4494 -0.4551
 9027TIP3    H148572   0.744   5.595   4.132  1.0322  1.5623  0.7035
 9027TIP3    H248573   0.605   5.554   4.174  0.8829 -1.0073 -1.9817
 9028TIP3   OH248574   3.168   3.598   0.149 -0.4627  0.6063 -0.7242
 9028TIP3    H148575   3.237   3.642   0.099 -0.8860  0.5514 -1.3756
 9028TIP3    H248576   3.155   3.653   0.226  0.8549  0.1964 -0.1728
 9029TIP3   OH248577   6.453   3.680   6.434 -0.1537  0.4056 -0.5729
 9029TIP3    H148578   6.367   3.721   6.441  0.0699  0.6608  0.8590
 9029TIP3    H248579   6.515   3.752   6.449  0.3237  0.1817 -1.3671
 9030TIP3   OH248580   4.260   4.555  14.896  0.4196 -0.0821  0.5743
 9030TIP3    H148581   4.316   4.596  14.961 -0.0674  1.1357  0.2414
 9030TIP3    H248582   4.308   4.565  14.813 -0.5924  1.6252  0.1651
 9031TIP3   OH248583   4.210   5.057  12.812  0.1750  0.0675  0.2955
 9031TIP3    H148584   4.263   5.062  12.892  0.8920  0.8691 -0.2059
 9031TIP3    H248585   4.176   4.968  12.812  2.2423 -0.7953  0.2106
 9032TIP3   OH248586   1.729   3.947   4.625  0.1747 -0.6358 -0.4190
 9032TIP3    H148587   1.704   3.869   4.575  2.1755 -0.2701 -2.0810
 9032TIP3    H248588   1.824   3.945   4.627  0.2202  0.3987  1.8139
 9033TIP3   OH248589   2.632   5.028   0.881  0.2622  0.3102  0.1403
 9033TIP3    H148590   2.561   5.080   0.920  0.6499 -0.6564  2.2399
 9033TIP3    H248591   2.712   5.075   0.905  0.4297  0.6771 -1.0831
 9034TIP3   OH248592   4.649   6.297  12.594  0.6477 -0.9963 -0.2640
 9034TIP3    H148593   4.687   6.273  12.679 -0.3054  0.8031  0.7505
 9034TIP3    H248594   4.567   6.249  12.590 -0.7238  1.0134  1.2543
 9035TIP3   OH248595   1.398   4.033   2.273 -0.4050 -0.7256 -0.1452
 9035TIP3    H148596   1.307   4.006   2.260 -0.9805  0.8386  0.4547
 9035TIP3    H248597   1.435   4.037   2.185 -1.3630  0.0776 -0.5281
 9036TIP3   OH248598   4.661   0.853  16.166 -0.0350  0.0765  0.8044
 9036TIP3    H148599   4.751   0.875  16.190  0.6616  0.1576 -1.6010
 9036TIP3    H248600   4.650   0.889  16.078 -1.5870 -2.0801  0.0145
 9037TIP3   OH248601   0.094   1.653   2.907 -0.6826  0.1034  0.2627
 9037TIP3    H148602   0.116   1.591   2.977  1.7468 -1.1593 -1.4702
 9037TIP3    H248603   0.026   1.608   2.856 -3.6176  1.6724  2.5123
 9038TIP3   OH248604   4.012   5.324  16.936  0.0761 -0.1527 -0.2148
 9038TIP3    H148605   4.040   5.388  16.871 -0.6374  0.9839  0.5737
 9038TIP3    H248606   4.088   5.314  16.993 -0.6690  2.1476  1.3081
 9039TIP3   OH248607   6.362   3.088   5.390  0.3910  0.1804  0.0394
 9039TIP3    H148608   6.350   3.071   5.483  1.1504  1.2132  0.3452
 9039TIP3    H248609   6.383   3.181   5.385 -0.2771  0.2832 -1.2299
 9040TIP3   OH248610   6.387   2.839   4.984  0.0086 -0.3720 -0.2925
 9040TIP3    H148611   6.449   2.821   5.055 -2.0077 -2.4294  1.0852
 9040TIP3    H248612   6.438   2.889   4.920  2.3158  0.3461  1.9327
 9041TIP3   OH248613   5.220   3.474  17.034  0.2338 -0.1966 -0.0617
 9041TIP3    H148614   5.162   3.487  17.109 -0.5460  0.3392 -0.7376
 9041TIP3    H248615   5.221   3.379  17.020 -0.8033 -0.1899 -0.2799
 9042TIP3   OH248616   0.313   1.783  12.559 -0.1329 -0.2544 -0.2133
 9042TIP3    H148617   0.302   1.689  12.548  2.5461 -0.5954 -0.7628
 9042TIP3    H248618   0.362   1.811  12.482 -1.4200  1.7547 -0.3935
 9043TIP3   OH248619   2.751   0.955   5.278 -0.1904  0.0045  0.7758
 9043TIP3    H148620   2.778   0.873   5.236  0.9889  0.6241  0.2676
 9043TIP3    H248621   2.789   0.950   5.366 -1.3841 -0.6274  1.2804
 9044TIP3   OH248622   6.607   0.184   1.828  0.2541 -0.2221  0.7029
 9044TIP3    H148623   6.627   0.099   1.867  2.1726 -0.7495 -1.2474
 9044TIP3    H248624   6.596   0.165   1.735 -0.9273  1.4532  0.4575
 9045TIP3   OH248625   6.013   4.797   5.062  0.2628  0.2873 -0.3905
 9045TIP3    H148626   5.978   4.879   5.029  1.2447 -0.2468 -3.0113
 9045TIP3    H248627   5.967   4.729   5.013  0.5337 -0.6893  0.6521
 9046TIP3   OH248628   3.357   3.198   4.355  0.2313  0.3299 -0.0320
 9046TIP3    H148629   3.291   3.267   4.362 -0.9324 -0.6404 -0.9525
 9046TIP3    H248630   3.315   3.121   4.393  1.2596 -0.0456  0.3779
 9047TIP3   OH248631   2.528   6.496   5.759  0.0312  0.3896  1.1983
 9047TIP3    H148632   2.605   6.534   5.716 -1.0274  1.9419  0.5914
 9047TIP3    H248633   2.514   6.412   5.715  1.0557  0.3315  0.9618
 9048TIP3   OH248634   1.341   4.899  16.300  0.0215 -0.1943  1.1491
 9048TIP3    H148635   1.364   4.914  16.208 -1.3391  0.4329  0.8788
 9048TIP3    H248636   1.355   4.805  16.312  2.4080  0.0780  0.9921
 9049TIP3   OH248637   6.086   5.130   3.944 -0.2037 -0.2408  0.5113
 9049TIP3    H148638   6.141   5.206   3.964 -0.5128  0.3935 -0.9043
 9049TIP3    H248639   6.003   5.149   3.988  0.0858 -0.3144  1.1046
 9050TIP3   OH248640   5.072   3.579  15.277  0.1815 -0.0991  0.1726
 9050TIP3    H148641   5.135   3.514  15.310  0.6053  1.4523  2.5817
 9050TIP3    H248642   5.105   3.663  15.307 -0.0143  1.4518 -3.3841
 9051TIP3   OH248643   4.737   0.224   3.340  0.0960  0.5005 -0.1635
 9051TIP3    H148644   4.774   0.236   3.253  1.1783 -0.5730  0.1357
 9051TIP3    H248645   4.811   0.200   3.396 -0.6393  0.7716  0.9775
 9052TIP3   OH248646   6.825   5.493  16.637  0.3399 -0.5448  0.8105
 9052TIP3    H148647   6.918   5.498  16.613  0.1178 -1.8743 -0.5173
 9052TIP3    H248648   6.788   5.576  16.607  0.4497 -1.4135 -1.9972
 9053TIP3   OH248649   5.938   5.416  10.570  0.0314  0.0667  0.4165
 9053TIP3    H148650   5.924   5.506  10.540 -0.8755  0.1394  1.0288
 9053TIP3    H248651   5.991   5.376  10.501 -1.7527  0.3100 -1.1823
 9054TIP3   OH248652   1.550   5.360  14.297 -0.0358  0.5857 -0.3593
 9054TIP3    H148653   1.484   5.406  14.247 -1.7098  0.3922  1.5377
 9054TIP3    H248654   1.632   5.378  14.252 -0.9497  3.3984 -1.0629
 9055TIP3   OH248655   3.811   3.670  13.815  0.1192 -0.2216  0.0042
 9055TIP3    H148656   3.790   3.676  13.908  0.2224 -0.1659  0.0245
 9055TIP3    H248657   3.756   3.735  13.773 -0.5632 -0.8479 -0.0867
 9056TIP3   OH248658   5.354   2.463  13.545  0.2657 -0.0776  0.3141
 9056TIP3    H148659   5.345   2.458  13.640  0.5886  0.2385  0.3616
 9056TIP3    H248660   5.443   2.496  13.531  0.5912 -1.0929 -0.1072
 9057TIP3   OH248661   4.569   0.840  16.433  0.2088 -0.3256 -0.1303
 9057TIP3    H148662   4.589   0.853  16.340 -2.1880  2.0170 -0.4272
 9057TIP3    H248663   4.643   0.788  16.466  2.5127  1.0331 -2.7289
 9058TIP3   OH248664   4.480   1.058  12.967 -0.0704 -0.0794  0.0127
 9058TIP3    H148665   4.408   1.120  12.956  0.7843  1.0696  0.6196
 9058TIP3    H248666   4.480   1.039  13.061  1.4314  1.2659  0.3326
 9059TIP3   OH248667   5.048   3.095   2.688  0.2301  0.0842 -0.4048
 9059TIP3    H148668   5.089   3.106   2.602 -0.0146  0.7236 -0.4408
 9059TIP3    H248669   5.109   3.039   2.736  0.2928 -0.4167 -1.0424
 9060TIP3   OH248670   6.399   0.482   3.771 -0.6652  0.4740  0.3300
 9060TIP3    H148671   6.462   0.553   3.779  0.7123 -0.8730  2.2178
 9060TIP3    H248672   6.315   0.520   3.797 -0.2360  1.7450 -0.0965
 9061TIP3   OH248673   5.427   1.930   4.255  0.1424  0.5056  0.6498
 9061TIP3    H148674   5.472   1.850   4.284 -0.1531  0.2648  0.4584
 9061TIP3    H248675   5.342   1.899   4.223  0.3224  0.8089 -0.1431
 9062TIP3   OH248676   5.857   1.486   2.501 -0.1983  0.0714 -0.1193
 9062TIP3    H148677   5.795   1.452   2.436  0.2526  0.8402 -0.9723
 9062TIP3    H248678   5.907   1.552   2.454  0.7562  0.0060  0.7709
 9063TIP3   OH248679   5.522   2.727  16.257 -0.3645  0.1506 -0.1637
 9063TIP3    H148680   5.547   2.635  16.271  0.5607  0.4772  0.3898
 9063TIP3    H248681   5.428   2.723  16.241 -0.5539 -0.7904  0.9849
 9064TIP3   OH248682   0.758   2.363  11.775 -0.4234  0.0739 -0.0488
 9064TIP3    H148683   0.850   2.361  11.802 -0.4222  1.2398  0.0811
 9064TIP3    H248684   0.761   2.395  11.684 -0.7625  1.3815  0.3769
 9065TIP3   OH248685   3.390   5.335   5.031  0.3176 -0.0986  0.3757
 9065TIP3    H148686   3.376   5.382   5.113 -1.6454 -0.7858  0.5029
 9065TIP3    H248687   3.453   5.389   4.982  0.8800  0.7472  1.9717
 9066TIP3   OH248688   4.319   6.636  10.845  0.2748  0.1094  0.3230
 9066TIP3    H148689   4.229   6.610  10.825  0.0469  1.2117 -0.1550
 9066TIP3    H248690   4.325   6.629  10.940  0.5647 -2.6559  0.1656
 9067TIP3   OH248691   4.499   0.648   4.566 -0.1554  0.1659  0.0301
 9067TIP3    H148692   4.457   0.727   4.530 -0.0245 -0.5883 -1.9389
 9067TIP3    H248693   4.427   0.587   4.579 -0.3489  0.7910  2.2259
 9068TIP3   OH248694   6.227   2.045  15.688  0.6422  0.4077 -0.1365
 9068TIP3    H148695   6.207   2.028  15.780 -2.0647 -0.5767 -0.8184
 9068TIP3    H248696   6.182   2.126  15.668  0.7946  0.3520 -0.7325
 9069TIP3   OH248697   2.915   2.961   1.571  0.0832 -0.7472  0.3268
 9069TIP3    H148698   2.941   2.870   1.557  1.9006 -0.0549 -1.2166
 9069TIP3    H248699   2.959   3.009   1.501 -0.7567  1.3391  1.1705
 9070TIP3   OH248700   2.589   4.917  11.150  0.4457  0.7751  0.2358
 9070TIP3    H148701   2.522   4.936  11.084 -0.2149 -0.0284  0.6600
 9070TIP3    H248702   2.597   4.822  11.149  1.8767  0.8778 -0.0726
 9071TIP3   OH248703   6.798   5.254   1.880 -0.1303 -0.2402  0.1196
 9071TIP3    H148704   6.722   5.203   1.851  0.1616 -1.1974  0.9689
 9071TIP3    H248705   6.800   5.242   1.975  0.6910  0.3334  0.1848
 9072TIP3   OH248706   4.198   4.936   5.057 -0.1716  0.5267  0.0534
 9072TIP3    H148707   4.106   4.914   5.041 -0.1462  1.0533 -0.8958
 9072TIP3    H248708   4.224   4.880   5.130 -1.5155  1.0290  0.9587
 9073TIP3   OH248709   0.175   2.356   3.772  0.4035 -0.6580 -0.2029
 9073TIP3    H148710   0.087   2.318   3.775 -0.6634  1.7446  1.1676
 9073TIP3    H248711   0.184   2.387   3.682 -1.0702  1.0164  0.1812
 9074TIP3   OH248712   3.007   1.762   3.297 -0.2837 -0.1239 -0.6365
 9074TIP3    H148713   3.014   1.845   3.346  0.7172  0.0752 -1.0950
 9074TIP3    H248714   2.913   1.750   3.285 -0.4626  0.7970 -0.2991
 9075TIP3   OH248715   1.674   3.205  12.744 -0.0021 -0.3172  0.4615
 9075TIP3    H148716   1.741   3.263  12.778  1.2329 -1.1374 -0.4877
 9075TIP3    H248717   1.710   3.117  12.757 -0.2494 -0.7118 -1.3622
 9076TIP3   OH248718   4.506   4.386  13.372 -0.0072  0.6824 -0.4241
 9076TIP3    H148719   4.571   4.387  13.442  1.6978  2.1807 -1.9344
 9076TIP3    H248720   4.548   4.337  13.301 -0.4945  1.7355 -1.4566
 9077TIP3   OH248721   5.351   5.262   6.593  0.1894 -0.0547  0.0075
 9077TIP3    H148722   5.376   5.350   6.619  1.9568 -0.9972  1.7995
 9077TIP3    H248723   5.259   5.254   6.619 -0.1196  1.3594 -0.5678
 9078TIP3   OH248724   3.804   2.915   2.258 -0.7495 -0.0084  0.3016
 9078TIP3    H148725   3.754   2.951   2.331 -0.6574 -0.4559  0.5922
 9078TIP3    H248726   3.771   2.825   2.249  0.1537 -0.3805  0.6431
 9079TIP3   OH248727   4.062   4.550   2.325 -0.2004  0.3783 -0.0070
 9079TIP3    H148728   4.054   4.459   2.352 -1.0499  1.2150  2.9153
 9079TIP3    H248729   4.106   4.593   2.398  0.8258  2.2240 -1.6141
 9080TIP3   OH248730   3.084   2.213  13.706  0.2832 -0.2938  0.0712
 9080TIP3    H148731   3.065   2.128  13.667  2.5044 -0.7141 -0.2284
 9080TIP3    H248732   3.097   2.195  13.799 -3.0971  0.4129  0.8198
 9081TIP3   OH248733   6.791   2.434   3.429  0.4755 -0.0316  0.1505
 9081TIP3    H148734   6.819   2.423   3.520 -1.7300  1.0645  1.0399
 9081TIP3    H248735   6.712   2.487   3.435 -0.2494 -0.7043 -2.3605
 9082TIP3   OH248736   6.078   6.576  14.515  0.5003  0.0822 -0.2737
 9082TIP3    H148737   6.078   6.613  14.426  0.3743  0.2335 -0.2110
 9082TIP3    H248738   6.171   6.565  14.536  0.5332  0.1207 -0.3949
 9083TIP3   OH248739   2.688   1.138   4.473  0.3795  0.4367 -0.0382
 9083TIP3    H148740   2.606   1.187   4.461  0.4546  1.1061  1.8467
 9083TIP3    H248741   2.663   1.046   4.460 -0.0371  0.8134 -2.3457
 9084TIP3   OH248742   5.691   0.251  11.587  0.1298 -0.2850  0.6170
 9084TIP3    H148743   5.737   0.331  11.609 -1.1956  0.1240  2.0961
 9084TIP3    H248744   5.657   0.266  11.499  0.0642  0.7009  0.8032
 9085TIP3   OH248745   5.002   4.370   1.722  0.2172 -1.3042  0.0772
 9085TIP3    H148746   5.032   4.374   1.812 -1.1681  0.7182  0.5141
 9085TIP3    H248747   4.907   4.360   1.728 -0.2744  1.5497 -1.0116
 9086TIP3   OH248748   0.027   0.395   4.451  0.1504 -0.2802 -0.1147
 9086TIP3    H148749   0.018   0.488   4.433  0.0091 -0.2762 -0.0274
 9086TIP3    H248750   0.117   0.374   4.427  0.0439 -0.2190 -0.5734
 9087TIP3   OH248751   4.738   3.747   2.152  0.1912 -0.1461  0.9476
 9087TIP3    H148752   4.795   3.673   2.172 -1.1904 -1.4623  0.1609
 9087TIP3    H248753   4.705   3.730   2.064 -2.2158  0.0030  1.7432
 9088TIP3   OH248754   2.667   5.716   5.437 -0.1069  0.4762  0.4357
 9088TIP3    H148755   2.607   5.642   5.443  0.8885 -0.2604  2.1108
 9088TIP3    H248756   2.710   5.705   5.352 -1.5384  0.4320 -0.3205
 9089TIP3   OH248757   6.773   3.644   4.989 -0.4094 -0.3638 -0.1086
 9089TIP3    H148758   6.750   3.594   5.068 -0.7809 -0.5951 -0.3569
 9089TIP3    H248759   6.701   3.627   4.929 -1.9491  2.6496  0.7340
 9090TIP3   OH248760   0.879   3.394   0.346 -0.3611 -0.2492 -0.4513
 9090TIP3    H148761   0.784   3.381   0.339 -0.3375 -0.4473 -0.4051
 9090TIP3    H248762   0.897   3.469   0.290 -0.4496 -0.6212 -0.9903
 9091TIP3   OH248763   6.748   2.732   1.977  0.4621 -0.6836 -0.2395
 9091TIP3    H148764   6.704   2.732   2.062  0.7102 -0.4924 -0.1140
 9091TIP3    H248765   6.721   2.649   1.937 -0.5057 -0.2943 -0.4155
 9092TIP3   OH248766   0.290   3.788   6.025  0.2576  0.7146  0.4904
 9092TIP3    H148767   0.248   3.703   6.012 -0.9992  1.4836 -0.7995
 9092TIP3    H248768   0.331   3.782   6.111  2.4863 -2.1062 -0.6055
 9093TIP3   OH248769   2.607   6.601   5.173 -0.3364  0.1164 -0.2918
 9093TIP3    H148770   2.621   6.563   5.260 -1.9542 -0.9435 -0.4463
 9093TIP3    H248771   2.594   6.525   5.116  2.1798  0.7081 -1.8144
 9094TIP3   OH248772   4.620   4.077   0.423  0.0136 -0.1240  0.7644
 9094TIP3    H148773   4.572   4.154   0.394 -0.2747 -0.0132  1.4997
 9094TIP3    H248774   4.590   4.063   0.513 -1.3761 -2.2171  0.0490
 9095TIP3   OH248775   6.332   0.241  10.948  0.2535 -0.3487 -0.7596
 9095TIP3    H148776   6.237   0.237  10.952  0.2300 -0.6843 -1.5054
 9095TIP3    H248777   6.356   0.180  10.878  0.9928  0.0063 -0.8248
 9096TIP3   OH248778   1.423   5.231  15.072  0.7706  0.2546 -0.7971
 9096TIP3    H148779   1.406   5.249  14.980 -1.8284  0.0355 -0.4477
 9096TIP3    H248780   1.422   5.318  15.114 -0.5562  0.2101 -0.6773
 9097TIP3   OH248781   0.393   2.856  13.524  0.2476  0.3609 -0.2360
 9097TIP3    H148782   0.337   2.924  13.487  0.6718  0.3608 -0.8978
 9097TIP3    H248783   0.481   2.894  13.522  0.4172 -0.0265 -0.1750
 9098TIP3   OH248784   2.508   1.317  14.319  0.5047  0.4326  0.0938
 9098TIP3    H148785   2.500   1.228  14.283  1.6387 -0.3502  1.6895
 9098TIP3    H248786   2.500   1.306  14.413 -0.6238  2.2180  0.2624
 9099TIP3   OH248787   0.147   2.065   3.618 -0.0747 -0.1398 -0.3890
 9099TIP3    H148788   0.126   2.154   3.591  0.5067  0.5262  1.2936
 9099TIP3    H248789   0.063   2.019   3.614 -0.4892  0.6237 -0.6873
 9100TIP3   OH248790   0.160   4.397  13.232  0.6134 -0.4295 -0.0591
 9100TIP3    H148791   0.073   4.423  13.203  1.5125  0.4421 -2.1322
 9100TIP3    H248792   0.177   4.451  13.309  0.0902  0.8497 -0.8101
 9101TIP3   OH248793   5.445   1.046  13.959 -0.2695  0.3483 -0.3172
 9101TIP3    H148794   5.351   1.055  13.945 -0.5930  3.0041  2.4306
 9101TIP3    H248795   5.458   0.954  13.981 -2.1978 -0.0774 -0.8009
 9102TIP3   OH248796   1.700   2.408  11.679  0.0722  0.2955 -0.0494
 9102TIP3    H148797   1.649   2.348  11.625 -0.4344  0.0425  0.6942
 9102TIP3    H248798   1.687   2.377  11.768 -0.6846  1.8552  0.4124
 9103TIP3   OH248799   5.872   0.288   5.358 -0.4958 -0.1351  0.3605
 9103TIP3    H148800   5.936   0.359   5.350 -0.3999 -0.3583 -1.2756
 9103TIP3    H248801   5.787   0.332   5.355 -0.4285 -0.0224  0.0114
 9104TIP3   OH248802   0.628   0.075  15.499 -0.4425  0.1841 -0.2011
 9104TIP3    H148803   0.653   0.054  15.589 -0.0575 -0.8421 -0.5320
 9104TIP3    H248804   0.707   0.114  15.461 -0.2542 -0.3676 -0.3931
 9105TIP3   OH248805   1.991   2.644   6.331  1.3245 -0.5052  0.6880
 9105TIP3    H148806   1.950   2.651   6.244  0.2001 -0.0889  1.2219
 9105TIP3    H248807   2.081   2.671   6.317  0.9361  0.4172 -0.1998
 9106TIP3   OH248808   0.489   1.455  10.869  0.3373  0.1352 -0.1203
 9106TIP3    H148809   0.451   1.515  10.805  0.5908  0.3582 -0.0587
 9106TIP3    H248810   0.458   1.368  10.841 -0.9108  0.3913  0.4083
 9107TIP3   OH248811   1.088   6.165   1.499 -0.5817  0.4224 -0.2206
 9107TIP3    H148812   1.084   6.213   1.417 -1.0146  0.1905 -0.3363
 9107TIP3    H248813   1.176   6.183   1.533 -0.6909  1.1694 -0.3330
 9108TIP3   OH248814   2.026   1.201   3.164  0.2168 -0.0871  0.7393
 9108TIP3    H148815   1.999   1.131   3.224 -0.3841  0.7554  1.4852
 9108TIP3    H248816   1.990   1.175   3.079 -0.3981 -0.4744  1.1065
 9109TIP3   OH248817   5.667   0.560   0.699  0.0049 -0.0075  0.2848
 9109TIP3    H148818   5.692   0.602   0.782  0.0320  3.1397 -1.1491
 9109TIP3    H248819   5.743   0.572   0.643 -0.2180 -1.5893 -0.3952
 9110TIP3   OH248820   5.225   3.972  14.633 -0.1756 -0.0511  0.5131
 9110TIP3    H148821   5.263   3.897  14.589 -0.7066  0.4501 -0.8425
 9110TIP3    H248822   5.298   4.009  14.684  0.9636  0.3550 -1.2976
 9111TIP3   OH248823   3.721   1.140  16.192  0.1263  0.6601 -0.1220
 9111TIP3    H148824   3.800   1.100  16.227  0.8892  1.7767 -0.4891
 9111TIP3    H248825   3.740   1.234  16.192 -0.7567  0.8613 -1.2850
 9112TIP3   OH248826   2.777   2.834  13.812 -0.2467  0.2315 -0.1198
 9112TIP3    H148827   2.833   2.771  13.857  0.4946  0.0793 -1.2160
 9112TIP3    H248828   2.688   2.809  13.836  0.0950 -0.3773  0.5470
 9113TIP3   OH248829   3.693   2.265   3.811  0.3514  0.2841 -0.2776
 9113TIP3    H148830   3.685   2.311   3.728 -0.2825  0.5466 -0.0829
 9113TIP3    H248831   3.771   2.301   3.852  0.3755  0.5204 -0.5356
 9114TIP3   OH248832   1.704   2.131  13.273  0.4562 -0.5278  0.3607
 9114TIP3    H148833   1.641   2.201  13.258 -0.1679 -1.0947  0.2658
 9114TIP3    H248834   1.668   2.056  13.224  1.8568 -0.5110 -0.7465
 9115TIP3   OH248835   5.945   5.245  15.332 -0.5751  0.3451  0.0526
 9115TIP3    H148836   6.029   5.223  15.370 -2.1686 -2.0664  2.5098
 9115TIP3    H248837   5.891   5.273  15.406 -2.7417 -0.9290 -0.9524
 9116TIP3   OH248838   4.348   3.580   0.754 -0.4838 -0.2706  0.1480
 9116TIP3    H148839   4.352   3.653   0.692  2.0421  0.0235  0.5344
 9116TIP3    H248840   4.347   3.622   0.840  2.3504 -0.5558  0.4270
 9117TIP3   OH248841   3.063   3.634  13.782 -0.1335 -0.8632  0.3530
 9117TIP3    H148842   2.989   3.574  13.780  0.7851 -1.9940 -1.6306
 9117TIP3    H248843   3.137   3.584  13.748  0.3266  1.7667 -3.0526
 9118TIP3   OH248844   2.304   2.978  11.184 -0.3827 -0.7420 -0.3786
 9118TIP3    H148845   2.290   2.959  11.276  0.5926  0.0722 -0.0453
 9118TIP3    H248846   2.358   2.906  11.152  0.4191 -0.3465  0.0392
 9119TIP3   OH248847   2.194   2.934  15.060 -0.0744  0.0165 -0.9635
 9119TIP3    H148848   2.272   2.988  15.044  0.4038 -0.4449 -0.2581
 9119TIP3    H248849   2.228   2.855  15.103 -1.0770  0.3930  0.6044
 9120TIP3   OH248850   5.498   3.990  12.729 -0.3261  0.0639  0.1669
 9120TIP3    H148851   5.490   4.011  12.636 -1.6015  0.2046  0.2897
 9120TIP3    H248852   5.409   3.969  12.757  0.4399 -3.0157  0.6795
 9121TIP3   OH248853   0.900   0.459  13.945 -0.6218 -0.2915  0.3140
 9121TIP3    H148854   0.990   0.493  13.944 -0.3264 -0.6258 -4.0469
 9121TIP3    H248855   0.910   0.365  13.956 -0.6557 -0.1683  1.6175
 9122TIP3   OH248856   3.610   1.985   1.187  0.1981 -0.1309  0.4620
 9122TIP3    H148857   3.625   2.074   1.220 -1.6238  1.1145 -1.7729
 9122TIP3    H248858   3.553   1.944   1.253  0.1655  0.7375  0.9876
 9123TIP3   OH248859   6.246   3.596  11.690  0.6768 -0.6625 -0.2113
 9123TIP3    H148860   6.276   3.652  11.618  0.8830  0.3027  0.5979
 9123TIP3    H248861   6.304   3.618  11.763  0.3314 -1.4680  0.3199
 9124TIP3   OH248862   3.438   1.287   6.263 -0.3311 -0.2709  0.1127
 9124TIP3    H148863   3.364   1.227   6.263 -1.7339  1.2396 -2.7982
 9124TIP3    H248864   3.425   1.342   6.341 -1.2736 -1.1254  0.5701
 9125TIP3   OH248865   5.788   0.313  13.953  0.0859  0.6092 -0.2156
 9125TIP3    H148866   5.739   0.374  13.897 -0.2841  1.0602  0.5764
 9125TIP3    H248867   5.760   0.336  14.042  1.1675  0.3555  0.1962
 9126TIP3   OH248868   4.300   4.803  11.742  0.6990 -0.2548 -0.2743
 9126TIP3    H148869   4.322   4.873  11.803 -3.1125  1.3350 -0.3960
 9126TIP3    H248870   4.357   4.817  11.667 -0.2747  3.2602 -0.5405
 9127TIP3   OH248871   2.598   0.231   5.460 -0.1338  0.2941 -0.0263
 9127TIP3    H148872   2.518   0.230   5.513 -0.8716  1.3219 -1.0830
 9127TIP3    H248873   2.584   0.162   5.395  0.4419 -0.4468  0.6177
 9128TIP3   OH248874   2.942   1.363   1.603 -0.1317  0.0747  0.1211
 9128TIP3    H148875   2.851   1.344   1.626  0.1541 -2.4317 -0.5007
 9128TIP3    H248876   2.936   1.396   1.513 -0.3875 -0.9159 -0.2400
 9129TIP3   OH248877   4.023   4.210   3.567  0.0112  0.3277  0.1508
 9129TIP3    H148878   4.031   4.184   3.475 -2.6409 -0.3864  0.0410
 9129TIP3    H248879   4.049   4.132   3.616 -1.4829 -0.3518 -0.0838
 9130TIP3   OH248880   0.100   4.615   4.620 -0.1223 -0.3511 -0.2007
 9130TIP3    H148881   0.012   4.609   4.658 -0.9981  0.7008 -1.9699
 9130TIP3    H248882   0.102   4.545   4.555  0.4933 -0.5778  0.0556
 9131TIP3   OH248883   2.449   1.915   0.929 -0.3159 -0.2118  0.4745
 9131TIP3    H148884   2.426   1.823   0.920 -0.3532 -0.1340 -0.3031
 9131TIP3    H248885   2.407   1.942   1.011 -1.5053 -0.5359 -0.0063
 9132TIP3   OH248886   0.817   2.442  16.697  0.3014 -0.2651 -0.4194
 9132TIP3    H148887   0.736   2.465  16.743 -0.6877 -0.9525 -1.7216
 9132TIP3    H248888   0.786   2.398  16.618  1.9341  0.5565 -1.5555
 9133TIP3   OH248889   5.949   3.560   0.136  0.2643 -0.5256  0.0462
 9133TIP3    H148890   5.931   3.642   0.090 -0.4616 -1.5802 -1.6365
 9133TIP3    H248891   6.028   3.579   0.187  0.8040  0.8827 -1.2236
 9134TIP3   OH248892   2.724   3.961   2.470 -0.7239 -0.4356 -0.5763
 9134TIP3    H148893   2.790   3.917   2.418 -0.4650  2.1650 -2.6839
 9134TIP3    H248894   2.735   4.054   2.449 -3.2837  0.3631  1.0872
 9135TIP3   OH248895   4.269   2.857   1.246 -0.2000 -0.0106 -0.2634
 9135TIP3    H148896   4.245   2.877   1.336 -1.5605 -0.5089 -0.4900
 9135TIP3    H248897   4.313   2.936   1.214 -0.0911  0.3278  0.6830
 9136TIP3   OH248898   4.168   1.656  12.152 -0.3014  0.1555 -0.0054
 9136TIP3    H148899   4.251   1.613  12.173  0.6765  0.5556 -2.6320
 9136TIP3    H248900   4.112   1.585  12.120 -0.0833  0.2339 -0.5730
 9137TIP3   OH248901   4.653   1.038   2.025 -0.3755 -0.1107  0.2383
 9137TIP3    H148902   4.614   1.122   2.052  0.6889 -0.7150  4.3650
 9137TIP3    H248903   4.581   0.991   1.983 -1.6881  1.9187  0.0317
 9138TIP3   OH248904   0.139   4.892   5.436 -0.1016  0.3914 -0.4898
 9138TIP3    H148905   0.056   4.845   5.448  0.5057 -0.2855  1.3958
 9138TIP3    H248906   0.194   4.862   5.507  1.9757  0.4759 -1.9867
 9139TIP3   OH248907   6.253   3.018  12.253  0.1564  0.2848 -0.3644
 9139TIP3    H148908   6.264   3.105  12.292 -1.0538  1.7589 -3.0394
 9139TIP3    H248909   6.335   3.003  12.206 -0.0934  0.5950 -0.9198
 9140TIP3   OH248910   6.323   0.071   1.455 -0.2169  0.4521 -0.7996
 9140TIP3    H148911   6.384   0.048   1.525 -0.7983 -1.5903 -0.9072
 9140TIP3    H248912   6.360   0.151   1.417  1.3254  0.3511  0.3655
 9141TIP3   OH248913   2.704   2.616   0.733  0.5992  0.0972 -0.1489
 9141TIP3    H148914   2.765   2.664   0.788  0.6065 -0.6944  0.5643
 9141TIP3    H248915   2.743   2.528   0.725  1.1993  0.4815 -2.3901
 9142TIP3   OH248916   2.975   4.295   3.232  0.2622  0.2932  0.5910
 9142TIP3    H148917   3.063   4.300   3.195  0.7550 -1.9760  1.3043
 9142TIP3    H248918   2.952   4.202   3.228 -2.3315  0.8678 -0.0223
 9143TIP3   OH248919   5.510   5.664   5.288  0.2063  0.1570 -0.0935
 9143TIP3    H148920   5.562   5.743   5.298 -1.5648  1.5351 -1.2462
 9143TIP3    H248921   5.420   5.694   5.286 -0.5815 -1.9956  0.2782
 9144TIP3   OH248922   4.353   5.133  15.181 -0.3740  0.3080  0.3298
 9144TIP3    H148923   4.372   5.119  15.274  1.3581  0.6534  0.0573
 9144TIP3    H248924   4.397   5.215  15.160 -0.8692  0.3076 -0.7791
 9145TIP3   OH248925   5.726   3.795   5.482  0.4932 -0.0370  0.3957
 9145TIP3    H148926   5.815   3.814   5.452  0.1368  1.3675  0.1580
 9145TIP3    H248927   5.735   3.717   5.536  2.1655  1.1062  1.8579
 9146TIP3   OH248928   2.829   3.313   2.432  0.4994  0.7144  0.2245
 9146TIP3    H148929   2.759   3.326   2.496 -1.9277 -1.0151 -1.8820
 9146TIP3    H248930   2.859   3.223   2.448  0.2914  0.4848 -0.6000
 9147TIP3   OH248931   2.549   4.104  16.031 -0.1417 -0.0134  0.3425
 9147TIP3    H148932   2.639   4.129  16.011  0.3709 -2.8738 -1.6434
 9147TIP3    H248933   2.506   4.185  16.056  2.3167  1.9255 -1.2499
 9148TIP3   OH248934   3.647   0.141   3.026  0.3832 -0.2802 -0.0741
 9148TIP3    H148935   3.556   0.158   3.050  0.6284 -0.6828  1.2050
 9148TIP3    H248936   3.696   0.216   3.060  0.8312 -1.2061  1.3999
 9149TIP3   OH248937   3.864   0.421  11.365  0.4069 -0.0106 -0.0368
 9149TIP3    H148938   3.809   0.344  11.350 -0.2697  0.4891 -0.1807
 9149TIP3    H248939   3.847   0.445  11.456  1.1979 -0.4744  0.2402
 9150TIP3   OH248940   5.179   0.006   4.703  0.3099  0.0321 -0.1134
 9150TIP3    H148941   5.095   0.010   4.656 -0.5825  0.8566  1.4853
 9150TIP3    H248942   5.228  -0.062   4.657 -1.1798 -0.3753 -1.1879
 9151TIP3   OH248943   4.747   0.624   3.102  0.5610  0.3578  0.0517
 9151TIP3    H148944   4.726   0.666   3.185  0.3147  1.5607 -0.5835
 9151TIP3    H248945   4.829   0.667   3.074 -0.7643  2.0104 -1.6035
 9152TIP3   OH248946   1.184   1.416  16.116 -0.4376 -0.7672  0.3962
 9152TIP3    H148947   1.144   1.351  16.057 -0.0184 -1.6245  1.0292
 9152TIP3    H248948   1.144   1.399  16.201  0.0068 -0.4918  0.6607
 9153TIP3   OH248949   5.245   6.397  16.122 -0.2864 -0.2795 -0.0570
 9153TIP3    H148950   5.250   6.466  16.055  0.4483  0.2463  0.5187
 9153TIP3    H248951   5.180   6.336  16.089  0.8292 -0.6054 -1.7953
 9154TIP3   OH248952   6.134   1.505   5.024 -1.0273  0.5814  0.1702
 9154TIP3    H148953   6.222   1.521   4.988 -0.5938 -0.7716  0.5501
 9154TIP3    H248954   6.149   1.498   5.119 -1.7238  1.3982  0.3458
 9155TIP3   OH248955   3.068   6.382   5.866 -0.5953  0.1068  0.3197
 9155TIP3    H148956   3.062   6.377   5.962  1.3799  2.1590  0.6342
 9155TIP3    H248957   3.018   6.460   5.843  0.1467  0.4568 -0.1372
 9156TIP3   OH248958   3.349   5.506   5.234  0.2407  0.1948 -0.4461
 9156TIP3    H148959   3.363   5.595   5.200 -0.5422  0.4464 -0.1350
 9156TIP3    H248960   3.380   5.510   5.325 -0.0654  0.2414 -0.3399
 9157TIP3   OH248961   2.468   4.635   2.302 -0.0896 -0.1058 -0.1454
 9157TIP3    H148962   2.437   4.559   2.253 -0.3107 -1.1472  1.5451
 9157TIP3    H248963   2.410   4.640   2.378  1.0406  0.6661  0.7034
 9158TIP3   OH248964   5.680   6.056   1.456  0.1069 -0.2737  0.2781
 9158TIP3    H148965   5.623   5.982   1.434  2.4428 -2.0026 -0.3476
 9158TIP3    H248966   5.688   6.051   1.552 -2.4466  1.3797  0.6789
 9159TIP3   OH248967   2.713   6.539   2.318 -0.6040 -0.1794  0.5733
 9159TIP3    H148968   2.625   6.531   2.355 -0.0663 -0.8560  1.7806
 9159TIP3    H248969   2.705   6.606   2.250 -2.6599 -2.1566 -1.3163
 9160TIP3   OH248970   3.613   2.911  14.718  0.2172 -0.5809  0.6672
 9160TIP3    H148971   3.592   2.922  14.625 -0.0745  1.2194  0.9124
 9160TIP3    H248972   3.641   2.820  14.725 -3.4885 -1.9682 -0.4514
 9161TIP3   OH248973   4.221   0.908   6.689  0.2151  0.3867  0.0382
 9161TIP3    H148974   4.314   0.886   6.694  0.3110  1.0757  3.3308
 9161TIP3    H248975   4.218   1.002   6.707 -1.0826  0.6231 -1.2490
 9162TIP3   OH248976   2.151   1.746  12.237  0.0563  0.0841  0.4613
 9162TIP3    H148977   2.070   1.757  12.286  1.0662 -0.0362  2.2323
 9162TIP3    H248978   2.174   1.654  12.250  0.5771  0.1590  0.1047
 9163TIP3   OH248979   5.133   1.608  11.242 -0.4783  0.1369  0.1385
 9163TIP3    H148980   5.188   1.638  11.315  0.1294  0.3956 -0.4183
 9163TIP3    H248981   5.050   1.654  11.254 -0.8766 -0.8341  1.4263
 9164TIP3   OH248982   4.752   2.954   3.837 -0.2627 -0.0600 -0.0485
 9164TIP3    H148983   4.790   2.885   3.892  2.0309  1.4018  0.3339
 9164TIP3    H248984   4.793   2.940   3.751  0.4814  0.9773  0.1208
 9165TIP3   OH248985   5.384   5.708  13.730 -0.2054 -0.3977 -1.1294
 9165TIP3    H148986   5.409   5.667  13.648 -0.4488 -1.6448 -0.6059
 9165TIP3    H248987   5.289   5.694  13.736 -0.6031  1.7128 -1.7062
 9166TIP3   OH248988   0.802   6.111  13.631  0.0171  0.1806 -0.2283
 9166TIP3    H148989   0.825   6.193  13.675 -0.6473  0.1806  0.1214
 9166TIP3    H248990   0.707   6.115  13.621 -0.1233 -0.9563  0.6013
 9167TIP3   OH248991   6.612   2.870   0.617  0.0788 -0.4980 -0.1228
 9167TIP3    H148992   6.559   2.926   0.560  0.0423 -0.3143  0.0940
 9167TIP3    H248993   6.599   2.904   0.705 -0.6799 -1.4146  0.1347
 9168TIP3   OH248994   3.905   3.939  16.167  0.1816 -0.5058 -0.4004
 9168TIP3    H148995   3.844   4.011  16.186  0.3394 -0.2132 -0.9870
 9168TIP3    H248996   3.862   3.889  16.097  0.5843 -0.3334 -0.7755
 9169TIP3   OH248997   4.228   1.548  14.086  0.3400 -0.4317 -0.4124
 9169TIP3    H148998   4.218   1.607  14.161 -2.5192 -0.3718 -0.7518
 9169TIP3    H248999   4.314   1.570  14.051  1.7074 -0.2883  2.6421
 9170TIP3   OH249000   6.077   0.854  10.978 -0.2420 -0.2148  0.0695
 9170TIP3    H149001   6.160   0.823  10.943 -0.4796 -0.2874 -0.4378
 9170TIP3    H249002   6.094   0.871  11.071  0.3170 -0.2965 -0.0193
 9171TIP3   OH249003   3.298   4.125   1.886  0.0433 -0.0273 -0.0037
 9171TIP3    H149004   3.236   4.074   1.835  1.0789 -0.3378 -0.9841
 9171TIP3    H249005   3.328   4.065   1.955  2.1344 -1.2113 -1.8387
 9172TIP3   OH249006   3.764   4.639   4.291  0.1609  0.1112 -0.0202
 9172TIP3    H149007   3.719   4.555   4.288  0.6678 -0.2019  0.8015
 9172TIP3    H249008   3.753   4.669   4.381  1.5802  0.0187  0.2205
 9173TIP3   OH249009   6.032   6.172  16.209  0.4873 -0.5507 -0.4497
 9173TIP3    H149010   5.976   6.100  16.180 -0.9008  0.9109 -1.5076
 9173TIP3    H249011   6.115   6.158  16.163 -0.5009 -0.2576 -2.3835
 9174TIP3   OH249012   0.632   0.877  17.093 -0.4491 -0.4766 -0.5695
 9174TIP3    H149013   0.720   0.915  17.092 -0.6976  0.0945 -1.0132
 9174TIP3    H249014   0.586   0.922  17.022 -1.8166  0.9159  1.1353
 9175TIP3   OH249015   4.423   3.558   4.375 -0.1494  0.6684 -0.0226
 9175TIP3    H149016   4.343   3.547   4.323 -0.1814 -0.7640  0.2764
 9175TIP3    H249017   4.391   3.578   4.464 -0.2099 -0.3333  0.1940
 9176TIP3   OH249018   5.052   2.033  13.417  0.5243  0.0466 -0.3621
 9176TIP3    H149019   5.035   2.019  13.324  0.6006  0.8290 -0.5047
 9176TIP3    H249020   5.086   2.123  13.422  3.7149 -1.0329  0.0054
 9177TIP3   OH249021   4.532   0.576  15.030 -0.4231  0.3624 -0.5177
 9177TIP3    H149022   4.579   0.580  15.113 -2.1763  0.7578  0.4893
 9177TIP3    H249023   4.548   0.662  14.990  1.1133 -0.1220 -1.0287
 9178TIP3   OH249024   4.800   2.677   0.992  0.7591 -0.1339 -0.2033
 9178TIP3    H149025   4.839   2.663   1.078  2.8458 -1.1756 -1.2442
 9178TIP3    H249026   4.827   2.601   0.941 -1.5010 -0.1851 -1.4682
 9179TIP3   OH249027   4.772   5.860   3.794 -0.4006 -0.2370 -0.5003
 9179TIP3    H149028   4.710   5.821   3.856 -1.4834 -0.5601 -1.7357
 9179TIP3    H249029   4.851   5.808   3.803  0.3473  1.1632  2.2658
 9180TIP3   OH249030   3.673   4.898  13.833 -0.2703  0.3686  0.7852
 9180TIP3    H149031   3.668   4.877  13.740 -1.0903 -2.1706  1.3111
 9180TIP3    H249032   3.738   4.968  13.839  3.5071 -2.5698 -1.2801
 9181TIP3   OH249033   6.810   6.138  16.760  0.3160 -0.4812 -0.3862
 9181TIP3    H149034   6.789   6.079  16.833  0.4009 -0.3484 -0.2529
 9181TIP3    H249035   6.849   6.215  16.802 -0.5750  0.0435 -0.4879
 9182TIP3   OH249036   2.034   4.816   0.045 -0.0586 -0.2664 -0.1812
 9182TIP3    H149037   2.062   4.864  -0.032  1.9589  1.0817  1.2907
 9182TIP3    H249038   1.939   4.810   0.037  0.1758 -2.0675 -3.7648
 9183TIP3   OH249039   1.879   2.632   5.372 -0.4545 -0.0100  0.6129
 9183TIP3    H149040   1.932   2.711   5.366  0.6303 -0.8030 -1.2667
 9183TIP3    H249041   1.824   2.634   5.293  0.7748 -1.8758 -0.3656
 9184TIP3   OH249042   0.562   0.627   2.896  0.2410  0.4624  0.1674
 9184TIP3    H149043   0.493   0.694   2.903  1.0547  1.2570  0.8530
 9184TIP3    H249044   0.623   0.648   2.967  0.8868 -0.5845 -0.0589
 9185TIP3   OH249045   4.669   3.319  11.263  0.3889  0.5234 -0.2887
 9185TIP3    H149046   4.709   3.296  11.346 -0.4497  0.9984  0.2620
 9185TIP3    H249047   4.735   3.297  11.197  1.0859  0.2119  0.5011
 9186TIP3   OH249048   0.794   3.288  14.670  0.1800 -0.0579 -0.3499
 9186TIP3    H149049   0.751   3.291  14.756 -1.5522 -0.7061 -1.1543
 9186TIP3    H249050   0.812   3.195  14.656  0.3938  0.0382 -0.7083
 9187TIP3   OH249051   2.383   4.361  16.584  0.3209 -0.1344 -0.4005
 9187TIP3    H149052   2.301   4.312  16.586  1.0836 -1.4250  0.3535
 9187TIP3    H249053   2.379   4.410  16.501 -0.6607 -1.1379 -0.9768
 9188TIP3   OH249054   0.981   3.423  16.728 -0.1754 -0.6056  0.5164
 9188TIP3    H149055   1.027   3.491  16.778  0.1635 -1.3569  1.2606
 9188TIP3    H249056   1.049   3.359  16.707 -0.6645 -1.1784  0.6532
 9189TIP3   OH249057   2.964   6.701   2.110  0.4331 -0.3603 -0.1263
 9189TIP3    H149058   3.042   6.749   2.086  1.1300 -1.5725 -0.3884
 9189TIP3    H249059   2.911   6.763   2.160  1.8927  0.2659  0.6895
 9190TIP3   OH249060   3.641   2.770  17.012  0.0517 -0.9655 -0.3984
 9190TIP3    H149061   3.549   2.775  17.039 -0.1978 -0.2041 -1.3200
 9190TIP3    H249062   3.666   2.862  16.999  1.9878 -0.8314  3.0873
 9191TIP3   OH249063   0.236   3.097  11.994  0.0309  0.5148  0.1657
 9191TIP3    H149064   0.287   3.023  11.959 -0.2914 -0.2501  1.2532
 9191TIP3    H249065   0.302   3.154  12.033  0.1316 -0.1887  1.0649
 9192TIP3   OH249066   4.521   2.786   1.269 -0.1053 -0.4360 -0.7478
 9192TIP3    H149067   4.518   2.834   1.186 -0.5013  2.0200  0.6115
 9192TIP3    H249068   4.429   2.773   1.292 -0.0471 -2.7082 -1.4621
 9193TIP3   OH249069   2.568   6.433   2.720 -0.1589 -0.0095 -0.0932
 9193TIP3    H149070   2.654   6.394   2.736  0.6709  2.0589  0.8070
 9193TIP3    H249071   2.585   6.526   2.709 -2.3156  0.4973  0.3564
 9194TIP3   OH249072   4.764   4.361  11.694  0.1861  0.2951  0.2811
 9194TIP3    H149073   4.716   4.375  11.775 -1.0696 -0.1615 -0.3543
 9194TIP3    H249074   4.856   4.368  11.719 -0.0802 -1.7630  2.1385
 9195TIP3   OH249075   0.796   5.012   3.333 -0.1377 -0.6488 -0.1596
 9195TIP3    H149076   0.730   5.079   3.350  1.5369  1.1468 -0.4782
 9195TIP3    H249077   0.877   5.046   3.372  0.9324 -2.1812 -0.9034
 9196TIP3   OH249078   4.880   3.075  16.434  0.0238  0.0864 -0.4485
 9196TIP3    H149079   4.910   2.985  16.422 -0.0427  0.3306 -2.8237
 9196TIP3    H249080   4.898   3.094  16.527 -1.6265 -2.9312  0.6312
 9197TIP3   OH249081   0.149   3.608   1.473  0.3002  0.4913 -0.5244
 9197TIP3    H149082   0.165   3.613   1.568  0.3841  2.0841 -0.5968
 9197TIP3    H249083   0.195   3.528   1.446 -0.1913 -0.3018  0.8499
 9198TIP3   OH249084   0.635   1.248  13.667  0.1834  0.2310  0.2354
 9198TIP3    H149085   0.633   1.335  13.706  0.4091 -0.0360  0.8529
 9198TIP3    H249086   0.678   1.260  13.583  0.0728  0.7386  0.2508
 9199TIP3   OH249087   3.199   4.872   4.207  0.1078 -0.1746  0.1345
 9199TIP3    H149088   3.253   4.950   4.205  0.8300 -0.6709 -0.0642
 9199TIP3    H249089   3.144   4.877   4.129  0.5995 -0.1734 -0.2146
 9200TIP3   OH249090   0.080   4.122  16.240  0.3593 -0.5256 -0.0106
 9200TIP3    H149091   0.065   4.072  16.160  2.2601 -1.0748 -0.0731
 9200TIP3    H249092   0.024   4.081  16.305 -0.6594 -0.5364 -0.8632
 9201TIP3   OH249093   2.518   4.693   2.895 -0.2074 -0.4698 -0.4939
 9201TIP3    H149094   2.482   4.717   2.981 -0.4034 -1.5557 -0.2628
 9201TIP3    H249095   2.568   4.613   2.911 -3.1352 -2.7644 -1.9795
 9202TIP3   OH249096   3.492   4.223  12.352  0.1546  0.2905  0.1640
 9202TIP3    H149097   3.523   4.284  12.286  0.5142 -0.8763 -0.7798
 9202TIP3    H249098   3.396   4.223  12.343  0.2585 -0.7773 -1.2315
 9203TIP3   OH249099   4.913   0.203   4.509  0.1622  0.3612  0.2950
 9203TIP3    H149100   4.877   0.212   4.421  0.4286  0.0524  0.1525
 9203TIP3    H249101   4.894   0.112   4.533 -2.7542  1.2093  1.8108
 9204TIP3   OH249102   1.047   0.714   4.348 -0.1247  0.7196  0.1926
 9204TIP3    H149103   1.087   0.792   4.387  1.8116 -0.2595  0.2716
 9204TIP3    H249104   1.091   0.640   4.390 -2.4607 -0.5077  0.7201
 9205TIP3   OH249105   1.209   6.682  11.238  0.1878  0.0002 -0.4124
 9205TIP3    H149106   1.247   6.688  11.150 -0.8141  2.0987 -0.7805
 9205TIP3    H249107   1.223   6.769  11.276 -0.2721 -0.5654  1.1334
 9206TIP3   OH249108   2.722   2.374   3.466 -0.3694  0.4575 -0.3714
 9206TIP3    H149109   2.644   2.359   3.519  0.8437  2.0027  2.0129
 9206TIP3    H249110   2.793   2.329   3.513  1.1989  3.8258  0.8425
 9207TIP3   OH249111   3.536   2.170  13.741  0.1860  0.6819  1.2252
 9207TIP3    H149112   3.581   2.201  13.819 -1.9026 -0.3026  2.9183
 9207TIP3    H249113   3.541   2.075  13.747  0.2677  0.5876 -0.0410
 9208TIP3   OH249114   1.379   5.144   2.086 -0.4327 -0.2176  0.1206
 9208TIP3    H149115   1.386   5.121   2.179 -0.0508  1.9561  0.6824
 9208TIP3    H249116   1.457   5.197   2.069  0.0099 -1.3841 -1.7221
 9209TIP3   OH249117   1.599   4.168   4.461  0.7833 -0.3945 -0.0041
 9209TIP3    H149118   1.644   4.095   4.502 -0.4393 -0.5203  1.1762
 9209TIP3    H249119   1.658   4.196   4.391  2.3654 -0.9650  1.0450
 9210TIP3   OH249120   4.757   0.395  14.476 -0.0919 -0.1103 -0.0636
 9210TIP3    H149121   4.674   0.349  14.462  0.5811 -0.7130 -2.4877
 9210TIP3    H249122   4.824   0.337  14.439  1.2172  1.1543  0.2137
 9211TIP3   OH249123   0.589   0.860  11.925 -0.4702  0.2202  0.1071
 9211TIP3    H149124   0.583   0.851  11.829 -4.0677 -0.0222  0.1999
 9211TIP3    H249125   0.589   0.770  11.957  1.1472  0.2941  0.3779
 9212TIP3   OH249126   2.078   2.878   0.623 -0.2535  0.0178 -0.0361
 9212TIP3    H149127   2.010   2.945   0.619 -0.4723 -0.0492  1.6197
 9212TIP3    H249128   2.159   2.926   0.638 -0.1329  0.0115 -0.6443
 9213TIP3   OH249129   0.703   3.045   5.385 -0.3310  0.0491  0.6686
 9213TIP3    H149130   0.770   2.982   5.359  1.0996  1.8408 -0.2703
 9213TIP3    H249131   0.642   3.047   5.312 -0.0597  0.1313  0.4388
 9214TIP3   OH249132   3.356   1.013  16.647 -0.0107 -0.3656  0.0953
 9214TIP3    H149133   3.429   1.053  16.600  0.3264 -0.8998  0.1448
 9214TIP3    H249134   3.290   1.082  16.655  0.5611  0.1727  0.1956
 9215TIP3   OH249135   6.649   2.198  16.663 -0.0986  0.0330  0.6918
 9215TIP3    H149136   6.620   2.237  16.745 -1.3336  0.0176  0.2762
 9215TIP3    H249137   6.620   2.259  16.595  1.9516  0.6544  0.3073
 9216TIP3   OH249138   3.739   3.658  14.074 -0.0354  0.0223 -0.2404
 9216TIP3    H149139   3.683   3.700  14.140 -0.0881 -0.5690  0.1015
 9216TIP3    H249140   3.823   3.645  14.118  0.4687  1.1446 -0.8359
 9217TIP3   OH249141   0.170   0.327  14.594 -0.6544  0.0874  0.2688
 9217TIP3    H149142   0.110   0.400  14.578  0.7356  1.9009  2.6269
 9217TIP3    H249143   0.116   0.262  14.640 -1.8195 -0.3155 -1.5470
 9218TIP3   OH249144   0.716   1.346   2.678  0.3734 -0.2849 -0.1186
 9218TIP3    H149145   0.643   1.286   2.697  0.6210 -0.7004 -0.4649
 9218TIP3    H249146   0.775   1.295   2.622  1.3865 -0.2632  0.9068
 9219TIP3   OH249147   6.044   3.300   0.666 -0.1039  0.3671  0.6240
 9219TIP3    H149148   6.024   3.223   0.718  0.8056 -0.3344 -0.0335
 9219TIP3    H249149   5.977   3.364   0.690 -1.1006 -0.7523  0.8848
 9220TIP3   OH249150   5.951   2.279   2.054 -0.8074 -0.1801 -0.0316
 9220TIP3    H149151   5.908   2.330   2.122 -1.8231 -0.4248 -0.4634
 9220TIP3    H249152   6.003   2.214   2.101  0.2882  1.0525  0.5189
 9221TIP3   OH249153   3.976   4.271  10.815 -0.2593 -0.6144 -0.3736
 9221TIP3    H149154   3.893   4.316  10.797 -0.0955  0.3040  0.9803
 9221TIP3    H249155   3.976   4.259  10.910  1.9180  0.9868 -0.1031
 9222TIP3   OH249156   4.642   6.639  16.363 -0.2945 -0.1239  0.1571
 9222TIP3    H149157   4.608   6.563  16.316  0.0295 -0.2874  0.1812
 9222TIP3    H249158   4.655   6.705  16.296 -0.2865 -0.1955  0.0882
 9223TIP3   OH249159   0.260   6.054  11.853 -0.0193  0.0009  0.4992
 9223TIP3    H149160   0.288   6.007  11.774  0.2083  0.3039  0.3970
 9223TIP3    H249161   0.217   5.988  11.906  1.1050 -0.5351  0.7681
 9224TIP3   OH249162   5.388   1.032   2.904  0.4489 -0.1222  0.5299
 9224TIP3    H149163   5.433   1.116   2.911  0.6424 -0.0860 -0.8804
 9224TIP3    H249164   5.397   0.993   2.991  0.8605  1.0518  1.0412
 9225TIP3   OH249165   2.124   2.351   6.186  0.1532  0.5625  0.0412
 9225TIP3    H149166   2.040   2.390   6.160  0.0180  0.9404  0.9948
 9225TIP3    H249167   2.164   2.417   6.242  0.2894 -0.3368  1.0381
 9226TIP3   OH249168   6.022   6.527  10.669 -0.1354 -0.1825 -0.1482
 9226TIP3    H149169   6.109   6.545  10.704  0.0395 -2.5480  0.7958
 9226TIP3    H249170   6.029   6.549  10.576  1.2840  0.2339  0.0345
 9227TIP3   OH249171   1.410   6.270  14.855 -0.0016  0.0247  0.0601
 9227TIP3    H149172   1.360   6.351  14.863  0.4123  0.2672  0.1836
 9227TIP3    H249173   1.474   6.273  14.925  0.8774  0.2063 -0.7301
 9228TIP3   OH249174   0.166   3.440   6.293  0.1404  0.0246 -0.2858
 9228TIP3    H149175   0.213   3.506   6.344 -0.2097 -0.7393  1.0835
 9228TIP3    H249176   0.212   3.358   6.312  0.6577 -0.1436 -2.0739
 9229TIP3   OH249177   2.369   0.175  16.383  0.5987  0.1135 -0.9103
 9229TIP3    H149178   2.396   0.215  16.466  2.0146 -0.1075 -1.2501
 9229TIP3    H249179   2.415   0.092  16.380 -1.4406 -1.0907 -0.7469
 9230TIP3   OH249180   4.077   5.364  13.395 -0.3344  0.0141  0.4759
 9230TIP3    H149181   4.121   5.428  13.338 -0.7814  1.4021  1.6336
 9230TIP3    H249182   4.059   5.289  13.337  0.6563  0.7064 -0.7981
 9231TIP3   OH249183   3.188   5.630   6.350 -0.3091 -0.0982  0.1138
 9231TIP3    H149184   3.128   5.702   6.367 -0.0455 -0.3697  2.5347
 9231TIP3    H249185   3.133   5.552   6.349 -0.1476 -0.2587  1.5373
 9232TIP3   OH249186   3.796   2.686   3.040  0.0548  0.0297  0.6209
 9232TIP3    H149187   3.839   2.614   3.087 -0.2008  0.3690  1.4057
 9232TIP3    H249188   3.772   2.748   3.110 -1.8945 -0.2399  0.2427
 9233TIP3   OH249189   5.086   3.379   2.719 -0.0417 -0.7371 -0.4333
 9233TIP3    H149190   5.041   3.459   2.694  0.8637  0.1232  0.6111
 9233TIP3    H249191   5.018   3.311   2.715 -0.8130  0.0737 -1.3129
 9234TIP3   OH249192   6.579   1.866   3.248 -0.4828  0.5414  0.4664
 9234TIP3    H149193   6.502   1.855   3.303  0.9018 -0.1715  2.4033
 9234TIP3    H249194   6.572   1.798   3.181 -1.6827  0.7227  0.3950
 9235TIP3   OH249195   5.625   6.731  16.339 -0.1128  0.2121  0.1100
 9235TIP3    H149196   5.546   6.682  16.314 -0.9319  0.9360  1.2000
 9235TIP3    H249197   5.694   6.693  16.284 -0.9443 -1.3372  0.0588
 9236TIP3   OH249198   2.931   2.600   3.303  0.2306 -0.5760 -0.3255
 9236TIP3    H149199   2.901   2.529   3.359 -0.2009 -0.6037 -0.5808
 9236TIP3    H249200   3.016   2.572   3.271  0.5232 -0.5186  0.3875
 9237TIP3   OH249201   6.442   2.687  16.831 -0.0149 -0.3546 -0.3203
 9237TIP3    H149202   6.507   2.730  16.775  0.3675 -0.2777  0.1774
 9237TIP3    H249203   6.378   2.756  16.851  1.3638  0.4335  1.6717
 9238TIP3   OH249204   1.798   0.430   4.846  0.0437  0.6373 -0.0827
 9238TIP3    H149205   1.792   0.382   4.763  1.5976 -0.2269  0.2751
 9238TIP3    H249206   1.774   0.520   4.823  0.2125  0.3639 -1.4216
 9239TIP3   OH249207   4.979   3.458  15.870  0.6366 -0.5914 -0.2290
 9239TIP3    H149208   4.947   3.388  15.813  0.8432 -1.5396  0.7907
 9239TIP3    H249209   5.001   3.414  15.952  1.3630  0.5757  0.2245
 9240TIP3   OH249210   2.945   3.338   4.937  0.1776  0.3820  0.1986
 9240TIP3    H149211   2.963   3.318   5.029  0.5668 -0.9825 -0.1471
 9240TIP3    H249212   2.886   3.412   4.940 -0.2426  0.0251  1.5745
 9241TIP3   OH249213   1.812   4.977  16.921 -0.2841 -0.3279 -0.2264
 9241TIP3    H149214   1.860   4.959  16.840  0.9141 -0.7315  0.5438
 9241TIP3    H249215   1.871   5.032  16.972  0.3131 -2.5056  1.6164
 9242TIP3   OH249216   0.115   1.549  14.213 -0.0501  0.2391  0.0825
 9242TIP3    H149217   0.075   1.486  14.273  0.2479  0.6390  0.7072
 9242TIP3    H249218   0.179   1.596  14.267  1.8624 -0.9261 -1.0592
 9243TIP3   OH249219   3.506   2.633   1.471  0.0740 -0.1138  0.2885
 9243TIP3    H149220   3.488   2.711   1.524 -1.9757 -0.3037 -0.0644
 9243TIP3    H249221   3.440   2.570   1.498  1.7641 -1.8307  0.6415
 9244TIP3   OH249222   2.989   6.006   2.058  0.0335 -0.2684 -0.1200
 9244TIP3    H149223   2.923   6.049   2.003 -0.2286  0.4052  0.7054
 9244TIP3    H249224   3.032   6.078   2.104  0.3207 -0.8168  0.4787
 9245TIP3   OH249225   3.806   3.805  10.662  0.4919  0.3357 -0.4677
 9245TIP3    H149226   3.862   3.878  10.689  0.3749  1.3238 -2.6922
 9245TIP3    H249227   3.864   3.729  10.664  0.2947  0.1105  3.1514
 9246TIP3   OH249228   5.844   3.748  14.161 -0.6569  0.2931 -0.2019
 9246TIP3    H149229   5.866   3.840  14.153 -1.5294  0.5527  0.2403
 9246TIP3    H249230   5.807   3.739  14.249  0.7146 -0.7709  0.2955
 9247TIP3   OH249231   1.406   2.698  14.028  0.1001 -0.1414  0.9267
 9247TIP3    H149232   1.312   2.691  14.015  0.0886  1.2065  0.1631
 9247TIP3    H249233   1.435   2.760  13.961  1.5444 -0.5900  1.1055
 9248TIP3   OH249234   1.992   3.920  16.970 -0.4678 -0.0482 -0.3974
 9248TIP3    H149235   1.962   3.848  17.026 -1.0806  1.1078  0.8224
 9248TIP3    H249236   1.921   3.983  16.973 -0.6807 -0.0868 -2.8392
 9249TIP3   OH249237   3.966   5.572  14.562 -0.3209 -0.0908 -0.1173
 9249TIP3    H149238   3.901   5.639  14.545  0.9200  1.2727  0.2806
 9249TIP3    H249239   4.008   5.599  14.644  0.2204 -1.3445  0.0476
 9250TIP3   OH249240   3.430   0.183  14.002 -0.1153  0.1172 -0.0126
 9250TIP3    H149241   3.388   0.146  14.079 -1.4279 -2.4101 -1.8004
 9250TIP3    H249242   3.508   0.129  13.988  0.9334  1.4873  0.3170
 9251TIP3   OH249243   1.830   1.733   3.155  0.2351  0.4488  0.0864
 9251TIP3    H149244   1.826   1.771   3.243  0.3333 -0.2048  0.3833
 9251TIP3    H249245   1.754   1.770   3.109 -2.0069 -1.9061  1.5890
 9252TIP3   OH249246   3.084   5.545   4.930 -0.0077 -0.0061 -0.1386
 9252TIP3    H149247   3.090   5.452   4.906 -1.0817 -0.2503  0.5006
 9252TIP3    H249248   2.991   5.561   4.940  0.0241  1.5411 -1.7170
 9253TIP3   OH249249   2.450   6.605   2.013 -0.2411 -0.5195 -0.4929
 9253TIP3    H149250   2.525   6.548   2.029 -0.0595 -0.2429 -0.3361
 9253TIP3    H249251   2.438   6.652   2.096  0.6747  0.9027 -1.1303
 9254TIP3   OH249252   5.307   1.357   4.393  0.2024  0.4845  0.2637
 9254TIP3    H149253   5.320   1.329   4.302  0.7522 -1.7483  0.9725
 9254TIP3    H249254   5.241   1.426   4.387 -0.8221 -0.5710 -1.7084
 9255TIP3   OH249255   3.692   4.925  12.095  0.3478  0.5112 -0.3066
 9255TIP3    H149256   3.631   4.862  12.056  0.7087  0.7507 -1.2686
 9255TIP3    H249257   3.757   4.870  12.139 -1.8018  0.2007  2.9126
 9256TIP3   OH249258   5.502   1.490   2.840 -0.1882 -0.2896 -0.2679
 9256TIP3    H149259   5.593   1.462   2.848 -0.1636 -0.1366 -0.0130
 9256TIP3    H249260   5.488   1.547   2.915  0.1835  1.5612 -1.5449
 9257TIP3   OH249261   0.387   5.050   2.059 -0.0112 -0.1773  0.1440
 9257TIP3    H149262   0.409   5.098   1.979 -0.8598 -1.1698 -0.7021
 9257TIP3    H249263   0.343   5.114   2.114 -0.0507  0.3329 -0.4743
 9258TIP3   OH249264   2.963   1.708  11.182 -0.0494  0.2417  0.2665
 9258TIP3    H149265   2.891   1.765  11.210 -1.5221 -1.0289 -0.8217
 9258TIP3    H249266   3.041   1.762  11.195 -1.0453  1.3334  2.4018
 9259TIP3   OH249267   3.237   4.413   1.965 -0.1923 -0.1054 -0.1200
 9259TIP3    H149268   3.244   4.336   1.908 -1.7664  0.1407 -0.7144
 9259TIP3    H249269   3.260   4.380   2.052  2.2131 -0.4959 -0.8399
 9260TIP3   OH249270   0.602   1.193   3.375  0.7688 -0.2738  0.0295
 9260TIP3    H149271   0.673   1.192   3.439  1.5522  0.2168 -0.8038
 9260TIP3    H249272   0.526   1.228   3.423  1.2411 -0.2454  0.7713
 9261TIP3   OH249273   0.878   6.836   2.930  0.0788  0.2482 -0.4462
 9261TIP3    H149274   0.897   6.930   2.937 -1.3015  0.5984 -1.0352
 9261TIP3    H249275   0.953   6.793   2.971 -0.2104  1.6663  1.7554
 9262TIP3   OH249276   3.090   0.427  11.742 -0.1407 -0.2078  0.5858
 9262TIP3    H149277   3.071   0.333  11.747  0.5703 -0.3277  1.3366
 9262TIP3    H249278   3.031   0.460  11.675  0.6559 -1.4559 -0.7898
 9263TIP3   OH249279   4.221   4.452  11.985 -0.3251  0.7604 -0.0018
 9263TIP3    H149280   4.181   4.403  12.056 -0.1676  0.5700 -0.0418
 9263TIP3    H249281   4.281   4.389  11.944 -1.3598  0.4565 -1.1120
 9264TIP3   OH249282   0.661   6.496  11.582  0.0199 -0.1504 -0.2643
 9264TIP3    H149283   0.678   6.462  11.669 -0.4369  0.5485  0.1081
 9264TIP3    H249284   0.576   6.459  11.558  0.3648 -0.7257 -0.6157
 9265TIP3   OH249285   0.252   0.717  14.610  0.6623  0.3032 -0.3399
 9265TIP3    H149286   0.260   0.644  14.549  1.5329 -0.2462  0.4079
 9265TIP3    H249287   0.165   0.754  14.592 -0.0912 -1.3503 -0.2632
 9266TIP3   OH249288   4.430   1.939  16.910 -0.4020 -0.5147  0.1997
 9266TIP3    H149289   4.411   1.980  16.826 -4.5743 -0.8342  0.7877
 9266TIP3    H249290   4.466   1.853  16.887 -0.4358 -0.1665 -1.2202
 9267TIP3   OH249291   0.124   2.787  14.681 -0.4618  0.1301  0.1440
 9267TIP3    H149292   0.152   2.782  14.773 -1.7219  2.1755  0.7199
 9267TIP3    H249293   0.060   2.717  14.671 -0.9215  0.3923  1.1054
 9268TIP3   OH249294   5.439   3.660   2.893  0.0864 -0.4173 -0.1179
 9268TIP3    H149295   5.396   3.743   2.917  0.9225  0.3977 -1.3264
 9268TIP3    H249296   5.369   3.607   2.856 -0.1177  0.5135 -1.1264
 9269TIP3   OH249297   6.385   6.744   1.009 -0.6912  0.1595  0.4045
 9269TIP3    H149298   6.374   6.835   0.979 -0.7196  0.2862  0.7855
 9269TIP3    H249299   6.442   6.752   1.086 -0.6301 -0.1561  0.3922
 9270TIP3   OH249300   6.194   5.287  12.662 -0.2941 -0.3965 -0.1873
 9270TIP3    H149301   6.260   5.243  12.716  0.3115 -2.3432 -2.3868
 9270TIP3    H249302   6.116   5.290  12.718  0.2319 -2.4743  0.7698
 9271TIP3   OH249303   6.615   1.082   3.412  0.5220  0.9357 -0.2660
 9271TIP3    H149304   6.703   1.080   3.374  0.5835  0.7860 -0.1216
 9271TIP3    H249305   6.625   1.132   3.493  0.8892 -0.6328  0.7232
 9272TIP3   OH249306   6.815   1.526  13.845  0.2670  0.3526 -0.5628
 9272TIP3    H149307   6.822   1.608  13.894 -1.7088  0.1497  0.1328
 9272TIP3    H249308   6.862   1.544  13.763  0.8373  1.7769  0.0361
 9273TIP3   OH249309   2.625   0.375  13.983  0.6262  0.5417  0.1528
 9273TIP3    H149310   2.700   0.316  13.986 -1.5519 -2.7037 -2.2562
 9273TIP3    H249311   2.567   0.343  14.052  0.9646  2.4537  1.3994
 9274TIP3   OH249312   0.332   5.508   0.779 -0.1830  0.2138  0.3793
 9274TIP3    H149313   0.411   5.511   0.726 -1.2747  0.8026 -1.3092
 9274TIP3    H249314   0.265   5.550   0.725 -1.3176  1.0768  2.3460
 9275TIP3   OH249315   5.330   0.995  14.468  0.1480  0.1064 -0.1833
 9275TIP3    H149316   5.358   0.941  14.394  1.2254 -0.8661  0.8891
 9275TIP3    H249317   5.307   0.931  14.536 -1.7943  0.9486  0.0191
 9276TIP3   OH249318   4.121   2.628   2.286  0.0637  0.1360  0.1372
 9276TIP3    H149319   4.076   2.711   2.270 -0.6431 -0.3602 -0.5767
 9276TIP3    H249320   4.064   2.582   2.347  1.2382  0.7820  1.7964
 9277TIP3   OH249321   5.185   1.824  11.818 -0.1595 -0.2228  0.3058
 9277TIP3    H149322   5.208   1.807  11.726 -1.0832  1.9399 -0.3838
 9277TIP3    H249323   5.255   1.782  11.868 -0.6189 -3.1231 -1.2544
 9278TIP3   OH249324   5.193   5.438  14.512  0.2513 -0.2827  0.7470
 9278TIP3    H149325   5.273   5.463  14.467 -0.5720 -1.2591 -1.4035
 9278TIP3    H249326   5.165   5.358  14.468 -1.3440 -0.5728  2.1654
 9279TIP3   OH249327   5.621   2.471  16.326 -0.5387 -0.5546 -0.3434
 9279TIP3    H149328   5.589   2.397  16.378  2.3767 -1.1429  0.8017
 9279TIP3    H249329   5.653   2.432  16.245 -0.0607 -0.4022 -0.2311
 9280TIP3   OH249330   5.300   0.089   6.175 -0.0283 -0.0459  0.1744
 9280TIP3    H149331   5.388   0.060   6.200  0.7668 -0.3854 -2.7102
 9280TIP3    H249332   5.308   0.184   6.167 -0.6460  0.2408  2.2617
 9281TIP3   OH249333   2.411   1.569  14.237 -0.0931  0.0232  0.5959
 9281TIP3    H149334   2.364   1.562  14.154 -1.1329  1.2453  1.0323
 9281TIP3    H249335   2.431   1.479  14.262 -0.5180 -0.4037 -0.5631
 9282TIP3   OH249336   3.761   5.459   2.622  0.0326 -0.2111  0.3342
 9282TIP3    H149337   3.713   5.392   2.574  0.7410 -0.1175 -0.5190
 9282TIP3    H249338   3.820   5.498   2.557 -1.4001  2.2684  0.3979
 9283TIP3   OH249339   2.803   2.230   0.074 -0.2655 -0.3007  0.1246
 9283TIP3    H149340   2.715   2.216   0.041  0.6753 -0.6148 -2.4388
 9283TIP3    H249341   2.823   2.149   0.123 -0.8860 -0.8313 -0.4780
 9284TIP3   OH249342   3.342   1.860  10.465  0.6673  0.1671 -0.9698
 9284TIP3    H149343   3.396   1.786  10.436 -0.8823 -0.9557 -1.1528
 9284TIP3    H249344   3.260   1.849  10.417 -1.1235 -0.3868  1.9944
 9285TIP3   OH249345   4.179   6.642   4.598  0.0948 -0.4371  0.9907
 9285TIP3    H149346   4.195   6.554   4.564  2.1809  0.5228 -0.7473
 9285TIP3    H249347   4.100   6.633   4.651 -0.9173 -2.9435 -0.7307
 9286TIP3   OH249348   0.881   2.436   3.013 -0.0904  0.0578  0.1293
 9286TIP3    H149349   0.800   2.468   2.973  1.0587  2.8943 -0.1884
 9286TIP3    H249350   0.890   2.488   3.093  1.9917  0.7614 -0.4933
 9287TIP3   OH249351   6.459   0.412   1.434  0.1910  0.4948 -0.4818
 9287TIP3    H149352   6.375   0.437   1.396 -0.7176 -1.5450  0.0053
 9287TIP3    H249353   6.447   0.423   1.528  1.0655  1.7481 -0.4964
 9288TIP3   OH249354   0.002   0.937   3.969  0.4899 -0.7629  0.2037
 9288TIP3    H149355  -0.022   0.846   3.982 -1.9972 -0.3968 -1.3169
 9288TIP3    H249356   0.042   0.939   3.882  0.2010 -0.3328  0.0810
 9289TIP3   OH249357   5.125   2.152   2.887  0.1411  0.1723  0.1118
 9289TIP3    H149358   5.211   2.109   2.888 -0.8388 -1.9289 -0.8282
 9289TIP3    H249359   5.103   2.164   2.980  0.3066 -1.7526  0.4397
 9290TIP3   OH249360   4.326   3.525   1.807 -0.3263 -0.2690  0.1924
 9290TIP3    H149361   4.270   3.530   1.885  0.1715 -3.6506  0.9470
 9290TIP3    H249362   4.277   3.572   1.740 -2.0628  0.4791  1.8668
 9291TIP3   OH249363   3.575   3.531  15.356  0.3666  0.5408 -0.5529
 9291TIP3    H149364   3.511   3.462  15.371  0.3942  0.3951 -1.1078
 9291TIP3    H249365   3.523   3.611  15.348  0.3403  0.6048  0.1669
 9292TIP3   OH249366   2.759   4.869  12.418  0.2241  0.1678 -0.0401
 9292TIP3    H149367   2.730   4.870  12.509 -2.2524 -2.1159 -0.6859
 9292TIP3    H249368   2.738   4.957  12.386  1.1973  1.0364  1.5366
 9293TIP3   OH249369   0.586   3.541   0.805  0.4687  0.8398 -0.2552
 9293TIP3    H149370   0.524   3.612   0.791  0.3769  0.5145 -1.6685
 9293TIP3    H249371   0.583   3.490   0.724  1.0472 -0.3756  0.4614
 9294TIP3   OH249372   5.573   4.377   3.694 -0.4355 -0.0493 -0.2853
 9294TIP3    H149373   5.538   4.341   3.775  0.0238 -0.2673 -0.1786
 9294TIP3    H249374   5.513   4.447   3.670 -0.9139 -0.3927 -0.0868
 9295TIP3   OH249375   4.483   2.185   2.993 -0.1705 -0.0391  0.6353
 9295TIP3    H149376   4.449   2.273   3.010  0.9157  0.3347  1.0018
 9295TIP3    H249377   4.504   2.151   3.080  1.2922  0.1460  0.3868
 9296TIP3   OH249378   1.371   0.040  15.791 -0.3629  0.0204 -0.2389
 9296TIP3    H149379   1.363  -0.046  15.832 -1.2058  0.9977  1.7382
 9296TIP3    H249380   1.346   0.025  15.700  0.4021 -1.9849 -0.1735
 9297TIP3   OH249381   5.529   6.707   4.509 -0.4365  0.3497 -0.3986
 9297TIP3    H149382   5.516   6.696   4.603 -0.3923  0.0116 -0.4302
 9297TIP3    H249383   5.462   6.770   4.482 -0.5915  0.2772 -0.1809
 9298TIP3   OH249384   3.492   4.364   4.415 -0.0176 -0.1181 -0.7004
 9298TIP3    H149385   3.453   4.450   4.402  1.7121  0.9557  0.6914
 9298TIP3    H249386   3.574   4.367   4.365 -0.5493 -1.4742 -1.7147
 9299TIP3   OH249387   3.167   6.445   4.573 -0.5572 -0.5871 -0.0849
 9299TIP3    H149388   3.159   6.365   4.521 -1.0602 -1.1423  0.8121
 9299TIP3    H249389   3.079   6.459   4.608 -0.2778 -0.1131  0.4356
 9300TIP3   OH249390   3.827   3.270   1.506  0.0274  0.5567  0.7970
 9300TIP3    H149391   3.899   3.213   1.476 -1.0228  0.3390 -1.5038
 9300TIP3    H249392   3.862   3.313   1.584  1.0630 -2.8439  2.4223
 9301TIP3   OH249393   1.692   6.243   3.021  0.5572 -0.0524 -0.5990
 9301TIP3    H149394   1.720   6.229   3.112  1.6557 -1.1217 -1.0785
 9301TIP3    H249395   1.611   6.293   3.029  0.2878 -0.6660  1.0079
 9302TIP3   OH249396   3.132   2.944  14.183 -0.3219 -0.0513  0.5558
 9302TIP3    H149397   3.044   2.910  14.164  0.5459 -0.4935 -3.6271
 9302TIP3    H249398   3.136   3.026  14.135  1.5011  0.0776  0.8898
 9303TIP3   OH249399   5.340   1.492  13.557 -0.0667  0.3281 -0.3754
 9303TIP3    H149400   5.334   1.580  13.594  3.2829  0.5202  0.0464
 9303TIP3    H249401   5.430   1.485  13.526 -0.8179 -2.2488 -2.3599
 9304TIP3   OH249402   3.604   6.510  13.566  0.0271  0.1529 -0.4062
 9304TIP3    H149403   3.692   6.492  13.534  0.5643  2.3481 -0.3672
 9304TIP3    H249404   3.612   6.510  13.662  0.5513  2.4564 -0.3908
 9305TIP3   OH249405   5.056   0.228   1.663 -0.0644  0.8790 -0.5677
 9305TIP3    H149406   4.980   0.208   1.607 -1.2081 -0.7095  1.4315
 9305TIP3    H249407   5.099   0.144   1.676  1.9944  1.7287 -1.4967
 9306TIP3   OH249408   6.753   3.584   1.641 -0.1694 -0.2766  0.2081
 9306TIP3    H149409   6.665   3.555   1.667 -0.5166  0.6965  0.1665
 9306TIP3    H249410   6.780   3.520   1.576 -0.9405 -0.4796  0.0688
 9307TIP3   OH249411   4.037   1.794   5.803 -0.0459 -0.2535  0.0781
 9307TIP3    H149412   4.072   1.882   5.818 -0.5222 -0.1967  0.9370
 9307TIP3    H249413   3.966   1.805   5.741  0.4080 -0.1486 -0.4295
 9308TIP3   OH249414   3.180   3.083  14.922  0.0405 -0.9103  0.1251
 9308TIP3    H149415   3.175   3.069  14.827 -2.5336 -0.5059  0.1248
 9308TIP3    H249416   3.141   3.004  14.960 -0.0106 -0.5754  0.7818
 9309TIP3   OH249417   0.778   2.380   4.862 -1.1291 -0.1582  0.1512
 9309TIP3    H149418   0.782   2.383   4.958 -1.4768 -0.2961  0.1699
 9309TIP3    H249419   0.848   2.319   4.838 -0.8554  0.0885  0.2990
 9310TIP3   OH249420   1.689   1.605   4.784 -0.3779  0.2279  0.1140
 9310TIP3    H149421   1.704   1.682   4.839 -0.1271  0.6660 -0.5565
 9310TIP3    H249422   1.747   1.617   4.709  0.0165 -0.8561  0.2261
 9311TIP3   OH249423   1.487   0.521  10.809  0.5533  0.3380  0.0589
 9311TIP3    H149424   1.401   0.558  10.785  0.2445  0.3522  1.1491
 9311TIP3    H249425   1.515   0.474  10.730  0.5705  2.1700 -1.0847
 9312TIP3   OH249426   4.683   6.549   0.595  0.1939 -0.1176 -0.4780
 9312TIP3    H149427   4.702   6.498   0.516  0.2353  1.0180 -1.2299
 9312TIP3    H249428   4.731   6.506   0.665 -0.0203 -1.2733 -1.0291
 9313TIP3   OH249429   1.321   5.239  15.989 -0.3273 -0.2268 -0.2833
 9313TIP3    H149430   1.273   5.259  16.069 -1.6524  0.5963 -1.2472
 9313TIP3    H249431   1.288   5.154  15.961 -0.8456  0.0895 -0.6524
 9314TIP3   OH249432   2.038   3.272   4.557  0.0557 -0.1518 -0.5423
 9314TIP3    H149433   1.967   3.217   4.588  0.1273 -0.3383 -0.7090
 9314TIP3    H249434   2.033   3.351   4.611  0.4805 -0.6720  0.2720
 9315TIP3   OH249435   4.339   5.972  15.358  0.0889 -0.0246 -0.7245
 9315TIP3    H149436   4.348   6.066  15.373  4.4420 -0.4775  0.9175
 9315TIP3    H249437   4.291   5.939  15.434  0.7892  0.5848 -0.0127
 9316TIP3   OH249438   3.066   3.202   4.730  0.5608 -0.0060  0.2580
 9316TIP3    H149439   3.005   3.234   4.663 -1.9272 -1.5904  1.6086
 9316TIP3    H249440   3.054   3.261   4.804  0.2415 -0.6442  0.7231
 9317TIP3   OH249441   4.270   5.354  11.173 -0.1905 -0.1195 -0.4313
 9317TIP3    H149442   4.295   5.361  11.082 -0.6210  1.8905 -0.4365
 9317TIP3    H249443   4.314   5.275  11.205  1.6024  0.2717 -1.8318
 9318TIP3   OH249444   0.387   0.042  16.785 -0.9765  0.0614 -0.5931
 9318TIP3    H149445   0.338  -0.032  16.749 -3.2612  1.6249 -0.8593
 9318TIP3    H249446   0.382   0.110  16.717  0.9538  0.5540 -0.3039
 9319TIP3   OH249447   1.875   1.343   2.245 -0.1734  0.7349  0.4405
 9319TIP3    H149448   1.799   1.360   2.300 -1.5533 -1.2832 -0.7264
 9319TIP3    H249449   1.923   1.274   2.290 -0.8843 -0.3691 -0.4475
 9320TIP3   OH249450   0.644   2.580   0.723 -0.2664 -0.3799  0.2649
 9320TIP3    H149451   0.683   2.627   0.796 -0.0803 -0.3838  0.1704
 9320TIP3    H249452   0.635   2.646   0.654 -3.5289  0.4812  1.3463
 9321TIP3   OH249453   0.374   0.436   2.892 -0.4707 -0.1970 -0.3470
 9321TIP3    H149454   0.344   0.434   2.801 -0.4534 -0.8425 -0.3441
 9321TIP3    H249455   0.447   0.497   2.892 -1.8483  1.5343 -0.3233
 9322TIP3   OH249456   1.723   1.863  12.596 -0.1138  0.4021 -0.6570
 9322TIP3    H149457   1.768   1.905  12.524 -1.7653  0.2371 -1.8546
 9322TIP3    H249458   1.635   1.844  12.562 -1.0341  0.5256  1.4695
 9323TIP3   OH249459   2.591   5.956   2.634  0.4767 -0.6157 -0.3921
 9323TIP3    H149460   2.595   5.972   2.539  3.4972  1.1845 -0.1182
 9323TIP3    H249461   2.563   6.040   2.671  1.6749 -0.5182  0.3681
 9324TIP3   OH249462   0.226   0.142  13.060  0.2628 -0.5101  0.1630
 9324TIP3    H149463   0.158   0.209  13.064  0.7782  0.1439 -1.1143
 9324TIP3    H249464   0.179   0.059  13.068 -0.3533 -0.0147  2.1100
 9325TIP3   OH249465   2.039   0.715   4.724  0.4218 -0.1165 -0.2250
 9325TIP3    H149466   2.071   0.633   4.686 -1.3143 -1.1183  0.4026
 9325TIP3    H249467   2.101   0.781   4.692  1.3379 -1.5167 -1.4876
 9326TIP3   OH249468   1.412   5.754   4.108  0.3049 -0.1375  0.8870
 9326TIP3    H149469   1.427   5.848   4.106 -0.3328 -0.0266  1.0752
 9326TIP3    H249470   1.449   5.722   4.026 -1.3396  0.5630 -0.1733
 9327TIP3   OH249471   3.602   3.548  14.759  0.2527  0.0636  0.4743
 9327TIP3    H149472   3.532   3.535  14.823  0.3874  0.7926  0.7777
 9327TIP3    H249473   3.577   3.627  14.712 -1.1426 -1.7598 -2.1136
 9328TIP3   OH249474   4.233   5.448  12.622 -0.1247  0.5058  0.0081
 9328TIP3    H149475   4.144   5.448  12.656 -1.0979 -1.7961 -2.1534
 9328TIP3    H249476   4.231   5.511  12.550 -0.3288 -0.1711 -0.6035
 9329TIP3   OH249477   4.367   3.115  13.956 -0.1937  0.6516 -0.3399
 9329TIP3    H149478   4.296   3.108  14.019 -0.1344  1.8920 -0.1119
 9329TIP3    H249479   4.383   3.209  13.948  1.8655  0.3909  0.1289
 9330TIP3   OH249480   5.835   4.793   5.569  0.2548 -0.3568  0.0491
 9330TIP3    H149481   5.915   4.830   5.531 -0.2906 -0.9567 -1.7880
 9330TIP3    H249482   5.775   4.867   5.576  0.3873 -0.2226 -0.2046
 9331TIP3   OH249483   3.602   3.649   1.917  0.2263 -0.4337  0.1670
 9331TIP3    H149484   3.516   3.689   1.928 -0.4799 -1.6640 -0.6452
 9331TIP3    H249485   3.589   3.557   1.940  0.9887 -0.9189 -1.2114
 9332TIP3   OH249486   1.333   4.209  10.963  0.3452 -0.5842 -0.2843
 9332TIP3    H149487   1.398   4.167  10.907  0.6212 -0.2610 -0.2102
 9332TIP3    H249488   1.294   4.138  11.014  0.6577 -0.7726 -0.3100
 9333TIP3   OH249489   4.317   6.149   5.661  0.0069 -0.5133  0.4042
 9333TIP3    H149490   4.292   6.079   5.601 -1.2286  0.4561 -0.2589
 9333TIP3    H249491   4.245   6.153   5.725 -0.4817  0.8214 -0.1866
 9334TIP3   OH249492   5.767   3.156   2.920 -0.4709 -0.1915 -0.5224
 9334TIP3    H149493   5.825   3.223   2.883 -1.5811 -0.4428 -2.9176
 9334TIP3    H249494   5.681   3.198   2.923 -0.4486 -0.1998  1.9008
 9335TIP3   OH249495   1.669   6.287   3.893 -0.3140 -0.2016 -0.4551
 9335TIP3    H149496   1.627   6.274   3.978 -0.2327  2.9714  0.1628
 9335TIP3    H249497   1.744   6.344   3.911  0.4937 -0.5103 -2.4993
 9336TIP3   OH249498   2.639   0.617   4.838 -1.0519  0.3510  0.3033
 9336TIP3    H149499   2.584   0.674   4.891 -1.5724 -0.4554  0.6429
 9336TIP3    H249500   2.584   0.592   4.764 -0.0650  2.1584 -1.1455
 9337TIP3   OH249501   6.585   3.149  12.738 -0.5749 -0.2128  0.3980
 9337TIP3    H149502   6.605   3.213  12.806 -2.1036  0.2423  0.4506
 9337TIP3    H249503   6.540   3.078  12.783  0.0014 -0.7475  0.1396
 9338TIP3   OH249504   1.365   5.734  11.687 -0.0586  0.2530  0.2732
 9338TIP3    H149505   1.342   5.805  11.626  2.1391 -0.5292 -1.6246
 9338TIP3    H249506   1.461   5.735  11.689 -0.0159  0.1856  3.7865
 9339TIP3   OH249507   4.363   4.740  16.640  0.1500  0.5678  0.1561
 9339TIP3    H149508   4.332   4.805  16.704  0.2034  0.0646  0.7076
 9339TIP3    H249509   4.435   4.695  16.685 -0.1379 -0.1313 -0.0700
 9340TIP3   OH249510   4.640   4.689   3.009 -0.4823  0.1465 -0.5622
 9340TIP3    H149511   4.567   4.629   3.000 -0.4084  0.0648 -0.6203
 9340TIP3    H249512   4.634   4.746   2.932 -0.2614 -0.1035 -0.7664
 9341TIP3   OH249513   2.236   0.517   5.979 -0.8254  0.1410 -0.1602
 9341TIP3    H149514   2.266   0.602   6.012  1.3795 -1.1442  1.4341
 9341TIP3    H249515   2.309   0.486   5.925 -1.0621 -1.2725  0.3034
 9342TIP3   OH249516   1.963   0.373  16.853  0.1376 -0.0640  0.2845
 9342TIP3    H149517   1.932   0.333  16.934  0.0855 -0.3129  0.1423
 9342TIP3    H249518   1.962   0.467  16.870 -1.0258 -0.0445  0.1688
 9343TIP3   OH249519   0.153   6.816   0.693  0.0422  0.9945  0.5514
 9343TIP3    H149520   0.093   6.829   0.620  0.9522  1.2312 -0.1663
 9343TIP3    H249521   0.104   6.762   0.755 -0.4869  0.1807 -0.5430
 9344TIP3   OH249522   6.177   2.092  13.730 -0.6354  0.5129  0.3044
 9344TIP3    H149523   6.103   2.114  13.786 -1.4857 -0.3357 -0.4281
 9344TIP3    H249524   6.153   2.007  13.692  0.0638  0.9011 -1.0606
 9345TIP3   OH249525   0.443   0.244  13.855  1.3517  0.0138 -0.2734
 9345TIP3    H149526   0.472   0.161  13.818 -0.2053 -0.5236 -0.3743
 9345TIP3    H249527   0.523   0.287  13.883  2.2939 -1.0129 -1.2690
 9346TIP3   OH249528   1.485   1.594   3.908 -0.3102 -0.6377 -0.5305
 9346TIP3    H149529   1.439   1.644   3.975 -1.4913 -1.0875 -0.9769
 9346TIP3    H249530   1.453   1.504   3.919  0.5179 -0.9781 -0.8132
 9347TIP3   OH249531   4.183   4.469  13.481  0.8335  0.8528  0.4946
 9347TIP3    H149532   4.256   4.504  13.533  2.0899  0.7938 -1.1622
 9347TIP3    H249533   4.218   4.461  13.393 -0.5435 -1.1862  0.0699
 9348TIP3   OH249534   2.831   1.780   0.729 -0.1146 -0.1203  0.4199
 9348TIP3    H149535   2.921   1.776   0.761 -0.4544  0.4480  1.5288
 9348TIP3    H249536   2.814   1.692   0.695  1.1180  0.0093 -0.5879
 9349TIP3   OH249537   4.099   1.788   3.456  0.1891  0.1235  0.4926
 9349TIP3    H149538   4.035   1.717   3.446  0.7775 -0.6623  2.0134
 9349TIP3    H249539   4.091   1.838   3.375 -0.5870 -1.3917 -0.4217
 9350TIP3   OH249540   4.712   3.754   2.767  0.5066 -0.0638  0.1744
 9350TIP3    H149541   4.736   3.662   2.777 -0.4604 -0.2858  0.5728
 9350TIP3    H249542   4.740   3.776   2.678 -1.4462 -1.4816 -0.8854
 9351TIP3   OH249543   4.548   1.756   1.423  0.1791  0.2483 -0.1038
 9351TIP3    H149544   4.528   1.734   1.513  1.5729  2.9287  0.9975
 9351TIP3    H249545   4.641   1.736   1.413  0.2389  0.7585 -0.6521
 9352TIP3   OH249546   2.665   1.672   4.336 -0.9948 -0.0117 -0.0379
 9352TIP3    H149547   2.706   1.730   4.400 -1.7016  0.4128  0.0446
 9352TIP3    H249548   2.604   1.619   4.387  0.8967 -2.1184  0.1865
 9353TIP3   OH249549   3.874   2.417   0.269 -0.2787 -0.0771  0.0376
 9353TIP3    H149550   3.798   2.449   0.318 -1.1359 -2.0495  0.0972
 9353TIP3    H249551   3.944   2.479   0.290 -1.4490  0.9009  1.2533
 9354TIP3   OH249552   0.336   5.919  13.188  0.3164  0.0429  0.2690
 9354TIP3    H149553   0.282   5.846  13.218  1.8438 -1.2879 -0.1147
 9354TIP3    H249554   0.282   5.962  13.122 -0.7586 -0.4931  0.7668
 9355TIP3   OH249555   0.085   5.713   1.576  0.1832 -0.2489  0.3219
 9355TIP3    H149556   0.156   5.757   1.531 -1.2945  1.2003 -0.7260
 9355TIP3    H249557   0.043   5.782   1.628 -1.6894 -0.5314 -0.7177
 9356TIP3   OH249558   6.535   5.010  11.287 -0.1098 -0.2701  0.0590
 9356TIP3    H149559   6.551   4.923  11.325 -2.7078 -2.2406 -2.8668
 9356TIP3    H249560   6.598   5.016  11.215  0.1998  0.3973  0.3822
 9357TIP3   OH249561   2.484   5.345   0.427 -0.2905 -0.2895 -0.6787
 9357TIP3    H149562   2.493   5.329   0.521 -4.2094  0.8584  0.0813
 9357TIP3    H249563   2.506   5.261   0.386 -0.0469 -1.2970  1.3710
 9358TIP3   OH249564   0.814   1.161  14.630 -0.3875  0.1738 -0.8788
 9358TIP3    H149565   0.740   1.115  14.590  0.5859 -1.6977 -0.6325
 9358TIP3    H249566   0.836   1.230  14.568 -2.2643  0.7162 -0.9961
 9359TIP3   OH249567   4.824   5.136   0.355  0.4783 -0.2129  0.1957
 9359TIP3    H149568   4.774   5.074   0.302  2.0818 -2.0907  0.7730
 9359TIP3    H249569   4.758   5.180   0.409 -0.9980  0.5534 -2.0607
 9360TIP3   OH249570   1.456   0.705   1.210 -0.1948  0.2467  0.1035
 9360TIP3    H149571   1.365   0.705   1.241  0.0169  0.1696  0.7261
 9360TIP3    H249572   1.450   0.735   1.119 -0.8504  0.1723  0.1180
 9361TIP3   OH249573   1.397   2.342   4.266  0.0337 -0.1140  0.9976
 9361TIP3    H149574   1.405   2.395   4.345 -0.4188  1.5574 -0.0096
 9361TIP3    H249575   1.473   2.366   4.213 -0.1727 -0.4707  0.5277
 9362TIP3   OH249576   5.601   1.831  14.093  0.0767 -0.7999  0.1015
 9362TIP3    H149577   5.671   1.806  14.154  0.2408  1.4281  0.9101
 9362TIP3    H249578   5.537   1.878  14.147  0.1358  1.0948 -1.3613
 9363TIP3   OH249579   3.912   5.173   1.067  0.2147  0.0599  0.3547
 9363TIP3    H149580   3.931   5.083   1.042  0.3559  0.1822  0.0172
 9363TIP3    H249581   3.980   5.195   1.131 -1.2336 -0.8762  2.3228
 9364TIP3   OH249582   2.899   2.775  14.201  0.1381  0.0033  0.3047
 9364TIP3    H149583   2.811   2.788  14.236 -0.5805  0.4161 -1.5490
 9364TIP3    H249584   2.939   2.712  14.261 -0.7248  1.2183  2.2690
 9365TIP3   OH249585   3.877   5.746   0.838 -0.5310 -0.6192  0.0794
 9365TIP3    H149586   3.931   5.690   0.783 -0.2759  0.1101 -0.4270
 9365TIP3    H249587   3.842   5.688   0.905  0.4615 -1.2011  0.0994
 9366TIP3   OH249588   2.391   6.399   4.862 -0.3344 -0.4157 -0.5658
 9366TIP3    H149589   2.374   6.493   4.856 -0.3833 -0.3343  0.6777
 9366TIP3    H249590   2.311   6.359   4.828 -0.9715 -0.0094  0.4151
 9367TIP3   OH249591   1.935   6.293  14.527 -0.5898 -1.2812  0.5708
 9367TIP3    H149592   1.996   6.236  14.481 -0.6678  0.1676 -1.4283
 9367TIP3    H249593   1.972   6.381  14.519 -1.5158 -0.7394  1.7993
 9368TIP3   OH249594   3.496   3.266   2.588 -0.4963 -0.0019 -0.6606
 9368TIP3    H149595   3.502   3.213   2.668  0.1307 -1.4128 -1.5867
 9368TIP3    H249596   3.577   3.317   2.588 -1.4009  1.5154  0.5707
 9369TIP3   OH249597   5.557   5.174  12.886  0.1793  0.1938  0.3004
 9369TIP3    H149598   5.561   5.145  12.977 -0.6367  1.3990  0.7443
 9369TIP3    H249599   5.476   5.224  12.880  0.7669  1.0731 -0.8057
 9370TIP3   OH249600   5.956   4.895   2.308 -0.2884 -0.0500 -0.9333
 9370TIP3    H149601   5.868   4.924   2.283 -0.8399  0.8797  1.7122
 9370TIP3    H249602   5.943   4.848   2.391  1.9607  3.0612  1.4218
 9371TIP3   OH249603   5.349   6.753   2.409  0.0951  0.2353 -0.0413
 9371TIP3    H149604   5.424   6.805   2.378 -0.3524  0.9939  0.1251
 9371TIP3    H249605   5.288   6.755   2.336  0.3306 -0.5914 -0.2685
 9372TIP3   OH249606   5.757   5.526   3.056  0.7979  0.4012  0.5873
 9372TIP3    H149607   5.771   5.444   3.008 -0.3457  0.2681  0.4566
 9372TIP3    H249608   5.844   5.550   3.089  0.8764 -1.7177  2.0330
 9373TIP3   OH249609   6.729   4.633  11.134  1.2573 -0.4412 -0.0524
 9373TIP3    H149610   6.730   4.548  11.090  0.7573  0.6197 -2.2376
 9373TIP3    H249611   6.805   4.679  11.097  1.2535  0.2420  0.7682
 9374TIP3   OH249612   4.313   2.413  14.699 -0.8021  0.5223 -0.2593
 9374TIP3    H149613   4.394   2.382  14.660 -0.9104  1.7140 -1.5018
 9374TIP3    H249614   4.252   2.340  14.691  0.2278 -0.5308  1.0621
 9375TIP3   OH249615   6.128   3.083  13.833  0.2872  0.3560 -0.7468
 9375TIP3    H149616   6.167   3.166  13.859 -0.2739  1.0660 -2.0791
 9375TIP3    H249617   6.039   3.086  13.867  0.2954  0.2657 -0.7171
 9376TIP3   OH249618   2.591   0.127   0.183  0.4066  0.5719 -0.0336
 9376TIP3    H149619   2.598   0.037   0.152  0.2216 -0.0016  1.4829
 9376TIP3    H249620   2.672   0.141   0.232  0.0679  0.9370  0.4303
 9377TIP3   OH249621   6.595   0.252  17.110 -0.4715 -0.1370 -0.5572
 9377TIP3    H149622   6.631   0.336  17.138 -0.6993 -0.1727 -0.1483
 9377TIP3    H249623   6.666   0.189  17.125 -1.1007 -0.4359  1.5019
 9378TIP3   OH249624   5.902   1.476   3.045 -0.2682  0.4273  0.1263
 9378TIP3    H149625   5.891   1.568   3.068  1.0079  0.5435  0.3451
 9378TIP3    H249626   5.949   1.478   2.961  0.3125 -0.0140  0.4324
 9379TIP3   OH249627   2.745   3.415  16.317 -0.1668 -0.9602 -0.3152
 9379TIP3    H149628   2.701   3.473  16.381 -0.0996  1.2749 -2.1558
 9379TIP3    H249629   2.674   3.377  16.266 -0.1558  1.1893 -2.0709
 9380TIP3   OH249630   4.523   5.051   5.489  0.7111  0.3152 -0.2279
 9380TIP3    H149631   4.465   5.044   5.565 -1.4886  0.1640 -1.8323
 9380TIP3    H249632   4.501   5.135   5.450  0.1770 -0.5581 -1.9026
 9381TIP3   OH249633   6.210   0.149  16.004  0.2858  0.1740  0.7106
 9381TIP3    H149634   6.197   0.199  16.085 -0.4633  0.9306  0.1419
 9381TIP3    H249635   6.295   0.107  16.016  0.9711  1.6194  1.2111
 9382TIP3   OH249636   2.773   3.651   3.162 -0.6554 -0.2252 -0.3961
 9382TIP3    H149637   2.752   3.722   3.101  1.7578  0.5802 -0.3866
 9382TIP3    H249638   2.848   3.684   3.211 -2.3936 -0.8814  2.9985
 9383TIP3   OH249639   1.586   0.082  10.731 -0.2752  0.0123  0.2653
 9383TIP3    H149640   1.601   0.116  10.642 -0.1256  1.0060  0.6514
 9383TIP3    H249641   1.649   0.010  10.740 -2.3511 -2.1534 -1.4836
 9384TIP3   OH249642   5.961   3.931  15.050  0.0656 -0.3665  0.5283
 9384TIP3    H149643   5.930   4.016  15.081 -1.5462 -0.3664 -0.9127
 9384TIP3    H249644   5.986   3.947  14.959  0.2529 -1.3146  0.4072
 9385TIP3   OH249645   0.353   3.150   4.852 -0.3148 -0.3083  0.2492
 9385TIP3    H149646   0.371   3.231   4.805  0.6711  0.9924  2.7102
 9385TIP3    H249647   0.268   3.121   4.819 -0.0705  0.9774 -1.6380
 9386TIP3   OH249648   4.714   2.758  13.607  0.2442  0.1484 -0.4460
 9386TIP3    H149649   4.805   2.740  13.630  0.1506 -1.8311 -1.3951
 9386TIP3    H249650   4.667   2.759  13.690  0.6301 -2.2616 -0.1367
 9387TIP3   OH249651   5.047   3.989   5.613 -0.6082 -0.4670 -0.4086
 9387TIP3    H149652   5.043   3.898   5.583 -1.2152 -0.6666  0.2534
 9387TIP3    H249653   4.980   4.033   5.560 -0.3220 -0.4046 -0.7219
 9388TIP3   OH249654   2.905   4.763   0.286  0.5547 -0.2671 -0.1131
 9388TIP3    H149655   2.864   4.752   0.200  1.4813 -0.5590 -0.5357
 9388TIP3    H249656   2.993   4.797   0.266  0.5703  0.2061  0.7506
 9389TIP3   OH249657   1.257   6.473  13.388 -0.3283 -0.6036 -0.1786
 9389TIP3    H149658   1.248   6.568  13.401 -4.2321 -0.9878  1.3127
 9389TIP3    H249659   1.349   6.455  13.406  0.0440  2.6129  1.9415
 9390TIP3   OH249660   0.529   2.164   1.328 -0.2561 -0.4703  0.2358
 9390TIP3    H149661   0.495   2.243   1.370 -0.3365  0.7595 -1.9548
 9390TIP3    H249662   0.612   2.193   1.289  0.6957 -2.0223  1.0062
 9391TIP3   OH249663   1.275   2.074   1.308  0.5433  0.0281 -0.2709
 9391TIP3    H149664   1.282   2.112   1.220  0.6881  0.7625  0.0525
 9391TIP3    H249665   1.263   1.980   1.292 -0.1374  0.2411 -1.0907
 9392TIP3   OH249666   3.719   1.647  11.670 -0.0809  0.3156  1.3621
 9392TIP3    H149667   3.789   1.605  11.719 -0.1446 -1.6627 -0.1476
 9392TIP3    H249668   3.764   1.708  11.611  0.3706 -0.6896  0.6461
 9393TIP3   OH249669   0.556   2.582   4.361 -0.3954 -0.1033 -0.3870
 9393TIP3    H149670   0.556   2.548   4.272 -1.0576  1.9745 -1.2452
 9393TIP3    H249671   0.515   2.669   4.354 -1.3712 -0.2720  2.0868
 9394TIP3   OH249672   1.345   5.513  14.189 -0.1310 -0.8457 -0.4691
 9394TIP3    H149673   1.255   5.481  14.188 -0.5485  0.0618  1.6077
 9394TIP3    H249674   1.347   5.583  14.124 -0.9307 -0.8876 -0.5451
 9395TIP3   OH249675   1.714   2.480   0.222 -0.2986 -0.5328  0.3049
 9395TIP3    H149676   1.791   2.486   0.279 -0.8135 -0.9756  1.0755
 9395TIP3    H249677   1.689   2.571   0.207  1.3069 -0.3082 -1.2954
 9396TIP3   OH249678   5.005   4.228   0.739 -0.7992  0.0753  0.6398
 9396TIP3    H149679   5.033   4.147   0.781  2.1225  0.7648  0.2899
 9396TIP3    H249680   4.977   4.285   0.810  0.4961 -0.0817  1.3069
 9397TIP3   OH249681   5.692   0.122   1.613  0.2122 -0.3635 -0.1225
 9397TIP3    H149682   5.615   0.099   1.667  0.6492  0.2576  0.7939
 9397TIP3    H249683   5.672   0.087   1.527 -0.5598 -1.3093  0.4194
 9398TIP3   OH249684   5.920   1.157   3.480 -0.1028 -0.0777 -0.7181
 9398TIP3    H149685   5.971   1.078   3.499  0.2707  0.3143 -0.0382
 9398TIP3    H249686   5.953   1.186   3.394  1.7297  0.8420  0.2340
 9399TIP3   OH249687   1.322   4.622   5.481  0.7105  0.0871  0.7705
 9399TIP3    H149688   1.330   4.571   5.562  0.4246  2.4649  2.4079
 9399TIP3    H249689   1.239   4.670   5.491 -0.0252 -0.5389 -1.5945
 9400TIP3   OH249690   3.474   2.604  10.679 -0.1425  0.7217  0.2271
 9400TIP3    H149691   3.437   2.528  10.723  0.1736  0.6347  0.3368
 9400TIP3    H249692   3.408   2.626  10.612  0.2539 -0.2975 -0.5246
 9401TIP3   OH249693   1.198   4.386  15.240  0.0423  0.7262 -0.4562
 9401TIP3    H149694   1.277   4.339  15.267  0.5066  1.8005  0.1177
 9401TIP3    H249695   1.160   4.417  15.322 -1.8100 -1.0177 -0.5827
 9402TIP3   OH249696   2.954   1.385  12.083  0.1204 -0.1873  0.0487
 9402TIP3    H149697   2.954   1.342  11.998 -0.8243 -0.4868  0.1859
 9402TIP3    H249698   3.043   1.418  12.093  0.1367  0.2084 -1.2297
 9403TIP3   OH249699   3.562   4.480   5.454 -0.5501  0.6819 -0.0206
 9403TIP3    H149700   3.585   4.388   5.441  0.5039  1.0464 -0.9538
 9403TIP3    H249701   3.629   4.528   5.405 -0.7502  1.9685  0.9184
 9404TIP3   OH249702   4.564   1.208  14.872  0.5365  0.3722  0.3691
 9404TIP3    H149703   4.547   1.172  14.959 -1.4267 -0.9047 -0.4750
 9404TIP3    H249704   4.479   1.237  14.840  0.3117 -2.8457 -2.6543
 9405TIP3   OH249705   6.511   1.951   4.782 -0.7806  0.8377 -0.0268
 9405TIP3    H149706   6.470   1.878   4.736  2.0934 -0.6279 -0.4855
 9405TIP3    H249707   6.521   2.019   4.716 -1.1486  0.6670 -0.2604
 9406TIP3   OH249708   3.669   5.768   5.463  0.1460  0.4814 -0.0887
 9406TIP3    H149709   3.710   5.813   5.536  0.1397  1.1186 -0.4680
 9406TIP3    H249710   3.632   5.688   5.501  0.1230  0.8170  0.5988
 9407TIP3   OH249711   4.405   3.981  16.826  0.3108 -0.0627 -0.7477
 9407TIP3    H149712   4.496   4.008  16.838  0.1763  1.0608 -1.9406
 9407TIP3    H249713   4.354   4.060  16.846 -0.7348 -1.5812  3.4313
 9408TIP3   OH249714   6.512   5.342  10.775  0.2394  0.5524  0.4006
 9408TIP3    H149715   6.492   5.276  10.708 -0.0952  0.2359  0.8075
 9408TIP3    H249716   6.467   5.421  10.745 -3.6527 -0.6847  2.3934
 9409TIP3   OH249717   4.949   6.550   3.210 -0.1653  0.1575 -0.0532
 9409TIP3    H149718   4.871   6.499   3.187 -0.3391  0.0217  0.8213
 9409TIP3    H249719   4.916   6.638   3.225 -0.1506  0.1050  0.2944
 9410TIP3   OH249720   0.302   2.240  12.556  0.3222 -0.1428  0.1981
 9410TIP3    H149721   0.313   2.192  12.639  1.7115 -0.3079 -0.0554
 9410TIP3    H249722   0.384   2.225  12.509  0.0561  1.0079 -0.6675
 9411TIP3   OH249723   3.487   6.526  10.715  0.0197  0.8844  0.3412
 9411TIP3    H149724   3.417   6.579  10.752 -1.7373  0.4048 -2.0279
 9411TIP3    H249725   3.509   6.570  10.632 -1.3166 -1.7740 -1.5731
 9412TIP3   OH249726   6.184   2.301   0.625  0.7098 -0.3327 -0.1445
 9412TIP3    H149727   6.133   2.294   0.706  1.6430  0.8080  0.5709
 9412TIP3    H249728   6.248   2.370   0.643  1.5935 -0.7633 -1.5063
 9413TIP3   OH249729   4.071   4.858   6.098 -0.0976 -0.1222 -0.5682
 9413TIP3    H149730   4.081   4.908   6.179  2.1251  0.9872 -1.4642
 9413TIP3    H249731   4.110   4.773   6.117 -0.4405 -0.2024 -0.2058
 9414TIP3   OH249732   5.790   6.562  15.559  0.6170 -0.2052  0.0637
 9414TIP3    H149733   5.833   6.572  15.644  0.6697 -1.3512  0.1877
 9414TIP3    H249734   5.850   6.508  15.508 -0.6585 -1.8797  0.2606
 9415TIP3   OH249735   1.944   2.534  15.819  0.4109 -0.2874 -0.3867
 9415TIP3    H149736   1.996   2.456  15.799  0.0072 -0.8078  0.5143
 9415TIP3    H249737   1.894   2.550  15.739  0.6313 -0.8435 -0.6456
 9416TIP3   OH249738   4.203   2.401   0.047 -0.6483  0.0604  0.3338
 9416TIP3    H149739   4.235   2.431   0.132 -0.6221 -0.6662  0.5876
 9416TIP3    H249740   4.113   2.435   0.042 -0.9119 -0.5116  0.9858
 9417TIP3   OH249741   5.558   0.129  16.908  0.5310  0.5875  0.3668
 9417TIP3    H149742   5.635   0.179  16.882 -0.0810  1.1696 -0.3387
 9417TIP3    H249743   5.594   0.055  16.958  1.5817  0.5670 -0.3858
 9418TIP3   OH249744   4.875   3.828  13.911  0.0162  0.3845 -0.2341
 9418TIP3    H149745   4.806   3.844  13.976  0.2384  1.3804 -0.2245
 9418TIP3    H249746   4.842   3.755  13.859 -1.9936  2.0625 -1.4750
 9419TIP3   OH249747   2.942   2.851  12.859  0.1847  0.1984  0.0273
 9419TIP3    H149748   2.931   2.841  12.764 -1.6709 -0.5953  0.2930
 9419TIP3    H249749   3.007   2.920  12.868  0.1435  0.5278 -1.8290
 9420TIP3   OH249750   4.848   6.132   0.081 -0.3574  0.1408  0.0492
 9420TIP3    H149751   4.773   6.182   0.049 -0.1905  1.3400  1.4369
 9420TIP3    H249752   4.919   6.156   0.022 -0.5648  0.6291 -0.0045
 9421TIP3   OH249753   4.410   4.488  15.608 -0.1782  1.0475  0.5615
 9421TIP3    H149754   4.418   4.432  15.685 -1.0369  0.8060  0.4892
 9421TIP3    H249755   4.369   4.433  15.542 -0.5825  1.6138  0.3283
 9422TIP3   OH249756   3.189   6.026  13.250 -0.1331  0.1437  0.2725
 9422TIP3    H149757   3.186   6.022  13.345 -2.3008  0.8359  0.2978
 9422TIP3    H249758   3.126   5.961  13.221  1.5779 -1.1180 -0.7844
 9423TIP3   OH249759   5.284   4.422  11.366  0.7855 -0.5150 -0.1617
 9423TIP3    H149760   5.259   4.370  11.290 -0.9241 -0.8353  0.5707
 9423TIP3    H249761   5.350   4.370  11.411  0.5283 -1.1353 -0.4959
 9424TIP3   OH249762   5.006   6.607   0.295  0.0874  0.2802 -0.3437
 9424TIP3    H149763   5.029   6.624   0.203 -0.0091 -0.7445 -0.5704
 9424TIP3    H249764   4.954   6.527   0.292  3.5903 -2.3421  0.9578
 9425TIP3   OH249765   1.857   1.351  15.143  0.2036 -0.1231  0.1323
 9425TIP3    H149766   1.818   1.384  15.062 -2.2982  0.5197  1.4924
 9425TIP3    H249767   1.787   1.299  15.184  2.1732 -2.4779  0.7870
 9426TIP3   OH249768   3.368   6.188  15.182  0.1023 -0.7915 -0.6880
 9426TIP3    H149769   3.308   6.239  15.237  1.5811 -0.2176  0.4518
 9426TIP3    H249770   3.340   6.097  15.194 -0.0575 -0.6086  0.4470
 9427TIP3   OH249771   1.289   0.668   5.199 -0.1027 -0.1656  0.2836
 9427TIP3    H149772   1.275   0.578   5.228  0.1967  0.4947  2.7823
 9427TIP3    H249773   1.214   0.717   5.233 -0.0936  0.5917 -0.7329
 9428TIP3   OH249774   0.513   2.142  13.432 -0.1057 -0.0111 -0.1134
 9428TIP3    H149775   0.581   2.076  13.427  0.6675  0.8275 -1.2381
 9428TIP3    H249776   0.488   2.144  13.525  0.4333 -1.2709  0.0777
 9429TIP3   OH249777   0.458   2.695  14.062 -0.0089  0.1485  0.2064
 9429TIP3    H149778   0.398   2.696  13.987  0.1744 -0.3655  0.0467
 9429TIP3    H249779   0.543   2.673  14.024 -0.1285 -1.2949  0.7045
 9430TIP3   OH249780   0.818   3.782   0.536 -0.1560 -0.0528  0.2127
 9430TIP3    H149781   0.882   3.785   0.464 -2.3326  1.7913 -1.7894
 9430TIP3    H249782   0.733   3.788   0.493 -1.5859  0.8163  2.9410
 9431TIP3   OH249783   3.652   0.890  13.319 -0.2905  0.1577 -0.1321
 9431TIP3    H149784   3.618   0.862  13.404  0.1524 -0.2941 -0.1030
 9431TIP3    H249785   3.739   0.925  13.339  0.5438 -1.5543 -0.6285
 9432TIP3   OH249786   5.103   0.666   5.080 -0.5242  0.7633  0.0025
 9432TIP3    H149787   5.156   0.587   5.071 -1.0381  0.3679  0.3228
 9432TIP3    H249788   5.158   0.737   5.048  0.9953  0.6823  2.2620
 9433TIP3   OH249789   0.124   1.992   2.222 -0.3140  0.1003 -0.1032
 9433TIP3    H149790   0.061   1.989   2.295 -0.6502 -1.4944 -0.4282
 9433TIP3    H249791   0.070   1.976   2.144  0.3307 -0.1172 -0.5064
 9434TIP3   OH249792   6.329   2.041  10.368 -0.0213  0.6298  0.6820
 9434TIP3    H149793   6.279   1.995  10.302  0.2738  0.3986  0.6202
 9434TIP3    H249794   6.348   2.127  10.329  1.7465 -0.1512 -0.2944
 9435TIP3   OH249795   6.732   5.027  16.733  0.1323 -0.2955 -0.6341
 9435TIP3    H149796   6.743   5.097  16.669  2.9937 -1.1441 -1.2132
 9435TIP3    H249797   6.687   4.957  16.685  0.0173  0.0016 -0.9611
 9436TIP3   OH249798   6.484   3.921  14.331  0.1857 -0.1854  0.2414
 9436TIP3    H149799   6.467   4.003  14.379  0.8749  0.3216 -0.3604
 9436TIP3    H249800   6.438   3.932  14.248  0.3428 -0.3876  0.1282
 9437TIP3   OH249801   6.248   5.316   4.055 -0.1369 -0.5315 -0.6959
 9437TIP3    H149802   6.238   5.348   4.145 -1.5944 -0.1986 -0.9438
 9437TIP3    H249803   6.342   5.305   4.044  0.1051 -0.1706  0.7311
 9438TIP3   OH249804   3.055   5.935  13.818 -0.2265  0.2367 -0.5196
 9438TIP3    H149805   3.027   5.845  13.799 -1.3210  0.3539  0.4727
 9438TIP3    H249806   3.097   5.964  13.737  1.1476 -1.5307 -0.5261
 9439TIP3   OH249807   0.654   0.847   4.355  0.5100 -0.1450  0.1003
 9439TIP3    H149808   0.741   0.820   4.384  1.5302  1.5933 -1.2005
 9439TIP3    H249809   0.658   0.942   4.351 -1.9200  0.0911  1.3476
 9440TIP3   OH249810   2.064   0.641  10.212 -0.3021  0.3563  0.3732
 9440TIP3    H149811   2.027   0.586  10.143 -2.5401  0.7857  1.1407
 9440TIP3    H249812   2.113   0.581  10.268 -1.2976 -0.5837  0.2700
 9441TIP3   OH249813   0.611   2.648  15.157 -0.7691  0.1085  0.0981
 9441TIP3    H149814   0.518   2.669  15.157 -1.3655 -2.2590 -0.2909
 9441TIP3    H249815   0.627   2.609  15.071  0.4756  0.0331  0.3413
 9442TIP3   OH249816   1.742   5.774   3.727  0.2810 -0.0959 -0.5562
 9442TIP3    H149817   1.815   5.835   3.725 -0.7641  1.1821 -1.3381
 9442TIP3    H249818   1.741   5.739   3.816  2.0664 -0.4572 -0.6454
 9443TIP3   OH249819   6.432   5.996  15.809 -0.3323 -0.0814 -0.0585
 9443TIP3    H149820   6.424   6.091  15.802  1.4078  0.0380 -1.1139
 9443TIP3    H249821   6.456   5.981  15.900 -0.1429  0.5435  0.0032
 9444TIP3   OH249822   3.750   6.277  12.529 -0.3384 -0.1385  0.4478
 9444TIP3    H149823   3.668   6.258  12.574 -1.4779 -0.7568 -1.7107
 9444TIP3    H249824   3.769   6.368  12.551 -1.7336  0.0805  0.8401
 9445TIP3   OH249825   6.452   2.272   0.066 -0.7166  0.0068  0.2028
 9445TIP3    H149826   6.462   2.365   0.086 -0.7244 -0.1125  0.7743
 9445TIP3    H249827   6.392   2.270  -0.008  0.9058  0.5707 -1.2066
 9446TIP3   OH249828   4.318   3.812   1.286 -0.2992  0.3429 -0.1276
 9446TIP3    H149829   4.328   3.906   1.304 -0.1005 -0.0578  2.2842
 9446TIP3    H249830   4.403   3.786   1.251  0.9428  0.5018  2.4632
 9447TIP3   OH249831   6.041   3.404   4.929 -0.1483  0.2512 -0.4720
 9447TIP3    H149832   6.103   3.334   4.908 -0.4489  0.1208 -0.9292
 9447TIP3    H249833   5.955   3.366   4.911 -0.2690  1.0535 -1.6419
 9448TIP3   OH249834   2.427   5.672   4.389 -0.2246  0.1739 -0.0382
 9448TIP3    H149835   2.368   5.639   4.321  0.8319  0.0243 -0.9067
 9448TIP3    H249836   2.508   5.693   4.343  1.2559 -1.8772  1.4831
 9449TIP3   OH249837   0.755   6.221   1.911  0.1556 -0.5841  0.0382
 9449TIP3    H149838   0.780   6.132   1.885  0.4005 -0.3363 -0.5725
 9449TIP3    H249839   0.684   6.244   1.852  1.0509  0.1724 -0.7847
 9450TIP3   OH249840   5.826   1.191   5.798  0.1558 -0.3333  0.0307
 9450TIP3    H149841   5.920   1.188   5.782  0.3020 -0.0347  0.7853
 9450TIP3    H249842   5.815   1.154   5.886 -0.2238  1.2094  0.6720
 9451TIP3   OH249843   5.096   5.725   2.056 -0.3048  0.0672 -0.5095
 9451TIP3    H149844   5.027   5.770   2.009 -1.3165 -1.4092 -0.5112
 9451TIP3    H249845   5.105   5.641   2.010  1.4565  0.1938 -0.4695
 9452TIP3   OH249846   3.153   4.570  16.600 -0.0289 -0.0128 -0.3998
 9452TIP3    H149847   3.069   4.574  16.644  0.3840  0.6513  0.3465
 9452TIP3    H249848   3.209   4.520  16.660  0.1116 -0.4722 -0.9002
 9453TIP3   OH249849   5.676   1.431  14.480  0.6543 -0.4651  0.2690
 9453TIP3    H149850   5.760   1.395  14.508 -0.2522 -1.4802  1.8010
 9453TIP3    H249851   5.610   1.379  14.526 -0.8781 -0.5189 -1.8490
 9454TIP3   OH249852   2.522   5.857  13.078  0.5064 -0.3933 -0.5110
 9454TIP3    H149853   2.437   5.864  13.121  0.7927 -0.0977  0.0199
 9454TIP3    H249854   2.534   5.764  13.062  1.3535 -0.7853  2.0301
 9455TIP3   OH249855   0.738   5.512  16.094 -0.4036  0.0184 -0.3241
 9455TIP3    H149856   0.794   5.589  16.085  1.0469 -0.6528  2.0862
 9455TIP3    H249857   0.785   5.442  16.049 -0.9183  0.1524 -1.0887
 9456TIP3   OH249858   3.804   2.959   4.572 -0.2268  0.3801 -0.0448
 9456TIP3    H149859   3.779   2.878   4.527  0.4051  0.0556  0.1702
 9456TIP3    H249860   3.721   3.005   4.587 -0.5159  0.1473 -0.8708
 9457TIP3   OH249861   2.376   1.523  12.596  0.1919  0.8436  0.1368
 9457TIP3    H149862   2.468   1.511  12.620 -0.4476 -0.4829  2.2346
 9457TIP3    H249863   2.343   1.434  12.585 -0.8663  1.3054 -0.6007
 9458TIP3   OH249864   3.546   4.207   5.370  0.4267  0.6687 -0.5672
 9458TIP3    H149865   3.516   4.117   5.382 -0.3319  0.9213 -0.5154
 9458TIP3    H249866   3.521   4.228   5.280 -1.0020  1.4122 -0.0179
 9459TIP3   OH249867   2.138   1.486  12.290 -0.3063  0.5749 -0.4089
 9459TIP3    H149868   2.119   1.484  12.384  4.3516  0.9940  0.7709
 9459TIP3    H249869   2.142   1.393  12.265 -3.1615  0.4484 -0.7481
 9460TIP3   OH249870   6.248   2.212  14.016 -0.2716 -0.7551  0.1205
 9460TIP3    H149871   6.322   2.193  14.073 -0.9960  1.0049  1.7359
 9460TIP3    H249872   6.194   2.133  14.020  0.2076 -1.0467  1.0558
 9461TIP3   OH249873   1.268   4.140   5.918 -0.3028  0.5394  0.1714
 9461TIP3    H149874   1.249   4.226   5.956  0.6707  1.3861 -1.1786
 9461TIP3    H249875   1.362   4.142   5.900 -0.3244 -0.7089 -0.1395
 9462TIP3   OH249876   0.140   3.078   5.852 -0.2647 -0.0885  0.0633
 9462TIP3    H149877   0.122   2.995   5.895  0.7315 -1.0513 -1.3004
 9462TIP3    H249878   0.205   3.120   5.909 -0.6291 -0.3220  0.6614
 9463TIP3   OH249879   3.711   2.237  12.931  0.6437 -0.1865 -0.1210
 9463TIP3    H149880   3.756   2.314  12.896 -0.8106  1.4104  1.3727
 9463TIP3    H249881   3.775   2.196  12.989  1.1261  0.4250 -0.2130
 9464TIP3   OH249882   3.114   0.553  16.581 -0.4318 -0.2132 -0.3482
 9464TIP3    H149883   3.195   0.591  16.548  0.0702 -1.5579 -0.7455
 9464TIP3    H249884   3.139   0.507  16.661 -0.6369 -1.2136 -0.8354
 9465TIP3   OH249885   2.217   0.480   5.048 -0.5662  0.0620  0.3152
 9465TIP3    H149886   2.152   0.416   5.018  0.1361 -0.8491  0.6879
 9465TIP3    H249887   2.216   0.473   5.143 -1.8470  2.0115  0.4986
 9466TIP3   OH249888   0.117   6.469  13.707  0.3504  0.0255  0.3909
 9466TIP3    H149889   0.075   6.434  13.786 -0.6949 -1.7707 -0.8896
 9466TIP3    H249890   0.044   6.494  13.650  1.0878  2.1289  0.2933
 9467TIP3   OH249891   4.792   4.167   5.368 -0.2627  0.6421 -0.0365
 9467TIP3    H149892   4.790   4.244   5.424 -1.9118  0.4436  0.2460
 9467TIP3    H249893   4.714   4.175   5.313 -0.7354 -1.0087  0.3143
 9468TIP3   OH249894   2.116   2.834   4.347 -0.5024 -0.5676  0.1649
 9468TIP3    H149895   2.100   2.834   4.252  1.3616 -0.4624 -0.1930
 9468TIP3    H249896   2.122   2.742   4.370 -0.5462 -0.5867  0.1005
 9469TIP3   OH249897   3.167   4.074   0.434 -0.1732  1.0975  0.3276
 9469TIP3    H149898   3.111   3.997   0.426  1.8426 -0.3886 -0.1948
 9469TIP3    H249899   3.189   4.097   0.344  0.7634  1.0774  0.5381
 9470TIP3   OH249900   0.415   3.286   6.163  0.0686  0.4797  0.0153
 9470TIP3    H149901   0.486   3.348   6.184 -0.4307  0.3992  2.2042
 9470TIP3    H249902   0.443   3.205   6.205 -0.5468 -0.0222 -0.5464
 9471TIP3   OH249903   3.450   3.827   4.393  0.6714 -0.2542 -0.5837
 9471TIP3    H149904   3.445   3.794   4.483 -0.9768  2.8070  0.5982
 9471TIP3    H249905   3.362   3.860   4.375  1.1298 -0.2190 -3.1402
 9472TIP3   OH249906   5.981   1.336  12.015 -1.0906  0.3223  0.0526
 9472TIP3    H149907   5.894   1.375  12.008 -1.1104  0.1240 -1.0264
 9472TIP3    H249908   6.035   1.389  11.956 -0.6501 -0.0218  0.1460
 9473TIP3   OH249909   3.580   2.748   5.011  0.3163 -0.0396  0.4554
 9473TIP3    H149910   3.541   2.831   4.985 -0.7235 -0.6871 -0.1503
 9473TIP3    H249911   3.599   2.758   5.105 -1.0814  0.3987  0.7101
 9474TIP3   OH249912   4.623   1.387   1.268 -0.1107  0.2924 -0.7550
 9474TIP3    H149913   4.689   1.440   1.222 -1.3099  0.4630 -2.3714
 9474TIP3    H249914   4.632   1.300   1.230  1.5070 -0.6450  1.5343
 9475TIP3   OH249915   6.196   0.665  11.628  0.2211  0.2060  0.3931
 9475TIP3    H149916   6.204   0.574  11.599 -0.1907  0.1441  0.4645
 9475TIP3    H249917   6.102   0.677  11.643  0.3397  0.4780  0.9285
 9476TIP3   OH249918   3.169   2.682  13.324  0.2207 -0.6101  0.1397
 9476TIP3    H149919   3.127   2.752  13.374  1.8022 -0.6010  1.5292
 9476TIP3    H249920   3.214   2.727  13.253  1.9478 -0.0523  1.5178
 9477TIP3   OH249921   0.246   0.461   0.222 -0.4029 -0.1495 -0.3109
 9477TIP3    H149922   0.325   0.415   0.250 -1.2031 -1.5599 -0.3354
 9477TIP3    H249923   0.238   0.533   0.285  3.2302  2.7489 -2.7114
 9478TIP3   OH249924   2.240   6.084  14.104  0.9910 -0.0761  0.2704
 9478TIP3    H149925   2.258   6.178  14.101  1.4316 -0.1881 -1.6884
 9478TIP3    H249926   2.176   6.075  14.174 -0.3908  1.9523 -0.6140
 9479TIP3   OH249927   4.325   6.488   1.400 -0.2367  0.4997 -0.5031
 9479TIP3    H149928   4.327   6.393   1.387 -0.6563  0.3536  0.4075
 9479TIP3    H249929   4.417   6.513   1.405 -0.1000 -0.1946  1.3363
 9480TIP3   OH249930   3.692   1.846  15.405  0.0459 -0.1422  0.3753
 9480TIP3    H149931   3.731   1.797  15.333 -1.5935  1.5061 -1.7397
 9480TIP3    H249932   3.622   1.789  15.437 -2.1300  0.8150 -2.3419
 9481TIP3   OH249933   6.447   2.052  10.638  0.1201  0.4331 -0.7089
 9481TIP3    H149934   6.378   2.108  10.675  0.6918  0.2473  0.7104
 9481TIP3    H249935   6.446   2.072  10.544 -1.1461  1.2103 -0.5585
 9482TIP3   OH249936   1.793   4.638  14.600  0.2828 -0.0436 -0.1502
 9482TIP3    H149937   1.730   4.692  14.647 -0.5367 -0.0362 -1.2231
 9482TIP3    H249938   1.804   4.561  14.656  0.0042  0.3596  0.4721
 9483TIP3   OH249939   6.495   0.459  12.141  0.7951  0.6603  0.2879
 9483TIP3    H149940   6.519   0.405  12.066 -0.9066  0.8481 -0.4377
 9483TIP3    H249941   6.559   0.530  12.142  1.5349  0.0188 -0.2546
 9484TIP3   OH249942   1.293   0.864   4.966 -0.3256 -0.0332  0.0919
 9484TIP3    H149943   1.385   0.840   4.954 -0.8100 -1.6191 -0.7473
 9484TIP3    H249944   1.258   0.795   5.021 -1.1636  0.1847 -0.1600
 9485TIP3   OH249945   0.049   5.127  16.372 -0.2075  0.0972 -0.3620
 9485TIP3    H149946   0.053   5.218  16.342  1.7021 -0.0913 -0.8052
 9485TIP3    H249947   0.054   5.075  16.292  1.6820 -0.3919  0.0352
 9486TIP3   OH249948   5.988   6.776  12.619  0.3739 -0.0705  0.0158
 9486TIP3    H149949   5.990   6.692  12.574  2.2715 -0.4467  0.7203
 9486TIP3    H249950   6.035   6.836  12.561 -2.7566  1.1520 -1.5106
 9487TIP3   OH249951   2.848   5.830  16.100  0.1552  0.2268 -0.2229
 9487TIP3    H149952   2.813   5.748  16.135  1.3296 -0.0234  0.4079
 9487TIP3    H249953   2.771   5.878  16.071 -0.6430 -0.6162  0.4403
 9488TIP3   OH249954   3.540   2.609   4.176 -0.2022 -0.0607  0.3016
 9488TIP3    H149955   3.517   2.560   4.098 -1.3446  1.2375 -0.2162
 9488TIP3    H249956   3.588   2.547   4.231 -0.2077 -1.2567 -1.0088
 9489TIP3   OH249957   5.912   3.306  12.511  0.0024 -0.2227  0.5996
 9489TIP3    H149958   5.876   3.345  12.431  1.0331 -1.8990 -0.7439
 9489TIP3    H249959   5.843   3.319  12.577 -0.9641  1.0045 -0.5846
 9490TIP3   OH249960   3.054   6.084  10.522 -0.2885 -0.7639 -0.0551
 9490TIP3    H149961   2.976   6.029  10.528 -0.9164  0.2768  2.6044
 9490TIP3    H249962   3.021   6.171  10.502  0.3383 -0.6203 -0.4727
 9491TIP3   OH249963   3.880   5.934   2.168 -0.3966  0.0845 -0.0692
 9491TIP3    H149964   3.886   5.841   2.147  1.4619  0.3380 -0.9309
 9491TIP3    H249965   3.933   5.943   2.247 -0.4544  0.4249 -0.0707
 9492TIP3   OH249966   4.112   4.693  16.842 -0.1639  0.1658  0.5998
 9492TIP3    H149967   4.095   4.735  16.757 -1.2639  1.1995  1.2948
 9492TIP3    H249968   4.061   4.745  16.905 -0.7538 -1.6084  1.6607
 9493TIP3   OH249969   4.001   6.311  12.363  0.2755 -0.2974  0.3202
 9493TIP3    H149970   4.039   6.237  12.315 -1.5285 -0.6799 -0.5941
 9493TIP3    H249971   3.939   6.270  12.423  1.6537  0.2675  2.2566
 9494TIP3   OH249972   4.902   0.409  13.793  0.1793  0.0921 -0.1739
 9494TIP3    H149973   4.966   0.473  13.825  0.2182  0.1454 -0.3563
 9494TIP3    H249974   4.843   0.460  13.737 -0.2259  0.1074  0.2608
 9495TIP3   OH249975   1.224   0.216   0.318  0.1369 -0.5084 -0.2730
 9495TIP3    H149976   1.310   0.243   0.352 -0.1916  1.3190 -0.7842
 9495TIP3    H249977   1.164   0.231   0.391 -0.4030  2.4580 -1.1788
 9496TIP3   OH249978   2.002   1.157  15.846 -0.2789 -0.2724 -0.3770
 9496TIP3    H149979   2.054   1.223  15.892 -0.9170  0.4830 -0.7261
 9496TIP3    H249980   1.933   1.207  15.802 -1.4471 -1.2825  0.2719
 9497TIP3   OH249981   1.040   2.097   3.841 -0.5804  0.0358  0.2078
 9497TIP3    H149982   0.988   2.123   3.917  0.2447  0.5084  0.6275
 9497TIP3    H249983   1.001   2.015   3.812 -1.1182  0.0229  0.9360
 9498TIP3   OH249984   2.104   0.277  12.249 -0.1915  0.2993  0.3461
 9498TIP3    H149985   2.083   0.351  12.192  2.4120 -0.2973 -1.5848
 9498TIP3    H249986   2.031   0.216  12.236 -0.8687  1.2308 -0.3795
 9499TIP3   OH249987   6.371   4.456  14.923 -0.1111  0.2076  0.1097
 9499TIP3    H149988   6.306   4.505  14.973 -0.9198  0.1271 -0.8330
 9499TIP3    H249989   6.379   4.373  14.969 -0.7597  0.1805  0.1884
 9500TIP3   OH249990   0.741   1.083  12.900  0.3212 -0.3430 -0.0516
 9500TIP3    H149991   0.772   1.028  12.828 -0.5228 -0.5314 -0.2873
 9500TIP3    H249992   0.646   1.068  12.903  0.5442 -1.8992  2.3899
 9501TIP3   OH249993   6.750   4.268  11.957 -0.3900 -0.3372 -0.6582
 9501TIP3    H149994   6.727   4.183  11.919  2.1482 -2.0278  1.2678
 9501TIP3    H249995   6.710   4.267  12.044  1.6122 -0.6727  0.3131
 9502TIP3   OH249996   1.549   2.510  16.188 -0.2451  0.2205 -0.0209
 9502TIP3    H149997   1.596   2.446  16.135  1.1318 -0.2900  1.7407
 9502TIP3    H249998   1.499   2.561  16.125  0.4186 -1.1061 -1.6858
 9503TIP3   OH249999   1.694   2.365  16.014 -0.2708 -0.1019 -0.1924
 9503TIP3    H150000   1.718   2.278  15.982 -1.0155 -0.3244 -0.1659
 9503TIP3    H250001   1.769   2.420  15.992  0.7799 -1.0211  0.9728
 9504TIP3   OH250002   1.196   5.878  12.348  0.2116 -0.3950 -0.0438
 9504TIP3    H150003   1.227   5.915  12.430  0.5866  3.2365 -1.6625
 9504TIP3    H250004   1.101   5.876  12.357 -0.0560  3.2832 -0.6031
 9505TIP3   OH250005   1.564   0.670   0.407 -0.0750  0.0871 -0.4043
 9505TIP3    H150006   1.580   0.597   0.347  0.9735 -0.2482  0.2426
 9505TIP3    H250007   1.557   0.747   0.351 -0.7996 -0.4462 -1.0715
 9506TIP3   OH250008   3.531   3.310  12.063  0.5170  0.1852 -0.1329
 9506TIP3    H150009   3.470   3.246  12.029 -0.0253  0.4142  0.3900
 9506TIP3    H250010   3.522   3.303  12.158 -0.7538  2.1342 -0.0532
 9507TIP3   OH250011   2.460   0.235   4.671  0.5243 -0.7601  0.0727
 9507TIP3    H150012   2.464   0.322   4.633  1.2675 -1.0777 -0.5995
 9507TIP3    H250013   2.488   0.246   4.761  0.2862 -0.2539  0.0870
 9508TIP3   OH250014   1.480   5.516   1.619  0.0833  0.0925 -0.4418
 9508TIP3    H150015   1.573   5.535   1.618  0.3313 -1.0101 -0.1790
 9508TIP3    H250016   1.473   5.435   1.669 -0.8165 -0.7912 -1.9217
 9509TIP3   OH250017   0.695   6.018  16.718 -0.5550  0.9892 -0.1545
 9509TIP3    H150018   0.737   5.950  16.666 -0.7167 -0.4375  1.4991
 9509TIP3    H250019   0.763   6.048  16.778 -0.9363  1.0949  0.2334
 9510TIP3   OH250020   3.139   1.440  15.448 -0.1357 -0.3253  0.0040
 9510TIP3    H150021   3.057   1.468  15.406  0.3942  1.9474  0.3151
 9510TIP3    H250022   3.118   1.356  15.487 -1.7894 -0.6785 -1.4565
 9511TIP3   OH250023   6.028   0.484   3.695  0.0382  0.4424  0.5879
 9511TIP3    H150024   6.087   0.489   3.770 -1.7744  1.0192  2.0483
 9511TIP3    H250025   5.988   0.397   3.702 -0.7724  0.8224  0.8360
 9512TIP3   OH250026   1.963   2.552   0.349  0.8246  0.2953  0.1328
 9512TIP3    H150027   2.038   2.514   0.303  0.8425 -0.9307  1.1033
 9512TIP3    H250028   1.985   2.543   0.442  0.3139  1.6991  0.4164
 9513TIP3   OH250029   4.973   2.619  15.996  0.2574 -0.2515  0.2231
 9513TIP3    H150030   5.019   2.560  16.056  0.0213  0.7746  1.4643
 9513TIP3    H250031   4.964   2.701  16.046 -1.6756  0.0152 -0.5031
 9514TIP3   OH250032   5.192   3.600  15.778  0.0987 -0.2622  0.5155
 9514TIP3    H150033   5.240   3.635  15.854  0.5807  0.1114  0.0521
 9514TIP3    H250034   5.111   3.565  15.815 -0.4404  1.3953  1.0260
 9515TIP3   OH250035   1.806   1.288   2.968  0.1700 -0.1354  1.0040
 9515TIP3    H150036   1.868   1.357   2.991 -0.9248  1.8439 -1.5049
 9515TIP3    H250037   1.858   1.225   2.917  0.6651  0.1571  1.1504
 9516TIP3   OH250038   6.340   2.837   3.607 -0.4190  0.7894 -0.2855
 9516TIP3    H150039   6.379   2.829   3.520 -2.4740  2.1880 -1.4125
 9516TIP3    H250040   6.357   2.928   3.633  1.9456 -0.1288  1.7535
 9517TIP3   OH250041   4.211   1.962   2.084  0.3505  0.2777  0.0166
 9517TIP3    H150042   4.255   1.926   2.161 -0.9693 -0.4504  0.4505
 9517TIP3    H250043   4.276   1.955   2.014  0.6365 -1.6762  0.4179
 9518TIP3   OH250044   2.776   1.337  14.223  0.1762 -0.0750 -0.2147
 9518TIP3    H150045   2.735   1.271  14.168  1.2961  0.9659 -2.4076
 9518TIP3    H250046   2.709   1.360  14.288 -2.6850  1.3205 -3.3842
 9519TIP3   OH250047   5.491   3.414   4.167 -0.2998 -0.1957 -0.5496
 9519TIP3    H150048   5.397   3.423   4.157 -0.4723  1.1090  1.6202
 9519TIP3    H250049   5.505   3.321   4.183 -1.1252 -0.4712 -1.3234
 9520TIP3   OH250050   5.499   6.101  13.453 -0.2196  0.4396  0.2320
 9520TIP3    H150051   5.496   6.059  13.539 -0.4674  0.3794  0.1949
 9520TIP3    H250052   5.556   6.045  13.400 -2.0738 -0.9394 -0.3940
 9521TIP3   OH250053   5.630   4.030   5.298 -0.0424 -0.2870  0.0901
 9521TIP3    H150054   5.668   3.961   5.353 -0.3467  1.6429  2.9450
 9521TIP3    H250055   5.694   4.101   5.303 -1.0496  0.6656 -0.3958
 9522TIP3   OH250056   3.528   0.690  12.425 -0.1283  0.2592  0.0845
 9522TIP3    H150057   3.484   0.774  12.441  0.9616  0.4084  2.7458
 9522TIP3    H250058   3.539   0.651  12.511  0.9834 -1.8452 -0.9153
 9523TIP3   OH250059   0.081   0.594  15.197  0.0814 -0.0556 -0.0257
 9523TIP3    H150060   0.086   0.620  15.104 -3.2695  0.7391 -0.0831
 9523TIP3    H250061   0.145   0.651  15.240  1.0618  0.1939 -1.6993
 9524TIP3   OH250062   0.215   1.046  13.763 -0.2591 -0.3297 -0.9171
 9524TIP3    H150063   0.254   1.046  13.675 -1.0396 -0.1957 -1.2711
 9524TIP3    H250064   0.284   1.012  13.820 -0.4912 -2.6243 -1.9174
 9525TIP3   OH250065   6.699   6.097  14.136  0.4531 -0.1741 -0.2347
 9525TIP3    H150066   6.714   6.114  14.229 -2.1327  0.6175  0.1045
 9525TIP3    H250067   6.767   6.146  14.091  0.2804  1.4367  1.1763
 9526TIP3   OH250068   4.864   1.856  12.970 -0.2420  0.2700 -0.9016
 9526TIP3    H150069   4.809   1.903  12.907  0.7414  3.3293  0.3285
 9526TIP3    H250070   4.816   1.861  13.053  0.6015  0.5038 -0.4133
 9527TIP3   OH250071   2.892   6.193  15.467  0.3844  0.3763 -0.1559
 9527TIP3    H150072   2.859   6.272  15.424  1.5825  0.0144 -1.8343
 9527TIP3    H250073   2.966   6.166  15.412  1.3022 -0.7327  1.5747
 9528TIP3   OH250074   3.032   3.482  12.604  0.2429  0.4400  0.6819
 9528TIP3    H150075   3.011   3.493  12.697 -1.8508  0.9755  0.1977
 9528TIP3    H250076   3.037   3.572  12.571  0.0143  0.2436  0.1061
 9529TIP3   OH250077   1.426   2.968  13.195  0.1034 -0.0074  0.0356
 9529TIP3    H150078   1.395   2.964  13.105 -0.2733  1.3589  0.0928
 9529TIP3    H250079   1.521   2.972  13.189  0.1031 -0.3705 -0.2672
 9530TIP3   OH250080   5.225   6.450  16.949  0.2020 -0.3694 -0.0616
 9530TIP3    H150081   5.267   6.439  17.034  1.3697  1.4841 -0.3497
 9530TIP3    H250082   5.256   6.535  16.917 -0.3641 -0.9164 -2.2596
 9531TIP3   OH250083   3.196   0.026   2.070  0.0718  0.7852 -0.0211
 9531TIP3    H150084   3.229  -0.010   1.988  0.5052  0.1071  0.4303
 9531TIP3    H250085   3.225   0.117   2.070  1.1541  0.4541 -0.0680
 9532TIP3   OH250086   0.166   4.653   1.722 -0.0508 -0.4777 -0.0602
 9532TIP3    H150087   0.223   4.609   1.784  0.2425  0.9374  0.7237
 9532TIP3    H250088   0.139   4.733   1.767 -4.7970 -2.1588  0.7213
 9533TIP3   OH250089   3.736   1.833   2.290 -0.1273  0.4267  0.5633
 9533TIP3    H150090   3.716   1.927   2.297  0.0772  0.6916 -1.6979
 9533TIP3    H250091   3.659   1.796   2.247 -0.0669 -0.4125  1.1549
 9534TIP3   OH250092   0.737   2.971  14.805 -0.0317  0.6778 -0.0164
 9534TIP3    H150093   0.787   3.000  14.729  0.2253  0.6152  0.1267
 9534TIP3    H250094   0.791   2.904  14.846  0.1622  1.2105  0.6239
 9535TIP3   OH250095   6.673   0.199   0.286  0.4045 -0.2495 -0.2601
 9535TIP3    H150096   6.640   0.109   0.274 -0.7045  0.4710 -3.6036
 9535TIP3    H250097   6.598   0.247   0.321 -0.1257  0.0452 -1.7465
 9536TIP3   OH250098   6.472   2.094  13.733 -0.2912  0.1823  0.5565
 9536TIP3    H150099   6.380   2.086  13.758 -0.1334 -0.9898  0.8370
 9536TIP3    H250100   6.506   2.166  13.786 -0.6748 -0.4008  1.6142
 9537TIP3   OH250101   3.640   5.784  11.426 -0.1868  0.0600 -0.1807
 9537TIP3    H150102   3.634   5.852  11.359 -0.4014  0.1356 -0.0866
 9537TIP3    H250103   3.714   5.811  11.481 -1.0383  0.8777  0.5878
 9538TIP3   OH250104   2.794   6.121   0.778 -0.0667 -0.0649  0.8734
 9538TIP3    H150105   2.756   6.137   0.692 -1.1020 -3.3977  0.5787
 9538TIP3    H250106   2.721   6.129   0.839  0.4091  1.0280  1.3399
 9539TIP3   OH250107   4.171   1.283  15.716  0.3029 -0.4299  0.1014
 9539TIP3    H150108   4.115   1.335  15.773 -0.4435 -1.8063  0.6608
 9539TIP3    H250109   4.136   1.194  15.721  0.7509 -0.7666 -1.8347
 9540TIP3   OH250110   5.517   3.968   4.709  0.1204  0.3521  0.4893
 9540TIP3    H150111   5.445   3.963   4.646  0.9114 -1.3467 -0.3272
 9540TIP3    H250112   5.511   3.887   4.759  1.4147  0.2011  0.4383
 9541TIP3   OH250113   6.221   5.037   2.351  0.3179 -0.5441 -0.6671
 9541TIP3    H150114   6.142   4.984   2.346 -0.7357  1.0048 -0.9474
 9541TIP3    H250115   6.252   5.025   2.441 -0.2385 -1.1382 -0.5465
 9542TIP3   OH250116   1.910   3.491  14.196  0.2772 -0.1312  0.1753
 9542TIP3    H150117   1.871   3.434  14.130  3.7279 -1.5958 -0.7867
 9542TIP3    H250118   1.905   3.440  14.277 -0.8933  0.2552  0.3688
 9543TIP3   OH250119   1.240   1.370   2.144 -0.1373  0.5991 -0.2762
 9543TIP3    H150120   1.181   1.415   2.083 -1.0643  0.4455  0.4841
 9543TIP3    H250121   1.198   1.287   2.162  1.9266 -1.0096 -2.2527
 9544TIP3   OH250122   1.771   4.054  15.888  0.1389  0.1957 -0.3625
 9544TIP3    H150123   1.857   4.028  15.855  0.5629 -0.1005  0.9204
 9544TIP3    H250124   1.777   4.149  15.900  0.2585  0.1846 -0.3374
 9545TIP3   OH250125   3.205   5.913   5.570 -0.0018 -0.1525  0.1073
 9545TIP3    H150126   3.225   5.895   5.479 -0.9090  0.7319 -0.2832
 9545TIP3    H250127   3.133   5.854   5.592  0.6290 -0.8073  0.4465
 9546TIP3   OH250128   5.250   5.619   5.511 -0.7872 -0.1817 -0.2340
 9546TIP3    H150129   5.165   5.577   5.494 -0.0427 -1.3051 -1.3991
 9546TIP3    H250130   5.314   5.552   5.489  0.4291  0.9356 -0.1995
 9547TIP3   OH250131   2.454   2.959   5.182  0.1995  0.0952 -0.1782
 9547TIP3    H150132   2.503   2.883   5.151 -0.2758 -0.3076  0.0493
 9547TIP3    H250133   2.395   2.981   5.110 -1.5343 -1.3817  0.7059
 9548TIP3   OH250134   2.315   1.903   5.095 -0.0164  0.2746 -0.7429
 9548TIP3    H150135   2.311   1.876   5.187  0.0216  1.8122 -0.2727
 9548TIP3    H250136   2.403   1.878   5.067  0.3973  0.8738 -0.0043
 9549TIP3   OH250137   5.560   3.997   4.210 -0.4388 -0.5539 -0.1977
 9549TIP3    H150138   5.527   3.939   4.141 -2.5984  0.2646  0.0849
 9549TIP3    H250139   5.545   3.947   4.291  0.1668 -0.6670 -0.1526
 9550TIP3   OH250140   0.472   5.434  16.927  0.1937  0.7664  0.7129
 9550TIP3    H150141   0.387   5.444  16.970  0.2575 -0.3551  1.1304
 9550TIP3    H250142   0.535   5.471  16.988  0.1987 -0.1275  1.2688
 9551TIP3   OH250143   3.197   0.851  15.101  0.7139  0.2395 -0.1451
 9551TIP3    H150144   3.199   0.908  15.024  0.4733 -0.0835 -0.3937
 9551TIP3    H250145   3.142   0.777  15.074  0.5560  0.1701  0.3680
 9552TIP3   OH250146   6.012   4.204   1.127 -0.0052 -0.0618 -0.1415
 9552TIP3    H150147   6.089   4.194   1.071  1.9673  0.2513  2.3123
 9552TIP3    H250148   5.981   4.293   1.111  1.0038  0.2921 -0.1987
 9553TIP3   OH250149   0.218   3.014   2.239  0.1936  0.3120  0.3627
 9553TIP3    H150150   0.206   2.949   2.170  0.5258  0.7111 -0.0745
 9553TIP3    H250151   0.246   2.963   2.315 -3.4102 -0.6135  1.2835
 9554TIP3   OH250152   0.842   6.238   1.570 -0.6986  0.1172  0.0657
 9554TIP3    H150153   0.923   6.224   1.523 -0.3606  1.7990  0.0838
 9554TIP3    H250154   0.847   6.179   1.645 -0.5324 -1.4197 -1.1209
 9555TIP3   OH250155   6.077   4.607   6.298  0.1166  0.2898  0.0720
 9555TIP3    H150156   6.114   4.682   6.344  1.7994 -0.0755 -0.6073
 9555TIP3    H250157   6.134   4.534   6.323 -1.1229 -0.6372  0.2390
 9556TIP3   OH250158   5.529   0.675   1.835 -0.2189  0.5871 -0.4013
 9556TIP3    H150159   5.599   0.653   1.897 -0.1023  0.3044 -0.6264
 9556TIP3    H250160   5.551   0.762   1.804 -0.6944  1.0454  0.5248
 9557TIP3   OH250161   4.700   1.653  11.037 -0.4148 -0.4152  0.2386
 9557TIP3    H150162   4.719   1.602  10.958  0.5954 -1.1203  0.9241
 9557TIP3    H250163   4.636   1.600  11.084 -0.2732 -0.4728  0.3667
 9558TIP3   OH250164   5.811   4.474   2.244 -0.1832 -0.3795 -0.0919
 9558TIP3    H150165   5.869   4.518   2.183  0.4746 -2.4521 -1.0259
 9558TIP3    H250166   5.862   4.465   2.325 -0.0032 -0.2585 -0.1927
 9559TIP3   OH250167   3.372   5.128  15.363  0.4715 -0.3286 -0.2365
 9559TIP3    H150168   3.338   5.212  15.393 -0.8805 -0.3895 -1.4598
 9559TIP3    H250169   3.403   5.145  15.274  1.9965 -0.7021  0.2051
 9560TIP3   OH250170   5.539   3.805   1.977 -0.2186  0.3646 -1.2013
 9560TIP3    H150171   5.518   3.713   1.962 -1.1661  0.4281 -0.3938
 9560TIP3    H250172   5.497   3.851   1.904 -0.1932  0.2066 -1.3165
 9561TIP3   OH250173   3.952   1.956  16.782 -0.1353 -0.2423 -0.4213
 9561TIP3    H150174   3.995   1.949  16.867 -1.5926 -0.6617  0.3242
 9561TIP3    H250175   3.917   2.045  16.780  0.7779  0.1235 -1.0584
 9562TIP3   OH250176   4.347   3.055   6.015  0.3801  0.0072 -0.5985
 9562TIP3    H150177   4.324   3.062   6.107 -1.6239  0.7281 -1.0876
 9562TIP3    H250178   4.312   2.969   5.989 -1.6908  0.9809 -1.2805
 9563TIP3   OH250179   2.869   3.041  13.633  0.2038 -0.3393  0.7528
 9563TIP3    H150180   2.910   3.019  13.549 -2.9499 -1.4217 -0.6810
 9563TIP3    H250181   2.858   2.957  13.678  1.7881  0.2244  2.2733
 9564TIP3   OH250182   4.989   5.717   2.930 -0.3231  0.3295  0.2808
 9564TIP3    H150183   5.074   5.748   2.960 -0.1992  1.3048 -0.9817
 9564TIP3    H250184   4.994   5.723   2.835 -2.1329  1.3017  0.2148
 9565TIP3   OH250185   4.182   0.868   0.239 -0.2174  0.0466  0.0719
 9565TIP3    H150186   4.098   0.902   0.270  0.1146  1.6172 -0.6608
 9565TIP3    H250187   4.234   0.946   0.222  1.9778 -0.8800  1.9987
 9566TIP3   OH250188   6.243   6.133  13.266  0.3641  0.1808 -0.0996
 9566TIP3    H150189   6.302   6.204  13.290 -0.4581  0.9863 -0.3853
 9566TIP3    H250190   6.300   6.066  13.228  1.0252  1.1957 -0.9458
 9567TIP3   OH250191   1.508   5.816   5.870 -0.1110  0.4329  0.0184
 9567TIP3    H150192   1.517   5.865   5.952 -0.7394  1.0387 -0.2713
 9567TIP3    H250193   1.417   5.786   5.871  0.2929 -0.8420  0.2497
 9568TIP3   OH250194   5.547   0.826   3.789 -0.1457  0.4898  0.1061
 9568TIP3    H150195   5.598   0.771   3.730 -1.8627 -0.1239 -0.8723
 9568TIP3    H250196   5.457   0.815   3.760 -0.8599  1.4835  1.8187
 9569TIP3   OH250197   6.407   0.755   6.190  0.1929 -0.9324 -0.0224
 9569TIP3    H150198   6.496   0.754   6.157  0.1934 -1.1489 -0.0175
 9569TIP3    H250199   6.373   0.668   6.170 -0.7633 -0.1539 -2.0093
 9570TIP3   OH250200   6.331   1.232  14.027  0.5261 -0.1634 -0.0864
 9570TIP3    H150201   6.326   1.226  13.931 -0.9850  1.0839 -0.1278
 9570TIP3    H250202   6.287   1.153  14.058 -0.5892  0.2966 -0.4506
 9571TIP3   OH250203   2.267   2.106   2.570 -0.0949 -0.1135  0.5422
 9571TIP3    H150204   2.178   2.139   2.556 -0.3996 -1.1539 -0.0701
 9571TIP3    H250205   2.304   2.098   2.483  0.5396  0.1160  0.7830
 9572TIP3   OH250206   5.363   5.273  13.489 -0.2646  0.8124  0.4273
 9572TIP3    H150207   5.402   5.360  13.501 -0.8145  1.1224  0.0376
 9572TIP3    H250208   5.324   5.277  13.402  2.5124 -0.9232 -1.0378
 9573TIP3   OH250209   6.183   5.587   1.935  0.2072  0.2980 -0.1823
 9573TIP3    H150210   6.103   5.635   1.912  0.9356  1.6501  0.0076
 9573TIP3    H250211   6.242   5.654   1.970  1.5108 -0.6334 -0.5231
 9574TIP3   OH250212   5.053   6.462  14.390  0.4675  0.4549  1.0245
 9574TIP3    H150213   4.975   6.489  14.439  0.5118  1.1201  0.7326
 9574TIP3    H250214   5.054   6.366  14.398 -2.2118  0.0630 -1.6803
 9575TIP3   OH250215   1.639   3.827  12.694  0.1309  0.2660 -0.0024
 9575TIP3    H150216   1.622   3.766  12.766  0.7243  0.3418  0.2071
 9575TIP3    H250217   1.663   3.771  12.620 -0.7413  0.1716 -0.2334
 9576TIP3   OH250218   6.482   4.060   1.244  0.1385 -0.0628 -0.0080
 9576TIP3    H150219   6.552   4.085   1.304  0.3672  0.9151 -0.6558
 9576TIP3    H250220   6.516   4.082   1.157 -1.5217  1.9050 -0.2416
 9577TIP3   OH250221   2.687   1.373   3.781 -0.0480  0.3388  0.2245
 9577TIP3    H150222   2.758   1.348   3.840  1.1721 -0.4120 -1.4676
 9577TIP3    H250223   2.624   1.301   3.787  0.0269  0.3044  0.6385
 9578TIP3   OH250224   5.395   2.018  16.005  0.0667  0.2092  0.2298
 9578TIP3    H150225   5.470   2.023  15.945 -0.3765 -0.7778 -0.4515
 9578TIP3    H250226   5.362   1.928  15.994 -0.1714  0.0735  1.8081
 9579TIP3   OH250227   6.525   5.786  16.314 -0.3418  0.0808 -0.5200
 9579TIP3    H150228   6.496   5.841  16.387  0.1251 -1.8279  1.1749
 9579TIP3    H250229   6.456   5.720  16.304 -0.0392 -0.1275 -1.3475
 9580TIP3   OH250230   0.187   1.844  14.795 -0.2304 -0.1780  0.1188
 9580TIP3    H150231   0.187   1.875  14.885  0.6844 -1.7150  0.6864
 9580TIP3    H250232   0.264   1.885  14.755 -0.2386 -0.0403  0.2469
 9581TIP3   OH250233   3.105   2.590  14.379 -0.0276  0.1351 -0.0491
 9581TIP3    H150234   3.129   2.631  14.462  0.2697  2.2180 -1.1191
 9581TIP3    H250235   3.171   2.619  14.317 -0.6889 -0.7429 -1.2065
 9582TIP3   OH250236   4.168   2.656  11.592  0.0106 -0.2097 -0.1162
 9582TIP3    H150237   4.215   2.586  11.637 -3.0407 -0.5886  2.9566
 9582TIP3    H250238   4.170   2.729  11.654 -2.8214 -0.0952 -0.0192
 9583TIP3   OH250239   2.684   4.571   4.514  0.6938 -0.1066  0.0164
 9583TIP3    H150240   2.729   4.509   4.456  1.2783 -0.2734  0.6310
 9583TIP3    H250241   2.622   4.617   4.457  0.2388 -1.2653 -0.4500
 9584TIP3   OH250242   4.979   6.129  13.216 -0.0280  0.3373 -0.0269
 9584TIP3    H150243   4.999   6.130  13.310 -0.7530  0.3768  0.1297
 9584TIP3    H250244   5.006   6.216  13.186 -1.2502  0.9053  0.4621
 9585TIP3   OH250245   0.449   4.665  12.070 -0.2896 -0.1377 -0.4885
 9585TIP3    H150246   0.475   4.579  12.037 -3.1916 -0.0974 -3.3362
 9585TIP3    H250247   0.531   4.714  12.077  1.0348 -1.7393 -3.1964
 9586TIP3   OH250248   5.512   2.838   4.485 -0.4982 -0.1221  0.3686
 9586TIP3    H150249   5.594   2.848   4.534 -1.5934 -2.6265  2.9924
 9586TIP3    H250250   5.534   2.782   4.411  0.4967  0.9159 -0.1594
 9587TIP3   OH250251   4.866   2.811   4.512  0.2968 -0.1340  0.0533
 9587TIP3    H150252   4.935   2.876   4.527  1.5550 -1.2256 -0.8258
 9587TIP3    H250253   4.892   2.736   4.566  0.0842 -0.7490 -0.6910
 9588TIP3   OH250254   0.082   2.455  13.942 -0.0393 -0.5315  0.1342
 9588TIP3    H150255   0.049   2.541  13.917  0.3989 -0.6385 -0.8823
 9588TIP3    H250256   0.017   2.394  13.909 -0.2585 -0.6057  0.6926
 9589TIP3   OH250257   6.052   4.212   4.981  0.0479  0.2170  0.1065
 9589TIP3    H150258   5.994   4.137   4.981  1.1891 -0.6996  0.1236
 9589TIP3    H250259   6.032   4.258   4.899  0.8539 -1.3673 -1.0437
 9590TIP3   OH250260   5.783   1.975   2.553 -0.6192  0.1854  0.6713
 9590TIP3    H150261   5.725   2.039   2.595 -0.0121  0.5933  0.8984
 9590TIP3    H250262   5.769   1.989   2.459  0.2719  1.3796  0.6973
 9591TIP3   OH250263   4.775   2.482  16.858  0.2640 -0.0781  0.2854
 9591TIP3    H150264   4.734   2.466  16.773  0.8114 -0.1119  0.0233
 9591TIP3    H250265   4.704   2.475  16.921  0.1177 -1.5864 -0.0103
 9592TIP3   OH250266   2.061   2.948  15.966 -0.4995 -0.1754 -0.0964
 9592TIP3    H150267   2.016   3.030  15.988 -0.9377 -0.2120 -0.8224
 9592TIP3    H250268   2.043   2.891  16.041  0.8425  0.7710  1.0009
 9593TIP3   OH250269   3.317   6.334  13.954 -0.1648 -0.4668  0.4034
 9593TIP3    H150270   3.238   6.348  14.005  1.1962  0.3695  2.3804
 9593TIP3    H250271   3.314   6.400  13.884 -0.5332  0.5145  1.3291
 9594TIP3   OH250272   6.485   4.707   5.542  0.8014  0.3707 -0.0777
 9594TIP3    H150273   6.497   4.770   5.472  1.0963  0.4196  0.0155
 9594TIP3    H250274   6.390   4.702   5.554  0.7087 -0.1002 -0.8983
 9595TIP3   OH250275   0.893   2.015  13.232  0.4758 -0.7888  0.3411
 9595TIP3    H150276   0.958   2.013  13.162 -1.2639  1.4713 -1.5159
 9595TIP3    H250277   0.890   2.107  13.259  1.3119 -1.6028  3.7525
 9596TIP3   OH250278   0.506   0.915  15.786  0.5968 -0.4905  0.3510
 9596TIP3    H150279   0.518   0.832  15.832  1.7830 -0.9618 -0.7684
 9596TIP3    H250280   0.485   0.977  15.856  0.2754 -1.5985  1.2805
 9597TIP3   OH250281   2.558   2.741   0.003 -0.6433  0.1619  0.0389
 9597TIP3    H150282   2.601   2.677   0.060 -0.0238  0.4334 -0.1102
 9597TIP3    H250283   2.533   2.812   0.062  0.5926  0.7451 -0.1091
 9598TIP3   OH250284   5.528   0.970  10.780  0.1068  0.0544 -0.0682
 9598TIP3    H150285   5.433   0.959  10.787  0.3034 -1.5837  0.4843
 9598TIP3    H250286   5.555   0.991  10.869  0.3347 -0.1661 -0.0866
 9599TIP3   OH250287   1.861   2.165   2.772  0.2318  0.3792  0.2207
 9599TIP3    H150288   1.907   2.085   2.799 -0.5659 -0.4317 -0.7438
 9599TIP3    H250289   1.912   2.199   2.699  0.5985  0.8016  0.6618
 9600TIP3   OH250290   5.672   5.316   6.201  0.3382  0.1491  0.7974
 9600TIP3    H150291   5.633   5.334   6.115  0.3240 -1.1038  0.5178
 9600TIP3    H250292   5.620   5.366   6.263 -1.1031 -0.7182  0.3218
 9601TIP3   OH250293   0.195   2.469   2.492 -0.0180  0.1279 -0.0904
 9601TIP3    H150294   0.193   2.374   2.484 -1.0646  0.2435 -1.7682
 9601TIP3    H250295   0.111   2.498   2.456 -0.2258  1.6360  1.4855
 9602TIP3   OH250296   1.243   2.382  16.136 -0.4327  0.3623  0.4187
 9602TIP3    H150297   1.313   2.416  16.080  0.3114  0.8814  1.6215
 9602TIP3    H250298   1.257   2.287  16.137 -0.6079  0.3176 -0.4493
 9603TIP3   OH250299   4.961   2.488   0.858  0.1039  0.3912  0.2634
 9603TIP3    H150300   4.942   2.517   0.769  0.3838 -0.6980 -0.1657
 9603TIP3    H250301   5.045   2.442   0.851 -0.2293 -0.3519  0.9328
 9604TIP3   OH250302   3.721   2.507  12.378 -0.2537 -0.3063 -0.2293
 9604TIP3    H150303   3.780   2.470  12.444  2.2956 -0.3100 -2.3190
 9604TIP3    H250304   3.641   2.456  12.386  0.3971 -1.1034  1.9996
 9605TIP3   OH250305   0.546   6.065  13.908 -0.2059  0.0950 -0.0504
 9605TIP3    H150306   0.574   6.112  13.987 -0.4483  0.7891 -0.3607
 9605TIP3    H250307   0.576   5.976  13.921 -2.1867 -0.4031  1.8772
 9606TIP3   OH250308   3.166   3.698  11.867  0.6420  0.4037 -0.0462
 9606TIP3    H150309   3.109   3.727  11.938 -1.1334  0.1246 -1.2802
 9606TIP3    H250310   3.162   3.603  11.869  1.0921  0.3802 -0.1244
 9607TIP3   OH250311   2.864   0.179   4.346  0.2433 -0.1411 -0.0823
 9607TIP3    H150312   2.919   0.247   4.307  1.3841 -1.6778 -1.2876
 9607TIP3    H250313   2.775   0.201   4.317  0.3292  1.6642  0.8496
 9608TIP3   OH250314   5.463   1.958  10.761  0.3332 -0.1070 -0.2810
 9608TIP3    H150315   5.477   1.903  10.684  2.5007  1.0576 -0.8066
 9608TIP3    H250316   5.490   1.903  10.835  0.4960 -0.4251 -0.5729
 9609TIP3   OH250317   2.539   6.745   5.576 -0.2838  0.2668 -0.5094
 9609TIP3    H150318   2.627   6.713   5.557 -0.6926 -0.8663 -0.5347
 9609TIP3    H250319   2.486   6.714   5.503 -0.8864  0.1713 -0.0348
 9610TIP3   OH250320   0.819   4.884  11.382 -0.2334 -0.2884 -0.5241
 9610TIP3    H150321   0.891   4.922  11.432 -0.5950 -1.5536  1.0113
 9610TIP3    H250322   0.792   4.954  11.322  0.9996  0.8554  0.2043
 9611TIP3   OH250323   5.879   0.404  13.470  0.0180 -0.2503 -0.2149
 9611TIP3    H150324   5.802   0.375  13.422 -0.0762  0.0381 -0.2440
 9611TIP3    H250325   5.940   0.432  13.402  0.1677 -0.5232 -0.1935
 9612TIP3   OH250326   1.346   4.031  14.156 -0.0517  0.1525  0.2380
 9612TIP3    H150327   1.391   4.102  14.200 -0.3548  1.2844 -1.2027
 9612TIP3    H250328   1.360   4.047  14.063 -2.9182  0.2992 -0.2882
 9613TIP3   OH250329   1.392   6.262   0.871 -0.3018  0.0908  0.3134
 9613TIP3    H150330   1.352   6.329   0.926  0.8614  0.7305  0.4166
 9613TIP3    H250331   1.365   6.284   0.782 -0.6972  0.1339  0.4449
 9614TIP3   OH250332   0.690   1.419   3.224 -0.1077 -0.9315  0.1503
 9614TIP3    H150333   0.621   1.485   3.228  0.6207 -0.0290 -1.1905
 9614TIP3    H250334   0.653   1.342   3.266 -0.9439  0.3565  1.8850
 9615TIP3   OH250335   1.674   1.832  16.836  0.0921  0.3985  0.5439
 9615TIP3    H150336   1.692   1.926  16.827  0.0188  0.4133  0.5481
 9615TIP3    H250337   1.757   1.790  16.818  0.7700  0.5603  2.9864
 9616TIP3   OH250338   1.578   2.499  12.797  0.3682  0.3896  0.2848
 9616TIP3    H150339   1.505   2.475  12.740 -0.8900  0.1174  1.9246
 9616TIP3    H250340   1.633   2.421  12.801  0.0969  0.1804 -0.0203
 9617TIP3   OH250341   6.362   2.205  14.298 -0.0924  0.1994  0.0738
 9617TIP3    H150342   6.298   2.137  14.275  1.2351 -1.3758  0.8139
 9617TIP3    H250343   6.348   2.222  14.391  2.4408 -2.4652  1.1192
 9618TIP3   OH250344   6.833   1.806  11.713  0.0204  0.2006 -0.0421
 9618TIP3    H150345   6.764   1.793  11.647  0.1893 -0.3640 -0.1136
 9618TIP3    H250346   6.913   1.781  11.668  0.2526  0.6870  0.0974
 9619TIP3   OH250347   2.365   1.645   5.426  0.3621  0.5124 -0.4457
 9619TIP3    H150348   2.397   1.603   5.346  0.7892  0.5392 -0.2913
 9619TIP3    H250349   2.273   1.620   5.431  1.1268 -2.3498  0.8610
 9620TIP3   OH250350   3.554   2.886   1.919 -0.1408 -0.2064 -0.1762
 9620TIP3    H150351   3.612   2.957   1.947  0.2428  0.4792 -2.4635
 9620TIP3    H250352   3.485   2.930   1.869 -0.0513 -1.4050 -1.4007
 9621TIP3   OH250353   4.480   0.403   2.418 -0.3519  0.1953 -0.1615
 9621TIP3    H150354   4.480   0.381   2.511 -0.2879 -0.3793 -0.2900
 9621TIP3    H250355   4.519   0.490   2.413 -0.7219  0.3923  0.3851
 9622TIP3   OH250356   4.874   1.713  11.273  0.4721 -0.3829 -0.0696
 9622TIP3    H150357   4.826   1.678  11.198  0.2247  1.6979 -0.9372
 9622TIP3    H250358   4.823   1.685  11.349 -0.4400 -0.7523 -0.7982
 9623TIP3   OH250359   2.943   4.705  13.658 -0.5297  0.2396  0.0420
 9623TIP3    H150360   3.019   4.648  13.651 -0.5398  0.2357 -0.0353
 9623TIP3    H250361   2.887   4.663  13.723 -0.1253  0.6262  0.6516
 9624TIP3   OH250362   5.078   1.164  15.072  0.0204  0.2337  0.1046
 9624TIP3    H150363   5.063   1.180  15.165  0.7410 -2.4653  0.7669
 9624TIP3    H250364   5.045   1.075  15.058  1.7669 -0.1727 -1.7615
 9625TIP3   OH250365   1.684   0.399  12.756 -0.1664 -0.2788  0.1635
 9625TIP3    H150366   1.642   0.437  12.678 -1.1337  0.0209  0.8098
 9625TIP3    H250367   1.626   0.326  12.780  2.0048 -2.7163 -1.4643
 9626TIP3   OH250368   4.255   6.595  15.415 -0.2383 -0.1642 -0.1088
 9626TIP3    H150369   4.193   6.544  15.364  0.4842 -1.1501 -0.0215
 9626TIP3    H250370   4.298   6.651  15.350  1.0371 -1.7717 -0.7093
 9627TIP3   OH250371   3.666   2.333   3.523 -0.3070  0.0868  0.2830
 9627TIP3    H150372   3.578   2.306   3.498  0.3466 -0.5259 -1.4942
 9627TIP3    H250373   3.717   2.252   3.527  0.5618  0.5709 -0.4397
 9628TIP3   OH250374   3.886   2.034   4.415 -0.1513 -0.0488 -0.1870
 9628TIP3    H150375   3.932   1.966   4.365  0.9680  0.9840 -0.5983
 9628TIP3    H250376   3.947   2.057   4.485 -0.2513  0.9712 -0.4258
 9629TIP3   OH250377   5.550   0.496  13.937  0.3604 -0.1624 -0.1124
 9629TIP3    H150378   5.521   0.460  13.854 -2.2692  1.1170  0.1425
 9629TIP3    H250379   5.502   0.445  14.003 -0.0206  0.8939  0.4418
 9630TIP3   OH250380   2.760   0.120  14.308 -0.0627  0.2471  0.1945
 9630TIP3    H150381   2.788   0.207  14.334 -0.1688  0.8512 -1.5855
 9630TIP3    H250382   2.670   0.130  14.277 -0.0810 -0.4849 -0.0322
 9631TIP3   OH250383   6.470   0.569   0.902  0.6471  0.0665  0.4110
 9631TIP3    H150384   6.425   0.523   0.972  0.1013  0.9933  0.6864
 9631TIP3    H250385   6.461   0.511   0.826 -2.3537  0.8646  0.0596
 9632TIP3   OH250386   1.632   4.504   4.049  0.1196 -0.0233 -0.4622
 9632TIP3    H150387   1.635   4.417   4.090  2.6476 -1.0362 -2.5381
 9632TIP3    H250388   1.614   4.486   3.957  4.1033  1.1931 -1.6745
 9633TIP3   OH250389   0.559   3.563  15.287  0.3518 -0.3080 -0.7113
 9633TIP3    H150390   0.587   3.644  15.245 -1.3393  0.3113 -0.7152
 9633TIP3    H250391   0.504   3.520  15.222 -0.2470 -0.5606 -0.0536
 9634TIP3   OH250392   0.489   0.803   1.649 -0.1358  0.8965 -0.3213
 9634TIP3    H150393   0.396   0.787   1.662  0.1898  0.3314  1.6469
 9634TIP3    H250394   0.526   0.716   1.635  0.0947  1.1364 -1.2797
 9635TIP3   OH250395   5.838   4.718   6.238 -0.3974  0.1702 -1.0017
 9635TIP3    H150396   5.801   4.729   6.326  0.6312  1.5525 -0.7233
 9635TIP3    H250397   5.909   4.655   6.250 -0.6098 -0.0691 -0.9649
 9636TIP3   OH250398   5.065   6.691  11.554  0.4833  0.7847 -0.1127
 9636TIP3    H150399   5.147   6.687  11.505  1.9869 -1.5438  2.3187
 9636TIP3    H250400   5.079   6.761  11.618  0.5792  0.4394  0.2510
 9637TIP3   OH250401   6.333   2.240  13.169  0.4366 -0.4553 -0.2255
 9637TIP3    H150402   6.414   2.208  13.130 -0.5906 -2.0035 -1.2364
 9637TIP3    H250403   6.305   2.169  13.227  0.0679  0.2907  0.5315
 9638TIP3   OH250404   1.921   2.245  10.889 -0.3883  0.9351 -0.1089
 9638TIP3    H150405   1.942   2.205  10.973  1.2858  1.0736 -0.4221
 9638TIP3    H250406   1.968   2.328  10.889 -1.4555  1.5701 -0.6539
 9639TIP3   OH250407   4.868   0.369  15.684  0.5925  0.8215 -0.0528
 9639TIP3    H150408   4.914   0.290  15.712  0.3876  0.8040  0.2393
 9639TIP3    H250409   4.846   0.353  15.592  1.1955  0.8424 -0.2048
 9640TIP3   OH250410   0.484   1.730  15.637 -0.2530 -0.3219 -0.0620
 9640TIP3    H150411   0.569   1.698  15.608 -0.6564 -0.7150 -0.8449
 9640TIP3    H250412   0.475   1.697  15.726 -0.2140 -1.5364 -0.4944
 9641TIP3   OH250413   2.167   1.802   1.851 -0.3227 -0.5840  0.4816
 9641TIP3    H150414   2.119   1.729   1.812  0.2292 -0.1809 -1.0104
 9641TIP3    H250415   2.147   1.796   1.944 -2.0009 -1.3542  0.1189
 9642TIP3   OH250416   1.585   0.060   3.489  0.2984  0.7799 -0.2662
 9642TIP3    H150417   1.590   0.156   3.481 -1.1024  0.9452  0.5541
 9642TIP3    H250418   1.603   0.028   3.401  0.1708  1.8270 -0.6899
 9643TIP3   OH250419   2.458   1.214  14.822 -0.5657 -0.0964  0.2902
 9643TIP3    H150420   2.379   1.250  14.863 -0.9043 -0.8907  0.3649
 9643TIP3    H250421   2.438   1.120  14.812  0.3986 -0.3171  0.3811
 9644TIP3   OH250422   6.420   3.691  13.456  0.8044 -0.3111  0.2712
 9644TIP3    H150423   6.363   3.626  13.415  1.2031 -0.5822  0.1394
 9644TIP3    H250424   6.509   3.659  13.439  1.0466  0.9137 -0.8666
 9645TIP3   OH250425   3.538   1.801   4.339  0.5749  0.1283  0.4478
 9645TIP3    H150426   3.624   1.772   4.309  0.6868  0.1277  0.7696
 9645TIP3    H250427   3.547   1.812   4.434 -0.3544 -1.8730  0.8173
 9646TIP3   OH250428   0.406   6.015   5.229 -0.6006  0.2341 -0.0409
 9646TIP3    H150429   0.344   6.080   5.263  1.0250  0.7535  2.1836
 9646TIP3    H250430   0.383   5.934   5.274 -0.0680  0.2904  0.3460
 9647TIP3   OH250431   1.377   5.952   5.286  0.1820 -0.8212 -0.0378
 9647TIP3    H150432   1.354   6.038   5.251  1.7014 -0.1006  0.6343
 9647TIP3    H250433   1.305   5.930   5.345 -1.7022 -1.3989 -2.3975
 9648TIP3   OH250434   1.811   3.746   2.205 -0.6365  0.0297  0.1371
 9648TIP3    H150435   1.890   3.762   2.256 -0.3971  0.7840 -0.4588
 9648TIP3    H250436   1.746   3.718   2.270  0.0202 -0.2850  0.6728
 9649TIP3   OH250437   6.058   2.607   5.086  0.2368 -0.6458 -0.5281
 9649TIP3    H150438   6.039   2.515   5.103 -0.2747 -0.2501  1.3260
 9649TIP3    H250439   6.141   2.623   5.132 -1.0518  0.4203  1.6167
 9650TIP3   OH250440   1.781   4.952   5.225 -0.0319  0.0917 -0.7884
 9650TIP3    H150441   1.836   4.949   5.147 -0.6336 -0.2789 -1.2116
 9650TIP3    H250442   1.781   4.862   5.258 -1.3033 -0.1892 -1.4691
 9651TIP3   OH250443   6.304   2.354  11.565  0.0971  0.2883 -0.6268
 9651TIP3    H150444   6.390   2.318  11.588 -0.2730 -2.2723 -2.6748
 9651TIP3    H250445   6.291   2.326  11.474 -2.6726  1.0614 -0.5418
 9652TIP3   OH250446   2.486   4.268  15.570  0.1457  0.5448  0.0685
 9652TIP3    H150447   2.564   4.311  15.605  0.7782 -0.6191  0.1343
 9652TIP3    H250448   2.509   4.175  15.567 -2.0936 -0.2055  2.4788
 9653TIP3   OH250449   4.132   1.346  11.773  0.3688  0.6442 -0.0986
 9653TIP3    H150450   4.210   1.346  11.718 -0.0068  1.7124 -0.6524
 9653TIP3    H250451   4.075   1.280  11.734  0.8523  0.0916  0.1150
 9654TIP3   OH250452   6.322   6.778   0.379  0.2331  0.2434  0.2607
 9654TIP3    H150453   6.334   6.847   0.444 -1.6834 -0.6516  1.6687
 9654TIP3    H250454   6.286   6.822   0.303 -1.3532  0.8040  1.2839
 9655TIP3   OH250455   4.312   0.564   5.390  0.1848  0.4030 -0.2982
 9655TIP3    H150456   4.365   0.513   5.329 -0.5233  0.1000 -0.6625
 9655TIP3    H250457   4.278   0.499   5.452 -1.4766  0.2641 -1.3058
 9656TIP3   OH250458   4.043   3.895  12.025  0.1910  0.3599  0.1519
 9656TIP3    H150459   4.037   3.983  11.988  0.3821 -0.7350 -2.7197
 9656TIP3    H250460   3.965   3.850  11.994  1.0087 -1.0221  0.0220
 9657TIP3   OH250461   0.280   0.719  13.530  0.1005  0.0512  0.4265
 9657TIP3    H150462   0.186   0.711  13.518  0.2730 -0.6855 -0.6486
 9657TIP3    H250463   0.300   0.810  13.509 -0.7235  1.0938  3.6196
 9658TIP3   OH250464   2.439   5.959   2.922  0.3680 -0.7104  0.3294
 9658TIP3    H150465   2.528   5.961   2.957 -0.2072 -0.4784  1.8374
 9658TIP3    H250466   2.428   6.043   2.877  0.5292 -0.2468  1.1479
 9659TIP3   OH250467   0.382   4.102   0.189 -0.4096 -0.3670 -0.3039
 9659TIP3    H150468   0.329   4.024   0.206  0.3183 -1.2083 -1.7524
 9659TIP3    H250469   0.357   4.164   0.258  0.1236 -2.4200  1.8636
 9660TIP3   OH250470   4.592   6.069  12.251 -0.9193  0.1677 -0.0858
 9660TIP3    H150471   4.542   6.024  12.319 -2.6963 -2.0412 -2.6427
 9660TIP3    H250472   4.553   6.157  12.247 -0.6806  0.3906  1.7721
 9661TIP3   OH250473   3.869   1.450   6.395 -0.1849 -0.3928  0.7482
 9661TIP3    H150474   3.810   1.521   6.370  0.2053 -0.1705  0.4469
 9661TIP3    H250475   3.829   1.412   6.473 -2.1356 -1.9480 -0.9203
 9662TIP3   OH250476   5.734   1.357   4.793 -0.4017 -0.6935  0.1762
 9662TIP3    H150477   5.681   1.314   4.860  1.2760 -2.6878  0.3007
 9662TIP3    H250478   5.690   1.335   4.711 -0.0091 -1.9963  0.3044
 9663TIP3   OH250479   5.406   6.791   5.888  0.8461 -0.3585  0.6291
 9663TIP3    H150480   5.443   6.816   5.803 -0.0724 -2.0469 -0.3064
 9663TIP3    H250481   5.330   6.849   5.899  0.6806 -0.4707  0.0738
 9664TIP3   OH250482   5.323   0.044   2.858  0.3069 -0.2506 -0.3468
 9664TIP3    H150483   5.389  -0.016   2.824 -0.2881 -0.3871 -1.3132
 9664TIP3    H250484   5.294   0.094   2.781 -1.8777 -1.3380 -0.3035
 9665TIP3   OH250485   4.884   4.121   0.967 -0.4285 -0.7237 -0.0881
 9665TIP3    H150486   4.863   4.082   1.051  1.3803 -2.1270 -0.2404
 9665TIP3    H250487   4.961   4.074   0.936  2.0090  2.9243 -0.2961
 9666TIP3   OH250488   6.822   1.523  13.166  0.6563  0.3986  0.5350
 9666TIP3    H150489   6.767   1.590  13.208  0.4024 -0.9259  2.4790
 9666TIP3    H250490   6.901   1.569  13.141 -0.2666  1.8089  0.0906
 9667TIP3   OH250491   1.829   4.263  12.574 -0.4305  0.0985 -0.2854
 9667TIP3    H150492   1.768   4.227  12.638 -0.5174  0.4166 -0.1876
 9667TIP3    H250493   1.909   4.212  12.586 -0.1910  0.6550  0.6080
 9668TIP3   OH250494   2.874   1.327   3.002  0.2354 -0.3686  0.0729
 9668TIP3    H150495   2.841   1.381   3.073 -1.4192 -1.1147 -0.0883
 9668TIP3    H250496   2.959   1.365   2.981  0.8480 -0.2180  2.5309
 9669TIP3   OH250497   5.677   0.368   6.069 -0.1807  0.4120 -0.4788
 9669TIP3    H150498   5.724   0.310   6.130 -0.0730  1.3937  0.3868
 9669TIP3    H250499   5.600   0.318   6.044  1.5253 -1.4972 -2.3744
 9670TIP3   OH250500   1.129   2.332   2.622 -0.0235 -0.2245 -0.1863
 9670TIP3    H150501   1.085   2.250   2.642 -1.9008  1.1110  1.5603
 9670TIP3    H250502   1.201   2.337   2.686 -1.7964  0.8199  1.8709
 9671TIP3   OH250503   4.301   0.620  14.098  0.1726 -0.0283 -0.3428
 9671TIP3    H150504   4.236   0.552  14.080  0.7229 -0.1206 -2.1970
 9671TIP3    H250505   4.380   0.572  14.120 -0.0197  0.0708  0.6208
 9672TIP3   OH250506   4.518   6.596  11.812 -0.2373 -0.0410  0.4910
 9672TIP3    H150507   4.492   6.667  11.871 -0.0214 -0.2276  0.8138
 9672TIP3    H250508   4.596   6.631  11.767 -1.3087  0.7215 -0.8538
 9673TIP3   OH250509   6.703   3.223   0.988 -0.2202 -0.3039  0.5887
 9673TIP3    H150510   6.638   3.293   0.985 -0.7300 -0.7986 -0.8080
 9673TIP3    H250511   6.654   3.147   1.021 -0.3891 -0.6812 -0.4804
 9674TIP3   OH250512   1.483   1.003  13.015 -0.0273 -0.3819  0.6809
 9674TIP3    H150513   1.405   1.054  12.995  0.0677  0.4189  2.2338
 9674TIP3    H250514   1.450   0.919  13.045 -0.2227 -0.7267 -0.4516
 9675TIP3   OH250515   5.908   1.643   4.919 -0.4795 -0.0735 -0.0057
 9675TIP3    H150516   5.834   1.584   4.933  0.1279 -1.5653 -2.4899
 9675TIP3    H250517   5.981   1.601   4.964 -0.9021  1.0438  1.8442
 9676TIP3   OH250518   0.995   5.773   0.999 -0.0955  0.0097  0.2094
 9676TIP3    H150519   1.022   5.800   0.912  0.8723 -0.3862  0.3681
 9676TIP3    H250520   0.900   5.769   0.995 -0.2561  2.5697 -0.0606
 9677TIP3   OH250521   2.608   4.337  11.283  0.5795  0.6365  0.3201
 9677TIP3    H150522   2.675   4.337  11.214 -0.6335  0.6890 -0.8984
 9677TIP3    H250523   2.543   4.274  11.252 -0.4572  1.3715  0.9527
 9678TIP3   OH250524   2.585   2.445   4.968  0.0403  0.6026  0.0955
 9678TIP3    H150525   2.629   2.525   4.941  0.1069  0.8854  1.0102
 9678TIP3    H250526   2.603   2.438   5.062  0.2784 -0.6355 -0.0247
 9679TIP3   OH250527   2.557   2.126  16.254 -0.5361  0.2300  1.0711
 9679TIP3    H150528   2.508   2.123  16.172  1.2370  1.3404 -0.1013
 9679TIP3    H250529   2.546   2.039  16.292 -0.8535 -0.5237 -0.6664
 9680TIP3   OH250530   4.700   0.124  11.784 -0.8771 -1.0327  0.4028
 9680TIP3    H150531   4.774   0.178  11.755 -0.6763 -0.6145  1.5985
 9680TIP3    H250532   4.694   0.054  11.720 -0.2984 -0.3126 -0.4610
 9681TIP3   OH250533   5.388   4.844  14.269  0.2224 -0.4724 -0.1506
 9681TIP3    H150534   5.422   4.809  14.351  0.3391 -1.7025 -0.6973
 9681TIP3    H250535   5.338   4.771  14.231  0.0737  0.1076 -1.1056
 9682TIP3   OH250536   0.635   3.346  11.011  0.3558  0.5063  0.3909
 9682TIP3    H150537   0.576   3.349  10.935 -1.2085 -2.4786  1.3481
 9682TIP3    H250538   0.586   3.389  11.081 -0.2838 -1.0165  0.9068
 9683TIP3   OH250539   4.799   1.938   4.744 -0.2597 -0.0968 -0.7087
 9683TIP3    H150540   4.756   1.975   4.667 -2.4164 -1.2305 -0.1204
 9683TIP3    H250541   4.769   1.993   4.817  1.5438  0.7929 -0.5777
 9684TIP3   OH250542   1.349   5.450  12.580  0.0650  0.1443  0.0641
 9684TIP3    H150543   1.311   5.474  12.665 -0.9477 -0.7404 -0.1168
 9684TIP3    H250544   1.305   5.368  12.557 -3.2174  2.5247 -3.4412
 9685TIP3   OH250545   3.231   6.178   4.181  0.1401 -1.0800 -0.2485
 9685TIP3    H150546   3.304   6.203   4.124  1.1561 -2.2542  0.4983
 9685TIP3    H250547   3.152   6.201   4.131  0.9990  0.9069 -0.7567
 9686TIP3   OH250548   3.632   2.401   4.320  0.1380  1.1239  0.1953
 9686TIP3    H150549   3.641   2.332   4.386 -0.5085  0.2204 -0.6260
 9686TIP3    H250550   3.672   2.364   4.241 -2.3788  0.6454 -0.9591
 9687TIP3   OH250551   3.452   1.272   2.186 -0.0375 -0.1459  0.1657
 9687TIP3    H150552   3.457   1.199   2.248 -2.1534 -1.8011 -1.4941
 9687TIP3    H250553   3.376   1.322   2.215  0.1779  0.2373  0.0712
 9688TIP3   OH250554   6.450   3.086   3.624 -0.2634  0.1430  0.0539
 9688TIP3    H150555   6.426   3.178   3.614  1.6078  0.6970  0.2496
 9688TIP3    H250556   6.506   3.068   3.548  1.8628  0.1019  1.5276
 9689TIP3   OH250557   6.020   0.009  17.066  0.3657  0.2281  0.0175
 9689TIP3    H150558   5.975   0.094  17.067  0.6464  0.3815 -0.3473
 9689TIP3    H250559   6.049  -0.002  16.976 -2.0172 -1.4951 -0.6692
 9690TIP3   OH250560   3.227   6.413  14.990  0.1039  0.0377 -0.4386
 9690TIP3    H150561   3.156   6.370  15.038 -1.4212  0.0042 -2.5743
 9690TIP3    H250562   3.307   6.373  15.024 -0.9317 -0.4984  1.4958
 9691TIP3   OH250563   2.899   1.462  15.253  0.1691  0.5890 -0.2176
 9691TIP3    H150564   2.973   1.502  15.207  0.4569  1.5858  1.0618
 9691TIP3    H250565   2.826   1.521  15.237  0.3829  1.1921  0.9535
 9692TIP3   OH250566   6.344   0.243  14.644  0.2856 -0.1919  0.3321
 9692TIP3    H150567   6.285   0.282  14.708  0.0983  0.2030 -0.0776
 9692TIP3    H250568   6.322   0.150  14.645  0.1525 -0.1547  0.7058
 9693TIP3   OH250569   6.579   3.319  13.279  0.1018  0.0265 -0.3412
 9693TIP3    H150570   6.488   3.310  13.252  0.8001 -1.2603 -2.5958
 9693TIP3    H250571   6.618   3.379  13.215  1.6246 -2.4013 -1.8669
 9694TIP3   OH250572   5.484   0.242   5.917 -0.7271 -0.9302 -0.5583
 9694TIP3    H150573   5.394   0.275   5.917 -0.8862 -1.3469 -1.1302
 9694TIP3    H250574   5.483   0.171   5.853 -0.6643 -2.7599  1.3615
 9695TIP3   OH250575   6.750   1.371  12.049  0.1284  0.1647 -0.0848
 9695TIP3    H150576   6.814   1.430  12.009  2.0397 -1.0871  0.9737
 9695TIP3    H250577   6.715   1.320  11.976  0.2732  0.9114 -0.6869
 9696TIP3   OH250578   3.257   6.114   2.517 -0.4339  0.3249 -0.0627
 9696TIP3    H150579   3.207   6.122   2.436  1.2404  1.9501 -0.9923
 9696TIP3    H250580   3.332   6.059   2.494 -0.5317 -0.1572  0.7114
 9697TIP3   OH250581   6.019   3.648   5.887  0.1652  0.6067  0.1479
 9697TIP3    H150582   6.059   3.727   5.924 -0.7356  0.2399  1.9802
 9697TIP3    H250583   6.025   3.583   5.956 -2.0643  0.0482 -0.1376
 9698TIP3   OH250584   5.078   1.993  16.695 -0.4694  0.3455  0.0903
 9698TIP3    H150585   5.098   2.084  16.716  3.9038 -0.9052  2.6104
 9698TIP3    H250586   5.105   1.983  16.604  0.9113  1.2188  0.3640
 9699TIP3   OH250587   0.990   2.689  12.228  0.2511  0.0358  0.3733
 9699TIP3    H150588   0.957   2.770  12.189  1.3577  0.0088 -0.6902
 9699TIP3    H250589   0.911   2.641  12.253 -0.5751 -0.0354 -2.0806
 9700TIP3   OH250590   2.303   1.556  16.741 -0.0577 -0.5150 -0.1816
 9700TIP3    H150591   2.389   1.562  16.782  0.3240  1.3742 -1.1450
 9700TIP3    H250592   2.261   1.641  16.760 -0.5243 -0.2450 -2.1749
 9701TIP3   OH250593   3.663   0.021   4.030  0.4304 -0.1029 -0.1650
 9701TIP3    H150594   3.679  -0.007   3.940  0.4123 -1.1198  0.1361
 9701TIP3    H250595   3.750   0.043   4.064  0.5926 -0.8286 -0.0859
 9702TIP3   OH250596   6.404   3.483   3.645  0.1814 -0.3219  0.1061
 9702TIP3    H150597   6.344   3.557   3.630  1.5078  0.7248 -0.2337
 9702TIP3    H250598   6.450   3.471   3.562 -0.2882 -1.8189  0.0344
 9703TIP3   OH250599   0.623   3.900  14.591  0.3291 -0.1711  0.4014
 9703TIP3    H150600   0.671   3.888  14.509  0.2983  0.1340  0.3378
 9703TIP3    H250601   0.638   3.991  14.615  0.0345 -0.1580  0.5408
 9704TIP3   OH250602   2.295   6.339   5.927 -0.5566 -0.8634 -0.0522
 9704TIP3    H150603   2.217   6.312   5.975 -0.5133 -0.9677 -0.0412
 9704TIP3    H250604   2.320   6.422   5.968 -1.7308  0.1417 -1.2413
 9705TIP3   OH250605   3.823   2.386   0.724  0.3552 -0.4917  0.0387
 9705TIP3    H150606   3.840   2.379   0.818 -0.9502 -2.3898  0.1794
 9705TIP3    H250607   3.812   2.480   0.710  2.9661  0.0959  1.2849
 9706TIP3   OH250608   1.083   4.210  16.274  0.5732 -0.3919 -0.3134
 9706TIP3    H150609   1.018   4.140  16.276  1.0787 -0.9077  3.1608
 9706TIP3    H250610   1.033   4.289  16.298  1.1425 -0.8702  2.8615
 9707TIP3   OH250611   1.192   1.010  12.295  0.0571  0.1091  0.2160
 9707TIP3    H150612   1.228   1.092  12.260 -0.2337  0.4308  0.6538
 9707TIP3    H250613   1.124   1.038  12.356 -1.1931 -0.4990 -0.8555
 9708TIP3   OH250614   6.382   4.502  12.680  0.3157 -0.0088  0.4560
 9708TIP3    H150615   6.415   4.420  12.643  2.5369  0.9740  0.1121
 9708TIP3    H250616   6.449   4.527  12.744 -0.8237  1.0412  1.2667
 9709TIP3   OH250617   0.622   2.139   0.852 -0.0618 -0.2731  0.2883
 9709TIP3    H150618   0.552   2.200   0.874 -1.6655 -2.5511  1.9223
 9709TIP3    H250619   0.692   2.160   0.915 -0.1490  0.5225  0.1374
 9710TIP3   OH250620   4.359   4.499   5.613  0.3063  0.5656 -0.2500
 9710TIP3    H150621   4.361   4.593   5.595  0.6175  0.7263  0.5841
 9710TIP3    H250622   4.450   4.470   5.601  0.1880  0.3415 -0.6334
 9711TIP3   OH250623   4.585   1.387   2.976  0.3204  0.2943 -0.2291
 9711TIP3    H150624   4.606   1.377   2.883 -0.2009 -0.9087 -0.2283
 9711TIP3    H250625   4.620   1.309   3.017 -0.0295  0.5103  0.4936
 9712TIP3   OH250626   2.244   4.386   6.280  0.1867  0.2799  0.1308
 9712TIP3    H150627   2.305   4.459   6.272 -0.1714  0.6648  0.8160
 9712TIP3    H250628   2.300   4.308   6.283  0.8566  0.7590  3.1242
 9713TIP3   OH250629   2.630   2.643   1.226 -0.6259 -0.1782 -0.4829
 9713TIP3    H150630   2.563   2.676   1.166  0.1536 -1.7446 -2.2986
 9713TIP3    H250631   2.658   2.560   1.188  0.9323 -0.5496  1.3163
 9714TIP3   OH250632   0.195   3.988   2.019 -0.0474 -0.4415 -0.1189
 9714TIP3    H150633   0.225   3.901   2.046  1.3840 -0.0945 -0.5178
 9714TIP3    H250634   0.180   4.035   2.101  0.6963 -0.5722  0.0984
 9715TIP3   OH250635   1.559   1.078   4.927  0.0062 -0.1407 -0.3432
 9715TIP3    H150636   1.480   1.132   4.933 -1.7855 -2.5824  0.1012
 9715TIP3    H250637   1.571   1.045   5.016  0.1219 -1.5951 -0.8737
 9716TIP3   OH250638   0.253   2.157   2.419 -0.9031 -0.3037  0.2801
 9716TIP3    H150639   0.209   2.088   2.369  0.1305 -0.2227 -0.7909
 9716TIP3    H250640   0.317   2.193   2.358 -0.0000  0.2091  1.5015
 9717TIP3   OH250641   2.717   1.496   4.087  0.1564  0.7087 -0.1235
 9717TIP3    H150642   2.742   1.585   4.112  0.3968 -0.0377  2.5748
 9717TIP3    H250643   2.623   1.500   4.072  0.3422  1.6215 -1.1732
 9718TIP3   OH250644   3.493   1.528  13.207 -0.2149  0.9775  0.5060
 9718TIP3    H150645   3.460   1.612  13.174 -2.4444 -0.9585 -2.8027
 9718TIP3    H250646   3.548   1.495  13.136 -1.6796 -1.5306  0.4223
 9719TIP3   OH250647   6.469   0.605   3.506  0.0310  0.1284 -0.1551
 9719TIP3    H150648   6.531   0.627   3.576  0.6781 -1.1569 -0.3043
 9719TIP3    H250649   6.410   0.681   3.502  2.6340  2.2630 -1.2413
 9720TIP3   OH250650   5.645   0.937   3.116  0.6041  0.2042 -0.3680
 9720TIP3    H150651   5.566   0.888   3.137  0.3776  0.6419 -0.2032
 9720TIP3    H250652   5.701   0.927   3.193  0.7983 -0.2712 -0.5627
 9721TIP3   OH250653   5.583   4.619   4.933  0.2983  0.0909  0.2484
 9721TIP3    H150654   5.668   4.629   4.890  0.1794 -0.6525 -0.1821
 9721TIP3    H250655   5.605   4.592   5.023  0.5258  0.7930  0.4123
 9722TIP3   OH250656   6.122   4.531  15.048  0.3944  0.2768  0.5293
 9722TIP3    H150657   6.081   4.466  14.990 -0.4649 -0.2785  1.7201
 9722TIP3    H250658   6.076   4.612  15.030 -0.2940 -0.0328  0.8526
 9723TIP3   OH250659   5.094   6.244   1.279  0.0108 -0.1394  0.2756
 9723TIP3    H150660   5.085   6.176   1.212 -0.6373  0.2781 -0.0597
 9723TIP3    H250661   5.047   6.319   1.244 -1.1730 -0.2230  1.6291
 9724TIP3   OH250662   2.790   3.945  16.748  0.3834  0.2089  0.1954
 9724TIP3    H150663   2.802   3.854  16.720 -1.1474  0.0058  0.1429
 9724TIP3    H250664   2.697   3.953  16.768  0.6847  1.4839  1.2626
 9725TIP3   OH250665   6.632   4.646   4.457  0.1700  0.1153  0.1606
 9725TIP3    H150666   6.541   4.629   4.432  0.5384 -1.1245 -0.3881
 9725TIP3    H250667   6.675   4.675   4.377 -0.1146  2.4800  0.7845
 9726TIP3   OH250668   5.427   4.573   5.299  0.8169  0.3035 -0.5327
 9726TIP3    H150669   5.429   4.661   5.262 -0.0383  0.4910 -0.1804
 9726TIP3    H250670   5.496   4.525   5.254 -0.5791  0.3329 -2.8270
 9727TIP3   OH250671   1.966   2.003   5.225 -0.1578 -0.3061 -0.0074
 9727TIP3    H150672   1.938   2.081   5.273 -0.4011  0.2207 -0.9785
 9727TIP3    H250673   2.033   2.035   5.164  2.4060 -1.4507  1.9846
 9728TIP3   OH250674   4.794   0.759   4.204 -0.2512  0.4551 -0.0471
 9728TIP3    H150675   4.856   0.776   4.133 -0.9828 -0.6758 -1.0025
 9728TIP3    H250676   4.790   0.841   4.253 -0.0761  1.4363 -1.6074
 9729TIP3   OH250677   5.622   0.780  14.041  0.0023  0.2138  0.0200
 9729TIP3    H150678   5.594   0.688  14.038 -2.5568  0.9226 -2.5726
 9729TIP3    H250679   5.691   0.785  13.975 -1.2437  0.4447 -1.3315
 9730TIP3   OH250680   3.274   1.896  10.738  0.1107 -0.3605  0.2724
 9730TIP3    H150681   3.287   1.886  10.643 -1.6737 -1.0697  0.0479
 9730TIP3    H250682   3.320   1.976  10.760 -0.6793  0.6553 -1.5119
 9731TIP3   OH250683   4.920   2.332  11.922 -0.0010  0.3948  0.1756
 9731TIP3    H150684   4.884   2.255  11.878  0.1455  0.2825  0.2554
 9731TIP3    H250685   4.960   2.298  12.002  3.2902  0.0442 -1.4892
 9732TIP3   OH250686   5.759   2.316   3.472  0.4027  0.4011  0.2590
 9732TIP3    H150687   5.776   2.295   3.564  0.6787  1.0439  0.3626
 9732TIP3    H250688   5.812   2.394   3.455  2.8408 -1.4524 -1.3230
 9733TIP3   OH250689   0.204   1.561  15.394 -0.0145  0.7373 -0.1626
 9733TIP3    H150690   0.242   1.519  15.471 -0.7694  2.1433  1.0274
 9733TIP3    H250691   0.272   1.622  15.365 -0.6944  2.1173  1.0223
 9734TIP3   OH250692   0.401   1.301  10.644 -0.0813 -0.3827 -0.5303
 9734TIP3    H150693   0.367   1.351  10.570 -1.1373  0.7476  0.6629
 9734TIP3    H250694   0.347   1.221  10.645 -1.5648  0.5827  0.2703
 9735TIP3   OH250695   4.047   5.941   2.396  0.7782  0.1259  0.5455
 9735TIP3    H150696   4.123   5.906   2.442  0.4319  0.1466  1.1473
 9735TIP3    H250697   4.068   6.033   2.381  1.2838 -0.1015 -0.1800
 9736TIP3   OH250698   1.778   0.291   5.264 -1.0085  0.5416  0.3506
 9736TIP3    H150699   1.758   0.214   5.210  1.1303  0.5585 -0.5799
 9736TIP3    H250700   1.719   0.359   5.231 -0.8032  0.1219 -0.9510
 9737TIP3   OH250701   4.002   5.948  14.568 -0.4570 -0.1351  0.6025
 9737TIP3    H150702   4.026   5.933  14.477 -0.3791 -0.3096  0.6512
 9737TIP3    H250703   4.046   5.878  14.616 -2.0794 -1.2300  0.5691
 9738TIP3   OH250704   5.898   1.529  16.833  0.7198  0.1574 -0.5260
 9738TIP3    H150705   5.848   1.568  16.761 -0.6789 -0.1945  0.2301
 9738TIP3    H250706   5.984   1.511  16.795 -0.0429 -0.1952 -2.1671
 9739TIP3   OH250707   1.975   1.805   1.132  0.5395  0.2577 -0.0033
 9739TIP3    H150708   2.003   1.884   1.085 -0.4337  1.8627  1.9677
 9739TIP3    H250709   1.990   1.825   1.224 -0.5701 -1.5338  0.6217
 9740TIP3   OH250710   5.282   3.327   1.335 -0.5617 -0.7204 -0.5406
 9740TIP3    H150711   5.327   3.314   1.419 -0.6496 -0.2243 -0.4137
 9740TIP3    H250712   5.191   3.346   1.359 -0.7042 -1.0993 -0.7726
 9741TIP3   OH250713   4.137   0.444   2.337  0.1929  0.3424 -0.6728
 9741TIP3    H150714   4.152   0.351   2.317  2.2624  0.2967  0.7508
 9741TIP3    H250715   4.168   0.490   2.259  1.4003 -0.1003 -0.4803
 9742TIP3   OH250716   5.724   5.070   3.820 -0.4273 -0.4988 -0.0493
 9742TIP3    H150717   5.729   5.033   3.908 -0.4881 -0.5408 -0.0637
 9742TIP3    H250718   5.767   5.155   3.828 -1.4110 -0.0243  0.2763
 9743TIP3   OH250719   0.973   3.758  16.158 -0.6322  0.1159  0.4174
 9743TIP3    H150720   0.900   3.817  16.139 -0.8958 -0.4993 -0.5372
 9743TIP3    H250721   1.005   3.730  16.072  1.6272  1.4188  0.7312
 9744TIP3   OH250722   4.182   0.593  15.832 -0.0780  0.0982 -0.3716
 9744TIP3    H150723   4.196   0.685  15.811  0.0501  0.0022 -0.7142
 9744TIP3    H250724   4.270   0.557  15.843 -0.1444  0.1929  0.5505
 9745TIP3   OH250725   2.596   0.102  16.094  0.3677 -0.3166  0.6829
 9745TIP3    H150726   2.607   0.184  16.143  0.4878  0.6076 -0.8359
 9745TIP3    H250727   2.520   0.118  16.039  1.0220 -0.8341 -0.3925
 9746TIP3   OH250728   1.097   2.274   0.741  0.0964 -0.1028  0.2894
 9746TIP3    H150729   1.185   2.265   0.777  0.8612  0.4569 -1.3662
 9746TIP3    H250730   1.062   2.185   0.738 -0.0981 -0.1738  2.5236
 9747TIP3   OH250731   4.201   3.150   2.496  0.4810 -0.2862 -0.3869
 9747TIP3    H150732   4.209   3.212   2.424 -0.3459  0.2751 -0.0057
 9747TIP3    H250733   4.119   3.174   2.539  1.5719  0.2056  1.5079
 9748TIP3   OH250734   2.451   3.145   4.398 -0.4715 -0.0423 -0.6228
 9748TIP3    H150735   2.504   3.133   4.319 -0.2095 -0.2549 -0.4133
 9748TIP3    H250736   2.374   3.193   4.367 -0.3242 -0.0382 -0.9914
 9749TIP3   OH250737   4.311   0.975  13.797  0.5419 -0.2140  0.0625
 9749TIP3    H150738   4.276   0.956  13.885  1.6261  0.2902  0.6243
 9749TIP3    H250739   4.340   0.890  13.764  1.1353 -0.2596  0.6632
 9750TIP3   OH250740   6.335   1.126   3.004 -0.6282 -0.3518  0.0738
 9750TIP3    H150741   6.328   1.192   2.936 -0.8055 -0.8951 -0.4386
 9750TIP3    H250742   6.313   1.173   3.085  0.9252  0.6181 -0.0376
 9751TIP3   OH250743   4.655   2.799  15.121 -0.0024  0.2552 -0.0610
 9751TIP3    H150744   4.722   2.840  15.175  0.6447 -0.2161 -0.4758
 9751TIP3    H250745   4.701   2.726  15.078 -0.7580 -0.0147 -0.4303
 9752TIP3   OH250746   1.176   1.552  11.243 -0.8418  0.5004  0.3521
 9752TIP3    H150747   1.214   1.465  11.231 -1.1102  0.1033  2.0676
 9752TIP3    H250748   1.088   1.545  11.208 -0.6022  0.3161 -0.2251
 9753TIP3   OH250749   0.090   6.319   0.149  0.1388 -0.3105  0.7345
 9753TIP3    H150750   0.031   6.287   0.216 -0.8599 -1.4185 -0.6105
 9753TIP3    H250751   0.062   6.409   0.132  1.3413  0.5266  2.7579
 9754TIP3   OH250752   0.482   3.188   0.139 -0.4915 -0.3014 -0.3300
 9754TIP3    H150753   0.536   3.194   0.060  2.0600  0.7255  1.3410
 9754TIP3    H250754   0.413   3.253   0.125  0.3518  0.4071 -1.4248
 9755TIP3   OH250755   0.559   6.060  15.857  0.4901  0.1460 -0.6297
 9755TIP3    H150756   0.466   6.052  15.878  0.3929  2.6115  0.2062
 9755TIP3    H250757   0.581   5.978  15.814 -3.2901  1.2732 -5.6423
 9756TIP3   OH250758   2.958   5.826  11.117 -0.1597 -0.1245 -0.4574
 9756TIP3    H150759   2.986   5.863  11.034 -0.9942  1.4747 -0.0727
 9756TIP3    H250760   3.015   5.867  11.182 -0.3119 -0.4519 -0.1102
 9757TIP3   OH250761   0.264   1.529  11.024  0.2582  0.3615  0.2703
 9757TIP3    H150762   0.324   1.457  11.005 -1.1814 -0.5997 -0.8253
 9757TIP3    H250763   0.284   1.596  10.959 -0.2515 -0.2140 -0.4909
 9758TIP3   OH250764   1.103   0.321   2.921 -0.6883 -0.5948 -0.4005
 9758TIP3    H150765   1.137   0.332   3.010 -0.3908 -0.5116 -0.5221
 9758TIP3    H250766   1.133   0.234   2.895 -0.1089 -0.3055 -0.7058
 9759TIP3   OH250767   5.884   5.162   1.996  0.4373  0.0728  0.3271
 9759TIP3    H150768   5.804   5.174   1.945 -0.0311 -1.1639  0.7348
 9759TIP3    H250769   5.886   5.068   2.016  1.8211  0.1379  0.6073
 9760TIP3   OH250770   6.513   1.491  12.601 -0.2685  0.2469 -0.4195
 9760TIP3    H150771   6.479   1.402  12.613  0.5040 -0.0919 -0.7352
 9760TIP3    H250772   6.516   1.527  12.690 -1.7476  0.4026 -0.4099
 9761TIP3   OH250773   6.636   6.632  16.325 -0.1611 -0.4285  0.5152
 9761TIP3    H150774   6.717   6.615  16.277 -0.7573 -0.2201 -0.5902
 9761TIP3    H250775   6.664   6.646  16.415  1.2564  1.4446 -0.1449
 9762TIP3   OH250776   1.353   1.996  11.645 -0.2034 -0.3140  0.3875
 9762TIP3    H150777   1.332   1.903  11.635  0.6315 -0.2984 -2.2790
 9762TIP3    H250778   1.448   2.000  11.648 -0.2254  0.4685  0.3410
 9763TIP3   OH250779   3.176   2.478   3.170  0.2350  0.2171  0.0832
 9763TIP3    H150780   3.176   2.468   3.075  0.1879 -0.4834  0.1549
 9763TIP3    H250781   3.125   2.404   3.202  0.0490  0.5817  0.6437
 9764TIP3   OH250782   4.182   6.290  16.481 -0.1888  0.4284  0.0116
 9764TIP3    H150783   4.137   6.242  16.412  0.7060 -0.9949  0.3914
 9764TIP3    H250784   4.115   6.348  16.517 -0.8290  0.7802 -1.6390
 9765TIP3   OH250785   4.590   5.772  14.731  0.1934 -0.2008  0.5794
 9765TIP3    H150786   4.590   5.677  14.735  0.1817 -0.3477 -1.5869
 9765TIP3    H250787   4.527   5.800  14.798 -1.4645 -1.8163 -0.2284
 9766TIP3   OH250788   3.757   5.079   2.845 -0.0968 -0.0037 -0.1234
 9766TIP3    H150789   3.755   4.994   2.801 -0.3730  0.0314 -0.1789
 9766TIP3    H250790   3.802   5.137   2.783 -0.7608  0.1212 -0.4942
 9767TIP3   OH250791   4.760   1.240  17.004  0.6416  0.0329 -0.6793
 9767TIP3    H150792   4.669   1.265  17.021  0.3224 -1.7623  0.5146
 9767TIP3    H250793   4.801   1.241  17.090  0.9517 -2.0167 -0.7487
 9768TIP3   OH250794   2.229   0.691   0.378 -0.1904 -0.3190  0.1305
 9768TIP3    H150795   2.291   0.715   0.309 -1.0530 -2.6471 -1.5640
 9768TIP3    H250796   2.284   0.654   0.447  0.6995  2.2119  0.9047
 9769TIP3   OH250797   2.293   3.347  14.942  0.2907 -0.2392 -0.6373
 9769TIP3    H150798   2.295   3.251  14.941 -1.1375 -0.3053  0.2523
 9769TIP3    H250799   2.244   3.369  15.021 -1.2875  1.1801 -1.9364
 9770TIP3   OH250800   6.250   5.450   4.999  0.8687  0.0943  0.0208
 9770TIP3    H150801   6.307   5.423   4.928  1.7005 -1.0971  1.0771
 9770TIP3    H250802   6.296   5.522   5.042  1.5816 -0.7953  0.8056
 9771TIP3   OH250803   4.645   2.814  16.360 -0.0856  0.2216 -0.1810
 9771TIP3    H150804   4.564   2.795  16.313 -0.4733  1.7623 -0.1929
 9771TIP3    H250805   4.624   2.890  16.414  1.7525  1.7009 -1.4004
 9772TIP3   OH250806   2.477   4.481  11.486  0.2504 -0.3527  0.3872
 9772TIP3    H150807   2.516   4.561  11.520  0.1384 -0.6636  1.2767
 9772TIP3    H250808   2.546   4.441  11.433 -0.8002  2.1151 -3.2042
 9773TIP3   OH250809   4.565   3.732  16.359 -0.0064 -0.0669 -0.3926
 9773TIP3    H150810   4.554   3.811  16.306  0.4200  1.5705  1.7734
 9773TIP3    H250811   4.557   3.659  16.297  3.5497  1.6732 -3.3060
 9774TIP3   OH250812   1.924   2.075   1.454  0.1742  0.3846 -0.5449
 9774TIP3    H150813   1.888   2.130   1.524 -0.1361 -0.1937 -0.2417
 9774TIP3    H250814   1.850   2.020   1.427  0.7997 -0.7649  0.0225
 9775TIP3   OH250815   6.801   5.934  12.606  0.3204 -0.2782 -0.1679
 9775TIP3    H150816   6.761   5.933  12.519 -1.3689 -0.3866  0.5619
 9775TIP3    H250817   6.832   5.844  12.620  2.5058  0.2183 -1.4418
 9776TIP3   OH250818   0.223   1.334   6.381  0.5320 -0.2386  0.2000
 9776TIP3    H150819   0.261   1.406   6.431 -0.4552 -0.1972  0.9056
 9776TIP3    H250820   0.298   1.279   6.357  1.3272  1.1557 -0.5974
 9777TIP3   OH250821   4.297   5.444  11.859 -0.6560  0.4959  0.3082
 9777TIP3    H150822   4.248   5.383  11.913 -1.0337  1.2105  0.7879
 9777TIP3    H250823   4.384   5.448  11.899  0.1860 -1.5511 -1.1312
 9778TIP3   OH250824   3.054   1.364  14.726  0.6465  0.3780 -0.1917
 9778TIP3    H150825   3.134   1.345  14.775  0.1001 -1.8241 -0.0383
 9778TIP3    H250826   2.995   1.403  14.790  0.4080 -1.2280  0.5942
 9779TIP3   OH250827   5.589   2.768   5.101  0.8956  0.5423  0.1725
 9779TIP3    H150828   5.668   2.817   5.124  1.5371  0.4167 -1.6129
 9779TIP3    H250829   5.621   2.683   5.071  0.2010  0.8620 -1.6036
 9780TIP3   OH250830   5.214   5.370  15.973  0.3428  0.0252 -0.1374
 9780TIP3    H150831   5.295   5.352  16.022 -0.2434 -2.6832  0.0010
 9780TIP3    H250832   5.218   5.310  15.898 -2.0736 -1.1310  0.5618
 9781TIP3   OH250833   6.681   5.046   6.021  0.2552 -0.2032 -0.4988
 9781TIP3    H150834   6.586   5.041   6.030  0.1820 -0.4602 -1.3350
 9781TIP3    H250835   6.704   5.130   6.062 -0.6814  1.2764 -2.7509
 9782TIP3   OH250836   6.242   6.291  12.998  0.6770 -0.7890  0.2607
 9782TIP3    H150837   6.226   6.276  13.091 -1.3737 -0.4291  0.0208
 9782TIP3    H250838   6.168   6.345  12.969 -0.5280 -3.4780 -2.2629
 9783TIP3   OH250839   2.571   5.291  15.947 -0.8439  0.5264 -0.0981
 9783TIP3    H150840   2.563   5.214  16.003  1.6351  1.2110  1.3691
 9783TIP3    H250841   2.482   5.322  15.935 -1.7543 -1.6684  0.5370
 9784TIP3   OH250842   6.606   3.098  13.424  0.5132 -1.5800  0.4659
 9784TIP3    H150843   6.542   3.093  13.495 -0.6801 -0.6382 -0.5013
 9784TIP3    H250844   6.580   3.175  13.373  1.7148 -1.8616 -0.6317
 9785TIP3   OH250845   3.665   1.357   4.232 -0.5560  0.0426  0.4244
 9785TIP3    H150846   3.669   1.405   4.315  0.0441  1.5277 -0.4394
 9785TIP3    H250847   3.598   1.403   4.181 -1.1148 -1.0227  0.1487
 9786TIP3   OH250848   4.987   5.579  15.698  0.3441  0.1297 -0.3683
 9786TIP3    H150849   5.016   5.531  15.775 -0.1616  1.5296  0.7275
 9786TIP3    H250850   4.956   5.511  15.637  1.5495 -1.0493  0.2855
 9787TIP3   OH250851   5.572   5.449   2.117  0.1020 -0.4108 -0.2324
 9787TIP3    H150852   5.486   5.410   2.132 -0.3252  0.6208  0.1528
 9787TIP3    H250853   5.608   5.402   2.042 -1.8909  0.8057 -2.0776
 9788TIP3   OH250854   3.451   1.402   6.529 -0.2756  0.4769 -0.1007
 9788TIP3    H150855   3.434   1.494   6.546  0.7032  0.4203  1.3914
 9788TIP3    H250856   3.539   1.386   6.564 -1.3013 -1.5041  1.8957
 9789TIP3   OH250857   3.345   6.143   0.256 -0.1118  0.2383  0.0471
 9789TIP3    H150858   3.267   6.142   0.199  0.1223 -1.3313 -0.3029
 9789TIP3    H250859   3.418   6.144   0.195  0.1377 -0.9989  0.2920
 9790TIP3   OH250860   3.379   4.991   5.222  0.3300  0.3979 -0.0508
 9790TIP3    H150861   3.382   5.051   5.147 -0.2360  0.4355 -0.0534
 9790TIP3    H250862   3.293   5.008   5.262  0.4881  0.1387  0.4063
 9791TIP3   OH250863   4.705   3.813  13.314 -0.3417  0.2103 -0.5905
 9791TIP3    H150864   4.773   3.754  13.345 -1.2899 -1.6250 -1.7401
 9791TIP3    H250865   4.746   3.862  13.243 -0.2162 -1.0045 -1.3918
 9792TIP3   OH250866   2.762   6.257   2.143 -0.1442 -0.4806 -0.2066
 9792TIP3    H150867   2.736   6.326   2.203  1.0278  0.3305 -0.5830
 9792TIP3    H250868   2.854   6.241   2.163 -0.1596 -1.3054 -0.7303
 9793TIP3   OH250869   6.734   5.248  16.543 -0.3221  0.3939 -0.1918
 9793TIP3    H150870   6.801   5.219  16.481 -0.4544  0.4160 -0.3480
 9793TIP3    H250871   6.770   5.327  16.583 -0.3777  0.5712 -0.4884
 9794TIP3   OH250872   4.860   3.226   5.509  0.2800 -0.6069  0.3748
 9794TIP3    H150873   4.840   3.206   5.601  1.0252  1.2637  0.9783
 9794TIP3    H250874   4.810   3.161   5.460 -1.6728 -0.4868  2.0434
 9795TIP3   OH250875   5.129   0.682  16.321 -0.1182 -0.0513 -0.2899
 9795TIP3    H150876   5.207   0.645  16.362 -0.1248 -0.6451 -0.7968
 9795TIP3    H250877   5.056   0.635  16.360 -0.3278  1.3184  1.0574
 9796TIP3   OH250878   6.128   3.580   3.328 -0.2589 -0.4661 -0.6330
 9796TIP3    H150879   6.093   3.557   3.414 -1.1549  1.8897 -0.2676
 9796TIP3    H250880   6.054   3.568   3.268 -0.4330  0.3584 -0.6004
 9797TIP3   OH250881   0.151   5.155   2.862 -0.7183  0.0561  0.6213
 9797TIP3    H150882   0.223   5.147   2.925  1.1289 -1.0238 -1.4675
 9797TIP3    H250883   0.147   5.249   2.843  1.1859  0.0117 -0.2548
 9798TIP3   OH250884   4.246   2.548  13.034  0.5877  1.0846 -0.5617
 9798TIP3    H150885   4.308   2.536  13.106  1.7003  1.1900 -1.4771
 9798TIP3    H250886   4.281   2.493  12.963 -0.8925  0.3985 -0.7863
 9799TIP3   OH250887   3.126   2.358   6.766  0.1398  0.2433 -0.1479
 9799TIP3    H150888   3.187   2.293   6.801  0.7187  0.0645 -1.4518
 9799TIP3    H250889   3.049   2.307   6.741 -0.2627  0.3670  0.8148
 9800TIP3   OH250890   2.639   5.713   4.215  0.5463 -0.5721 -0.2126
 9800TIP3    H150891   2.705   5.771   4.254  1.2071 -1.0670 -0.5778
 9800TIP3    H250892   2.587   5.771   4.159  0.4640 -0.1190  0.3232
 9801TIP3   OH250893   6.402   4.046   4.496 -0.7031 -0.2748  0.5162
 9801TIP3    H150894   6.465   3.990   4.451  0.9456  0.7461  1.4406
 9801TIP3    H250895   6.434   4.135   4.480 -1.8815  0.2677  1.0790
 9802TIP3   OH250896   1.853   2.564  11.451 -0.0087  0.5807  0.5387
 9802TIP3    H150897   1.764   2.545  11.420  0.4713 -0.4466 -0.2856
 9802TIP3    H250898   1.870   2.497  11.517  0.4182  0.3019  0.1533
 9803TIP3   OH250899   1.032   4.661  11.378 -0.1774  0.2257  0.2099
 9803TIP3    H150900   0.983   4.724  11.325 -1.6893 -1.2060 -0.1758
 9803TIP3    H250901   1.034   4.582  11.325  0.3988 -0.5040  1.2932
 9804TIP3   OH250902   1.379   6.027   1.432 -0.1252 -0.0683  0.0928
 9804TIP3    H150903   1.340   5.975   1.501  1.9484 -0.7566  0.8266
 9804TIP3    H250904   1.474   6.013   1.441  0.2707  0.3982 -2.4092
 9805TIP3   OH250905   2.724   0.598  16.584 -0.0440  0.5205  0.4191
 9805TIP3    H150906   2.644   0.643  16.612 -0.4661  1.4922 -2.1087
 9805TIP3    H250907   2.795   0.649  16.624 -0.5895  2.2170 -0.6485
 9806TIP3   OH250908   1.552   4.503  11.503 -0.1319  0.3574 -0.3300
 9806TIP3    H150909   1.579   4.426  11.452 -2.3471  0.3575 -1.6519
 9806TIP3    H250910   1.533   4.469  11.590  2.1382  0.0594  0.1064
 9807TIP3   OH250911   2.915   6.419  13.223  0.4926  0.6407 -0.4145
 9807TIP3    H150912   2.903   6.367  13.144  1.7187  1.6987 -1.3421
 9807TIP3    H250913   2.970   6.492  13.195  1.8801  0.4682  1.6402
 9808TIP3   OH250914   5.438   5.616   2.368  0.4050 -0.0086  0.4561
 9808TIP3    H150915   5.482   5.551   2.423  0.0841 -0.7024 -0.0965
 9808TIP3    H250916   5.498   5.631   2.295 -0.5566 -1.5209 -0.6994
 9809TIP3   OH250917   5.817   2.953  13.554  0.2719 -0.0639  0.2014
 9809TIP3    H150918   5.760   2.921  13.624 -0.1421 -1.0963 -0.5790
 9809TIP3    H250919   5.757   2.984  13.486  0.6654  1.9509  0.7207
 9810TIP3   OH250920   5.421   0.360   5.483 -0.4063  0.3271  0.5178
 9810TIP3    H150921   5.490   0.367   5.549 -0.0567 -0.8636  0.2915
 9810TIP3    H250922   5.467   0.354   5.400 -0.6243 -2.5755  0.4969
 9811TIP3   OH250923   6.333   1.961  14.911 -0.2166 -0.4878  0.2357
 9811TIP3    H150924   6.339   1.865  14.919 -0.4291 -0.8228 -2.6372
 9811TIP3    H250925   6.273   1.987  14.981  1.1632 -2.1980  2.1955
 9812TIP3   OH250926   5.872   6.034   0.177  0.0061  0.7541 -0.0813
 9812TIP3    H150927   5.882   5.951   0.224 -0.7228  0.8755  0.3060
 9812TIP3    H250928   5.915   6.020   0.093  0.3282  0.1536  0.1779
 9813TIP3   OH250929   5.311   4.292  14.309  0.2075  0.9137 -0.2254
 9813TIP3    H150930   5.328   4.319  14.399  2.1584 -1.9737  0.4051
 9813TIP3    H250931   5.219   4.267  14.309  0.5000 -0.3543  1.4215
 9814TIP3   OH250932   6.549   5.247   2.980 -0.1544  0.1575  0.2215
 9814TIP3    H150933   6.520   5.322   3.033  0.5578  0.8367 -0.3325
 9814TIP3    H250934   6.593   5.286   2.905 -0.6608 -0.8118 -0.6004
 9815TIP3   OH250935   3.512   0.444  12.563 -0.0742  0.2592  0.2445
 9815TIP3    H150936   3.484   0.372  12.506  0.3365 -0.6788  1.1778
 9815TIP3    H250937   3.475   0.421  12.649  2.3748 -0.3395  1.2094
 9816TIP3   OH250938   2.111   2.124  11.917 -0.6733  0.2898  0.0090
 9816TIP3    H150939   2.115   2.061  11.845  1.3416 -1.6069  1.6489
 9816TIP3    H250940   2.116   2.209  11.874 -4.8414 -0.4101 -2.4185
 9817TIP3   OH250941   6.790   3.513  14.398  0.1487 -0.4435 -0.4833
 9817TIP3    H150942   6.852   3.448  14.433 -0.4623 -0.6213  0.3067
 9817TIP3    H250943   6.709   3.464  14.386 -0.1886  0.0724 -0.3095
 9818TIP3   OH250944   6.105   4.800   4.627  0.8174  0.1857  0.0594
 9818TIP3    H150945   6.040   4.739   4.593  1.6942 -0.4913 -0.4660
 9818TIP3    H250946   6.055   4.877   4.652 -0.5635 -1.2722  2.1964
 9819TIP3   OH250947   2.176   5.235  10.820 -0.4891 -0.4145 -0.0750
 9819TIP3    H150948   2.175   5.151  10.774  0.9819 -1.3406  1.4704
 9819TIP3    H250949   2.214   5.297  10.757 -0.6747 -1.1122 -0.8861
 9820TIP3   OH250950   1.516   0.788  12.744 -0.0058 -0.0066  0.4061
 9820TIP3    H150951   1.453   0.848  12.704  0.5673 -0.4834 -1.2979
 9820TIP3    H250952   1.466   0.708  12.762  0.4478 -1.2732 -3.0882
 9821TIP3   OH250953   2.438   6.417  13.061  0.5798 -0.1791  0.4376
 9821TIP3    H150954   2.362   6.431  13.117  0.4958  0.9576  0.0720
 9821TIP3    H250955   2.506   6.384  13.120 -0.5063 -2.3900  0.5581
 9822TIP3   OH250956   0.640   1.122  16.731  0.6604  0.1758  0.4125
 9822TIP3    H150957   0.680   1.048  16.777  0.9995  0.5212  0.6780
 9822TIP3    H250958   0.680   1.199  16.771  1.5221  0.4735 -0.9394
 9823TIP3   OH250959   3.932   0.261   3.373  0.6496 -0.1106  0.3653
 9823TIP3    H150960   3.904   0.237   3.285  1.3935  2.9753 -0.8096
 9823TIP3    H250961   4.024   0.285   3.363  0.0472  2.9547  1.3463
 9824TIP3   OH250962   0.094   5.426  14.046 -0.0562 -0.1178 -0.1796
 9824TIP3    H150963   0.099   5.391  14.134  0.2541  2.2383  0.8182
 9824TIP3    H250964   0.000   5.441  14.031  0.0083  0.9478  0.4041
 9825TIP3   OH250965   5.131   1.922   3.531  0.2899 -0.3954 -0.0292
 9825TIP3    H150966   5.057   1.875   3.570 -0.4313 -0.3945 -1.3409
 9825TIP3    H250967   5.099   1.951   3.446  1.9314 -0.7426 -0.8128
 9826TIP3   OH250968   0.190   4.601   0.446  0.0248 -0.3252 -0.0676
 9826TIP3    H150969   0.217   4.536   0.511 -2.2861 -1.8470 -0.5091
 9826TIP3    H250970   0.267   4.656   0.434  1.3787 -1.6421  1.9561
 9827TIP3   OH250971   3.505   0.233  15.713 -0.2008  0.2143  0.0830
 9827TIP3    H150972   3.441   0.287  15.760  0.0773 -0.7470  1.6389
 9827TIP3    H250973   3.590   0.264  15.744  0.0503  0.5186 -0.8848
 9828TIP3   OH250974   1.872   3.357  11.619  0.2494 -0.4857 -0.3957
 9828TIP3    H150975   1.777   3.352  11.614  0.0969  1.1357  0.2643
 9828TIP3    H250976   1.896   3.421  11.552  0.7441  0.0895  0.3199
 9829TIP3   OH250977   5.806   6.788   4.471 -0.4234 -0.5329  0.0051
 9829TIP3    H150978   5.862   6.715   4.497  1.9138 -0.0082 -3.0349
 9829TIP3    H250979   5.717   6.757   4.487  0.5576 -2.9362  1.3493
 9830TIP3   OH250980   2.145   6.278   5.718 -0.5309  0.5089 -0.2286
 9830TIP3    H150981   2.195   6.225   5.656 -2.0964 -1.0494 -0.2751
 9830TIP3    H250982   2.209   6.305   5.785  0.2586 -2.1141  0.1953
 9831TIP3   OH250983   4.587   2.533   0.573  0.0645 -0.1051 -0.1547
 9831TIP3    H150984   4.572   2.621   0.608 -2.0762  0.0071 -1.2108
 9831TIP3    H250985   4.500   2.492   0.573  0.9671 -2.1553  0.0743
 9832TIP3   OH250986   4.258   1.979   4.129  0.2463 -0.1968  0.6398
 9832TIP3    H150987   4.235   2.040   4.059 -1.0204 -1.4502 -0.0722
 9832TIP3    H250988   4.347   1.951   4.108 -0.4969 -1.3923 -1.1345
 9833TIP3   OH250989   0.454   1.767   4.715  0.3775  0.0565  0.4313
 9833TIP3    H150990   0.486   1.855   4.694  0.3243 -0.4541 -2.0946
 9833TIP3    H250991   0.440   1.726   4.630 -2.9999 -1.2269  1.4603
 9834TIP3   OH250992   6.448   1.815  13.742 -0.5170  0.8122  0.8158
 9834TIP3    H150993   6.510   1.790  13.810  0.9293  0.0802 -0.6795
 9834TIP3    H250994   6.438   1.910  13.752 -0.3938  0.7066  2.0642
 9835TIP3   OH250995   2.541   5.112   0.232  0.5783 -0.7236 -0.2891
 9835TIP3    H150996   2.570   5.034   0.279 -1.1551 -0.3256  1.5929
 9835TIP3    H250997   2.476   5.080   0.170  1.3919 -1.0068 -1.0070
 9836TIP3   OH250998   3.430   0.082  16.307 -0.2797  0.2379 -0.5920
 9836TIP3    H150999   3.427   0.081  16.211 -1.5158 -1.8925 -0.6071
 9836TIP3    H251000   3.359   0.141  16.333 -0.0503  0.6888 -0.9809
 9837TIP3   OH251001   4.711   2.864   4.304 -0.4275  0.4681  0.9935
 9837TIP3    H151002   4.642   2.798   4.312 -1.6756  1.7619  1.1641
 9837TIP3    H251003   4.767   2.848   4.380 -0.9538 -0.1100  1.2746
 9838TIP3   OH251004   0.430   4.960  11.358  0.5511 -0.1035  0.0198
 9838TIP3    H151005   0.471   4.942  11.273 -1.4814 -2.5187 -0.5878
 9838TIP3    H251006   0.362   4.893  11.366 -1.5514  2.0499  2.0750
 9839TIP3   OH251007   1.892   5.578   3.236 -0.3078 -0.0410  0.0013
 9839TIP3    H151008   1.814   5.630   3.250 -0.5301 -0.6764  1.2481
 9839TIP3    H251009   1.869   5.490   3.267  0.9082 -0.2170  0.4867
 9840TIP3   OH251010   1.949   0.468  12.693 -0.5868 -0.1990  0.0664
 9840TIP3    H151011   1.905   0.540  12.648 -1.2877 -0.6499  0.0132
 9840TIP3    H251012   1.881   0.429  12.748  0.1513  0.0765  1.2128
 9841TIP3   OH251013   0.307   0.120   5.178  0.0079 -0.4660 -0.0680
 9841TIP3    H151014   0.353   0.139   5.097 -0.1343  1.0036  0.1547
 9841TIP3    H251015   0.344   0.038   5.209 -0.2439 -1.2938 -1.8226
 9842TIP3   OH251016   4.326   5.830   0.219  0.0908 -0.1716  0.2742
 9842TIP3    H151017   4.238   5.867   0.207 -0.5861 -0.8518  2.5217
 9842TIP3    H251018   4.384   5.906   0.221 -1.0528  0.7899  2.9941
 9843TIP3   OH251019   6.649   5.293   5.554  0.4639 -0.0202 -0.8498
 9843TIP3    H151020   6.734   5.267   5.591  1.3349  1.5734 -1.6226
 9843TIP3    H251021   6.592   5.304   5.630  0.9353 -1.1171 -0.3130
 9844TIP3   OH251022   5.400   5.382   4.865 -0.5232  0.4487 -0.0779
 9844TIP3    H151023   5.417   5.473   4.891  2.1130 -0.2855  1.2079
 9844TIP3    H251024   5.411   5.332   4.946  0.5407 -1.2283 -1.1836
 9845TIP3   OH251025   3.647   6.814  13.546 -0.1204 -0.0373 -0.2646
 9845TIP3    H151026   3.653   6.866  13.466 -1.4934  0.8450  0.1603
 9845TIP3    H251027   3.637   6.724  13.515  0.9518  0.0936 -1.0375
 9846TIP3   OH251028   2.318   1.977   0.192  0.1985 -0.4753  0.0166
 9846TIP3    H151029   2.355   2.064   0.205  0.3682 -0.6260  0.5694
 9846TIP3    H251030   2.333   1.958   0.099  2.3087 -0.8863  0.3985
 9847TIP3   OH251031   5.442   1.239   2.305  0.5529 -0.2574  0.3507
 9847TIP3    H151032   5.373   1.209   2.246 -0.3918  0.9630  0.7990
 9847TIP3    H251033   5.505   1.167   2.306 -0.0641 -0.8586 -1.0805
 9848TIP3   OH251034   4.360   0.430   4.634  0.0566 -0.3548  0.5079
 9848TIP3    H151035   4.408   0.351   4.657  1.6825 -0.3331 -2.3934
 9848TIP3    H251036   4.273   0.400   4.609 -0.2210 -0.8457  1.9324
 9849TIP3   OH251037   4.822   6.575  13.821 -0.6786 -0.2498  0.1048
 9849TIP3    H151038   4.851   6.666  13.815  1.9155 -1.0162 -0.2492
 9849TIP3    H251039   4.755   6.566  13.752  0.5496  0.8904 -1.3014
 9850TIP3   OH251040   2.545   0.603  10.817  0.6029 -0.3009 -0.0709
 9850TIP3    H151041   2.560   0.681  10.764  1.4413  0.4746  1.2395
 9850TIP3    H251042   2.622   0.597  10.873 -1.1748  0.2639  2.6464
 9851TIP3   OH251043   3.961   2.726  16.965 -0.1985 -0.5234  0.8777
 9851TIP3    H151044   3.917   2.675  17.033 -1.3420  0.1601  0.6708
 9851TIP3    H251045   3.892   2.753  16.906  0.2965  1.4960  1.1360
 9852TIP3   OH251046   1.437   6.036  16.318  0.4076 -0.3636 -0.8493
 9852TIP3    H151047   1.505   5.973  16.295  0.8922  0.5748 -2.1078
 9852TIP3    H251048   1.427   6.028  16.413  0.2387 -2.5204 -1.0021
 9853TIP3   OH251049   6.577   2.778  16.587  0.1718 -0.0968 -0.3756
 9853TIP3    H151050   6.573   2.870  16.611 -0.8546 -0.3252  0.3937
 9853TIP3    H251051   6.638   2.775  16.513  1.1259  1.0176  0.3401
 9854TIP3   OH251052   4.151   6.527   6.285 -0.2127  0.1970  0.9496
 9854TIP3    H151053   4.178   6.582   6.211  0.2115 -0.9251  0.2526
 9854TIP3    H251054   4.145   6.588   6.359  0.4590  1.1428  0.2468
 9855TIP3   OH251055   5.950   2.921  14.942  0.5271 -0.3119  0.1010
 9855TIP3    H151056   5.975   2.843  14.992  0.4152 -0.0794  0.5267
 9855TIP3    H251057   6.024   2.937  14.884  0.2058 -1.2266 -0.5980
 9856TIP3   OH251058   1.418   0.762   4.687 -0.0832 -0.3808  0.5676
 9856TIP3    H151059   1.436   0.855   4.671 -0.1127 -0.4597  0.0660
 9856TIP3    H251060   1.465   0.743   4.768  0.4093 -0.0730  0.3602
 9857TIP3   OH251061   1.199   5.089   4.201  0.1158 -0.3453  0.6331
 9857TIP3    H151062   1.231   5.004   4.170  1.2427  0.5774 -0.8915
 9857TIP3    H251063   1.278   5.140   4.218 -0.3924  1.6309 -2.1386
 9858TIP3   OH251064   4.494   1.344   2.493 -0.4978  0.1071  0.3289
 9858TIP3    H151065   4.517   1.428   2.532 -0.6603 -0.8958  2.7430
 9858TIP3    H251066   4.577   1.310   2.457 -0.5948  1.6115 -1.4412
 9859TIP3   OH251067   6.559   6.829   1.213  0.1565  0.0357  0.4588
 9859TIP3    H151068   6.528   6.796   1.297 -1.1986  0.9718  0.3498
 9859TIP3    H251069   6.530   6.920   1.211  0.7647  0.2179 -0.7388
 9860TIP3   OH251070   6.414   1.575   0.636 -0.3205  0.0641 -0.4859
 9860TIP3    H151071   6.464   1.588   0.555  2.6346  2.0432  1.4544
 9860TIP3    H251072   6.442   1.488   0.667  1.3613  0.7530  0.0839
 9861TIP3   OH251073   3.949   3.192   2.592 -0.7766  0.3941  0.2703
 9861TIP3    H151074   3.933   3.238   2.509 -0.7490  0.3057  0.2168
 9861TIP3    H251075   3.861   3.171   2.625 -0.7592 -1.3155 -0.6967
 9862TIP3   OH251076   3.878   5.042   4.537 -0.0933 -0.5423  0.6460
 9862TIP3    H151077   3.899   4.975   4.472  0.5030 -0.2279  0.5040
 9862TIP3    H251078   3.943   5.029   4.606  1.2588  1.0657 -0.2444
 9863TIP3   OH251079   0.903   3.117  13.659 -0.1707 -0.2923  0.1807
 9863TIP3    H151080   0.971   3.052  13.639 -0.7101 -0.5728 -0.7897
 9863TIP3    H251081   0.826   3.066  13.683 -0.3837 -0.0020  0.1245
 9864TIP3   OH251082   1.107   5.501   2.285  0.1693  0.5134 -0.0593
 9864TIP3    H151083   1.118   5.472   2.195 -0.0586 -0.5004  0.2186
 9864TIP3    H251084   1.193   5.531   2.312  0.9188 -1.7389  0.2305
 9865TIP3   OH251085   5.819   1.527   1.471  0.0994 -0.0873 -0.2952
 9865TIP3    H151086   5.847   1.480   1.550 -0.1389 -0.6942 -0.5652
 9865TIP3    H251087   5.871   1.490   1.401  0.0846  0.2297 -0.4750
 9866TIP3   OH251088   0.690   0.181  13.652 -0.3938 -0.4356  0.0432
 9866TIP3    H151089   0.703   0.242  13.579 -0.2028 -0.6034 -0.0658
 9866TIP3    H251090   0.619   0.125  13.624 -0.9516  0.0898  0.3797
 9867TIP3   OH251091   1.822   1.433   4.151  0.5850  0.1583  0.1237
 9867TIP3    H151092   1.864   1.467   4.072  0.8159  0.5179  0.4016
 9867TIP3    H251093   1.784   1.349   4.123 -1.9970  1.6269 -1.1925
 9868TIP3   OH251094   0.028   5.075   5.018  0.6983 -0.3281  0.3945
 9868TIP3    H151095   0.104   5.038   5.064  0.2688 -1.7252  0.0347
 9868TIP3    H251096  -0.013   5.133   5.083  1.1625 -0.8082  1.1360
 9869TIP3   OH251097   6.169   4.134  12.534 -0.8309 -0.0769 -0.2258
 9869TIP3    H151098   6.173   4.055  12.480 -0.9493  0.0950 -0.4929
 9869TIP3    H251099   6.078   4.164  12.525 -0.7126  0.2538 -0.3740
 9870TIP3   OH251100   6.478   5.605  11.541  0.5821 -0.6019  0.3448
 9870TIP3    H151101   6.414   5.535  11.546  0.4693 -0.4345  1.2702
 9870TIP3    H251102   6.562   5.560  11.529  0.4113 -0.8517  0.0749
 9871TIP3   OH251103   4.044   1.117  10.984  0.1214  0.3589  0.3189
 9871TIP3    H151104   3.950   1.133  10.983  0.2508  1.3997  1.4841
 9871TIP3    H251105   4.082   1.199  11.017  1.5393  0.4019 -1.2822
 9872TIP3   OH251106   2.452   5.203  12.383  0.2792  0.0674  0.2336
 9872TIP3    H151107   2.536   5.203  12.429 -0.0545 -1.8366  0.9250
 9872TIP3    H251108   2.438   5.294  12.359  0.8423  1.0265  3.1983
 9873TIP3   OH251109   5.801   6.055   5.410 -0.2893  0.2889  0.1848
 9873TIP3    H151110   5.726   6.080   5.355 -0.9385  0.7510  1.2578
 9873TIP3    H251111   5.844   6.137   5.432  0.9436 -0.0193 -0.9507
 9874TIP3   OH251112   2.060   4.389  16.441 -0.1975  0.0982  0.2556
 9874TIP3    H151113   2.082   4.359  16.353  0.7315  0.8457  0.2132
 9874TIP3    H251114   2.119   4.341  16.499  0.7711  1.2251  0.2505
 9875TIP3   OH251115   0.858   0.590  11.712 -0.1726  0.3452 -0.8404
 9875TIP3    H151116   0.855   0.590  11.616 -0.2981  0.7316 -0.8396
 9875TIP3    H251117   0.950   0.605  11.733 -0.1528  0.3119 -0.9013
 9876TIP3   OH251118   0.512   6.172   1.751 -0.5618  0.0965  0.2367
 9876TIP3    H151119   0.417   6.182   1.745 -0.3435  1.8759 -1.2276
 9876TIP3    H251120   0.537   6.129   1.669  0.0327  1.1727 -0.1697
 9877TIP3   OH251121   0.467   5.676  13.853 -0.0436 -0.5944  0.3216
 9877TIP3    H151122   0.526   5.632  13.915 -1.0426 -1.8124  0.4625
 9877TIP3    H251123   0.392   5.702  13.907 -0.5607 -0.9447 -0.2217
 9878TIP3   OH251124   1.245   3.214   6.143 -0.5326  0.3311 -0.6060
 9878TIP3    H151125   1.196   3.197   6.223  1.3673 -1.9461  0.1994
 9878TIP3    H251126   1.288   3.299   6.158 -1.5148  0.7284  0.0417
 9879TIP3   OH251127   0.206   0.805   0.928  0.2866 -0.3921 -0.0899
 9879TIP3    H151128   0.143   0.859   0.879 -1.9111 -1.7604  1.0904
 9879TIP3    H251129   0.196   0.832   1.019 -0.0855 -2.0122  0.3791
 9880TIP3   OH251130   0.317   6.714  11.516 -0.0345  0.4426 -0.0650
 9880TIP3    H151131   0.237   6.676  11.480 -0.7251  0.7188  1.0982
 9880TIP3    H251132   0.388   6.665  11.475 -0.8084 -0.0486 -0.8550
 9881TIP3   OH251133   5.472   5.418   5.978  0.2113  0.0762 -0.2406
 9881TIP3    H151134   5.389   5.403   6.025 -0.2429  0.6779 -0.8353
 9881TIP3    H251135   5.450   5.483   5.911  1.6937  2.0919  1.0993
 9882TIP3   OH251136   5.850   1.214  10.537 -0.2872  0.8069 -0.0845
 9882TIP3    H151137   5.791   1.260  10.477  1.4694 -0.6007 -3.1830
 9882TIP3    H251138   5.832   1.121  10.522  0.0668  0.3908  1.8305
 9883TIP3   OH251139   0.414   0.899  13.902  0.3086  0.1408 -0.4296
 9883TIP3    H151140   0.469   0.937  13.971 -1.7039 -2.2389  2.7523
 9883TIP3    H251141   0.461   0.820  13.876 -0.4555 -0.7184  0.6998
 9884TIP3   OH251142   2.400   2.254   6.174 -0.2583  0.1441  0.1008
 9884TIP3    H151143   2.403   2.340   6.217 -1.6526  0.6657 -0.7940
 9884TIP3    H251144   2.434   2.271   6.086 -2.0596  0.1551 -0.6278
 9885TIP3   OH251145   5.912   0.264   0.026  0.1863  0.4625  0.1065
 9885TIP3    H151146   5.853   0.338   0.010 -0.5574  0.1033  1.0655
 9885TIP3    H251147   5.875   0.220   0.103  2.2356  0.7546  1.3183
 9886TIP3   OH251148   1.393   1.133  14.317 -0.3411  0.2719  0.1680
 9886TIP3    H151149   1.468   1.143  14.375 -0.6417  1.5360  0.3707
 9886TIP3    H251150   1.422   1.169  14.233  0.4131 -2.4186 -0.8062
 9887TIP3   OH251151   4.765   3.961   4.371  0.2813  0.1061  0.0661
 9887TIP3    H151152   4.760   3.983   4.278  0.3295  0.7548  0.2144
 9887TIP3    H251153   4.689   3.905   4.387  0.5238 -0.3892 -0.4596
 9888TIP3   OH251154   0.354   4.376   4.885 -0.3701 -0.2538  0.3049
 9888TIP3    H151155   0.414   4.328   4.942 -1.0840  0.7785  1.9971
 9888TIP3    H251156   0.274   4.325   4.885  0.2598 -1.3001 -1.4434
 9889TIP3   OH251157   5.020   2.472   3.819  0.2520  0.2215 -0.2084
 9889TIP3    H151158   5.033   2.468   3.914 -0.1481  0.6874 -0.1308
 9889TIP3    H251159   5.081   2.539   3.789 -0.6425  1.1049 -0.0840
 9890TIP3   OH251160   3.848   1.829   0.829 -0.2143  0.1916  0.4162
 9890TIP3    H151161   3.852   1.920   0.800 -1.2744  1.0936  2.7697
 9890TIP3    H251162   3.755   1.810   0.833 -0.0427 -0.5195  1.2336
 9891TIP3   OH251163   6.003   6.726  14.296  0.2515 -0.3026 -0.1514
 9891TIP3    H151164   6.049   6.790  14.241  0.2759 -1.1505 -1.1550
 9891TIP3    H251165   5.911   6.746  14.284  0.2491 -0.5916 -0.6627
 9892TIP3   OH251166   2.163   2.091  16.790 -0.1232 -0.3052  0.2874
 9892TIP3    H151167   2.155   2.116  16.882  1.7576 -0.8928  0.6541
 9892TIP3    H251168   2.132   2.167  16.741 -0.1359  0.4226  1.4079
 9893TIP3   OH251169   4.851   1.149   1.824 -0.4749  0.6531 -0.3391
 9893TIP3    H151170   4.794   1.158   1.748 -2.9895  0.0649  1.3691
 9893TIP3    H251171   4.808   1.084   1.879  2.3356 -0.4914  0.7122
 9894TIP3   OH251172   2.496   0.144   6.469  0.2369  0.2057  0.3412
 9894TIP3    H151173   2.591   0.135   6.464 -0.0045 -2.1382 -1.3589
 9894TIP3    H251174   2.465   0.060   6.502 -1.3127  0.6761  0.2053
 9895TIP3   OH251175   2.224   3.898  16.168 -0.1663 -0.2008  0.4252
 9895TIP3    H151176   2.272   3.945  16.236  1.5168 -0.7183 -0.3516
 9895TIP3    H251177   2.240   3.947  16.088  0.0361 -1.0217 -0.0497
 9896TIP3   OH251178   3.553   4.041  12.561 -0.3381  0.7599 -0.1952
 9896TIP3    H151179   3.591   4.062  12.647 -1.7775  0.9436  0.4331
 9896TIP3    H251180   3.543   4.126  12.518  0.8154  0.6288 -0.7637
 9897TIP3   OH251181   4.175   0.790  11.352  0.0148  0.0948  0.6269
 9897TIP3    H151182   4.154   0.757  11.439  0.9892 -2.8067 -0.1258
 9897TIP3    H251183   4.264   0.759  11.336 -0.4959 -0.3109 -1.7641
 9898TIP3   OH251184   5.953   6.799  11.478  0.3563 -0.6015  0.1474
 9898TIP3    H151185   5.934   6.890  11.458 -0.9061 -0.1739  2.9891
 9898TIP3    H251186   5.904   6.779  11.557  0.7419 -3.7235 -0.2340
 9899TIP3   OH251187   3.005   0.185   0.534  0.0891  0.0503 -0.2918
 9899TIP3    H151188   3.002   0.274   0.568  1.3048  0.4664 -1.1962
 9899TIP3    H251189   3.029   0.132   0.610  1.9350  0.8516 -0.2623
 9900TIP3   OH251190   3.528   5.591  12.865  0.5060 -0.0753  0.0775
 9900TIP3    H151191   3.510   5.592  12.771 -1.4349  0.1310  0.4067
 9900TIP3    H251192   3.580   5.512  12.879  1.3371  0.2081 -1.2316
 9901TIP3   OH251193   1.748   1.310  11.841 -0.2289 -0.8865 -0.5303
 9901TIP3    H151194   1.707   1.225  11.832  0.7279 -1.3496 -0.6374
 9901TIP3    H251195   1.825   1.294  11.896 -0.1511 -0.0562 -0.3827
 9902TIP3   OH251196   3.824   5.503   4.248  0.2854  0.2873  0.4314
 9902TIP3    H151197   3.910   5.475   4.217  1.0281  2.3014  0.5662
 9902TIP3    H251198   3.778   5.421   4.267  1.2061 -0.9212 -2.1143
 9903TIP3   OH251199   3.036   0.022   6.087 -0.2735 -0.1716  0.2004
 9903TIP3    H151200   2.956   0.072   6.105 -2.0205 -2.9610  0.8950
 9903TIP3    H251201   3.096   0.046   6.157 -1.9111 -0.6971  1.8660
 9904TIP3   OH251202   0.462   5.187  14.876 -0.1755 -0.2701 -0.7181
 9904TIP3    H151203   0.529   5.135  14.829  0.8726  0.7988 -0.4491
 9904TIP3    H251204   0.483   5.174  14.968 -1.4335 -1.3104 -0.5526
 9905TIP3   OH251205   1.250   6.753  13.349 -0.1792 -0.3610  0.2611
 9905TIP3    H151206   1.176   6.814  13.353  0.2570  0.2154 -0.3464
 9905TIP3    H251207   1.258   6.732  13.256  0.0655 -0.8754  0.3937
 9906TIP3   OH251208   5.421   2.686   2.971  0.4799  0.6759 -0.1615
 9906TIP3    H151209   5.339   2.640   2.989  0.8576 -0.0858 -0.3346
 9906TIP3    H251210   5.438   2.670   2.879  0.4417  1.4678 -0.3118
 9907TIP3   OH251211   5.206   0.566   1.876 -0.3099 -0.2182 -0.3948
 9907TIP3    H151212   5.156   0.496   1.919 -1.4736  1.0047  0.2842
 9907TIP3    H251213   5.146   0.640   1.871  0.3672  0.2582 -2.5761
 9908TIP3   OH251214   0.464   5.566  14.121  0.2294 -0.2404  0.2030
 9908TIP3    H151215   0.556   5.544  14.110  0.2773 -0.0224  0.1747
 9908TIP3    H251216   0.418   5.484  14.101  0.5090 -0.9517  2.2310
 9909TIP3   OH251217   3.611   2.161   5.567 -0.1643  0.3155 -0.2922
 9909TIP3    H151218   3.577   2.078   5.599 -1.1372  1.1763  0.9918
 9909TIP3    H251219   3.647   2.204   5.645 -0.0080  1.2557 -0.8643
 9910TIP3   OH251220   5.603   0.775  12.120  0.2985 -0.2594  0.4748
 9910TIP3    H151221   5.643   0.862  12.115 -1.4231  0.8758  3.6187
 9910TIP3    H251222   5.526   0.781  12.064 -0.8563  1.0156  2.0648
 9911TIP3   OH251223   1.191   3.594   2.721 -0.6710 -0.1133  0.0603
 9911TIP3    H151224   1.226   3.675   2.757 -1.5100  1.3697 -2.2969
 9911TIP3    H251225   1.107   3.582   2.765 -2.1371  2.1906 -1.9337
 9912TIP3   OH251226   6.849   2.230   2.479 -0.0343  0.1884  0.2952
 9912TIP3    H151227   6.819   2.168   2.545  1.0105  0.6382  1.2345
 9912TIP3    H251228   6.944   2.215   2.474  0.5400  2.7856  1.7649
 9913TIP3   OH251229   1.008   4.690  13.514 -0.1332  0.6777 -0.2826
 9913TIP3    H151230   1.020   4.601  13.483  0.2185  0.7665 -0.4030
 9913TIP3    H251231   1.094   4.715  13.549 -0.3852  0.7605  0.2863
 9914TIP3   OH251232   4.897   6.484   3.580 -0.0255 -0.7059 -0.0834
 9914TIP3    H151233   4.902   6.572   3.618  0.0325 -0.1726 -1.2635
 9914TIP3    H251234   4.812   6.482   3.536 -0.3478 -1.5167  0.5583
 9915TIP3   OH251235   5.105   1.454   3.192  0.0677  0.3343  0.0946
 9915TIP3    H151236   5.019   1.471   3.230 -0.2377  0.4554 -0.6365
 9915TIP3    H251237   5.165   1.509   3.243 -0.3966  0.8300  0.1108
 9916TIP3   OH251238   5.120   4.123   3.708 -0.1243 -0.0207 -0.0646
 9916TIP3    H151239   5.106   4.203   3.757 -0.6371  0.1111 -0.4185
 9916TIP3    H251240   5.165   4.064   3.769 -0.1881  0.3622  0.3493
 9917TIP3   OH251241   2.581   1.101   0.568  0.2044  0.1807  0.3498
 9917TIP3    H151242   2.597   1.186   0.528 -0.4685  0.2434  0.2074
 9917TIP3    H251243   2.542   1.122   0.653  1.7231  0.0538  1.1138
 9918TIP3   OH251244   6.173   1.787   6.151  0.0936  0.1254 -0.6102
 9918TIP3    H151245   6.171   1.813   6.244  1.9576  1.3014 -0.8431
 9918TIP3    H251246   6.088   1.747   6.136 -0.4835  0.4277  1.4705
 9919TIP3   OH251247   6.658   2.466  12.640  0.4860  1.0974 -0.4763
 9919TIP3    H151248   6.669   2.409  12.716  0.1451 -0.2663 -1.4109
 9919TIP3    H251249   6.721   2.537  12.654 -0.8699  1.9325  1.9865
 9920TIP3   OH251250   1.169   1.182  11.479 -0.3374 -0.5156 -0.4814
 9920TIP3    H151251   1.198   1.182  11.570 -1.3532 -0.3900 -0.1471
 9920TIP3    H251252   1.117   1.262  11.471 -1.8439 -1.4862 -0.6463
 9921TIP3   OH251253   6.373   6.382  15.522 -0.3814 -0.0968  0.3281
 9921TIP3    H151254   6.384   6.306  15.465 -3.3939  0.8183 -1.6768
 9921TIP3    H251255   6.295   6.363  15.573  1.1097  0.0126  2.7948
 9922TIP3   OH251256   0.596   6.105  12.806 -0.1459 -0.3296  0.3432
 9922TIP3    H151257   0.568   6.176  12.863 -0.3127 -1.4411  1.7069
 9922TIP3    H251258   0.589   6.026  12.860  0.9373 -1.2723 -0.8127
 9923TIP3   OH251259   0.206   2.292   4.127 -0.1397  0.4271 -0.0478
 9923TIP3    H151260   0.291   2.309   4.087  0.1410 -1.5410 -0.3713
 9923TIP3    H251261   0.155   2.252   4.057 -0.8617  0.2584  0.5667
 9924TIP3   OH251262   6.072   3.437  11.087 -0.0775 -0.4092 -0.2210
 9924TIP3    H151263   6.007   3.403  11.026  0.3058 -2.3056  0.3808
 9924TIP3    H251264   6.047   3.402  11.172  1.0366 -0.1619  0.2337
 9925TIP3   OH251265   2.475   1.680   3.479  0.1387  0.4002  0.6412
 9925TIP3    H151266   2.387   1.718   3.475  0.4428  1.4427  2.4849
 9925TIP3    H251267   2.470   1.618   3.553  1.1125  0.9606  1.1903
 9926TIP3   OH251268   3.341   1.810  14.679 -0.2615  0.2294  0.4794
 9926TIP3    H151269   3.330   1.895  14.722 -0.3463  0.4713 -0.0081
 9926TIP3    H251270   3.321   1.827  14.587  1.7166  0.1433 -0.0216
 9927TIP3   OH251271   3.931   0.814  14.382 -0.4268  0.3637 -0.2321
 9927TIP3    H151272   3.910   0.855  14.466 -2.3914 -0.3341 -0.3434
 9927TIP3    H251273   4.021   0.783  14.393 -0.9383 -0.5451  1.9813
 9928TIP3   OH251274   4.488   3.259  12.101 -0.0846  0.5099  0.3523
 9928TIP3    H151275   4.447   3.295  12.022  0.2617 -0.0614 -0.0961
 9928TIP3    H251276   4.495   3.166  12.083  1.0147  0.5398  0.6010
 9929TIP3   OH251277   1.661   4.019   2.306  0.2821 -0.5088 -0.2286
 9929TIP3    H151278   1.678   3.969   2.226 -1.2610  1.2127 -1.7335
 9929TIP3    H251279   1.572   3.993   2.332 -0.0468  0.4804 -0.3086
 9930TIP3   OH251280   5.190   4.634  13.786  0.3427 -0.1431 -0.3888
 9930TIP3    H151281   5.158   4.546  13.766 -2.3377  0.7688 -0.4542
 9930TIP3    H251282   5.171   4.645  13.879 -0.1693  0.6981 -0.5929
 9931TIP3   OH251283   1.585   2.637  15.257  0.6631  0.0738 -1.2171
 9931TIP3    H151284   1.626   2.691  15.190 -0.2162  0.9180 -1.1026
 9931TIP3    H251285   1.623   2.666  15.339 -1.8776  2.6802 -0.8071
 9932TIP3   OH251286   2.696   2.853   3.574 -0.2915 -0.0043 -0.0254
 9932TIP3    H151287   2.772   2.882   3.523  0.7212  0.1233  1.5068
 9932TIP3    H251288   2.707   2.894   3.659  0.2689 -3.3451  1.6845
 9933TIP3   OH251289   2.208   2.267   5.851 -0.3393  0.6693  0.3979
 9933TIP3    H151290   2.217   2.205   5.779  0.2218  1.9943 -0.7282
 9933TIP3    H251291   2.291   2.262   5.898 -0.5212  0.1602  0.6761
 9934TIP3   OH251292   3.070   2.011   4.175 -0.0562 -0.0476 -0.2541
 9934TIP3    H151293   3.087   2.105   4.177 -1.9414  0.3450 -0.4138
 9934TIP3    H251294   3.007   1.997   4.246 -0.7067 -0.9693 -0.9873
 9935TIP3   OH251295   2.912   6.081  14.631  0.2310 -0.7392 -0.7780
 9935TIP3    H151296   2.984   6.138  14.656  0.0624 -0.3681 -1.1341
 9935TIP3    H251297   2.869   6.060  14.714  0.0600 -0.0315 -0.6812
 9936TIP3   OH251298   1.011   3.481  11.667  0.5248 -0.2525  0.0343
 9936TIP3    H151299   1.037   3.573  11.671 -1.7295  0.5215 -1.1458
 9936TIP3    H251300   1.087   3.436  11.630  0.9646  1.5312 -1.3942
 9937TIP3   OH251301   0.748   4.998  13.380 -0.5411  0.3204  0.7949
 9937TIP3    H151302   0.789   4.968  13.298 -0.0421 -0.3024  1.2587
 9937TIP3    H251303   0.692   5.071  13.354 -0.5136  0.0240 -0.1268
 9938TIP3   OH251304   6.766   6.226  15.532  0.6087 -0.0482 -0.1337
 9938TIP3    H151305   6.723   6.155  15.484  3.6619 -2.0566 -0.1223
 9938TIP3    H251306   6.736   6.306  15.488 -1.7863 -1.3570 -1.0936
 9939TIP3   OH251307   3.267   4.860   2.804  0.0723 -0.1482  0.1237
 9939TIP3    H151308   3.330   4.916   2.849 -1.1350  2.0718 -0.7946
 9939TIP3    H251309   3.204   4.921   2.765 -1.3797 -2.1702 -0.8770
 9940TIP3   OH251310   2.915   3.739  12.552 -0.0269  0.0180 -0.2238
 9940TIP3    H151311   2.866   3.816  12.524  0.6273 -0.2401 -2.2439
 9940TIP3    H251312   3.006   3.758  12.528  0.3867 -0.7904  0.6175
 9941TIP3   OH251313   3.814   4.022   5.245  0.3450  0.4284  0.1963
 9941TIP3    H151314   3.816   4.112   5.211  0.2666  0.9226  1.4439
 9941TIP3    H251315   3.742   3.980   5.198  0.1340  1.1267 -0.1210
 9942TIP3   OH251316   1.382   5.968  14.594  0.3467 -0.0647 -0.1961
 9942TIP3    H151317   1.388   6.021  14.515 -0.7345 -0.9037 -0.8777
 9942TIP3    H251318   1.339   6.025  14.658 -1.9660 -0.4557 -1.3028
 9943TIP3   OH251319   1.245   0.265  11.834 -0.4027  0.5937 -0.1009
 9943TIP3    H151320   1.288   0.224  11.909 -2.0228 -0.0414  0.5154
 9943TIP3    H251321   1.215   0.350  11.866 -0.1849  0.7696 -0.3520
 9944TIP3   OH251322   2.225   3.222  12.560  0.0644  0.0559 -0.0106
 9944TIP3    H151323   2.208   3.245  12.469  1.3373  0.6235 -0.1354
 9944TIP3    H251324   2.301   3.163  12.556 -0.7971 -1.1234  0.5879
 9945TIP3   OH251325   2.343   4.849  13.720  0.1827  0.7558  0.1602
 9945TIP3    H151326   2.349   4.757  13.745 -0.2176  0.9803  1.0878
 9945TIP3    H251327   2.328   4.896  13.802 -2.8342  1.3570 -0.6155
 9946TIP3   OH251328   6.790   2.741  14.216 -0.1669  0.0951 -0.7372
 9946TIP3    H151329   6.719   2.693  14.259 -0.2197  1.6896  1.0970
 9946TIP3    H251330   6.870   2.699  14.249 -0.2361 -0.0032 -0.6931
 9947TIP3   OH251331   4.827   6.093  12.480 -0.0257  0.5290  0.6786
 9947TIP3    H151332   4.755   6.156  12.491  0.3131  0.9158  0.7119
 9947TIP3    H251333   4.792   6.027  12.420 -0.0430  1.2968 -0.1835
 9948TIP3   OH251334   2.122   0.295  11.842  0.4524 -0.1634 -0.0845
 9948TIP3    H151335   2.177   0.328  11.771  3.3362 -1.6069  1.3024
 9948TIP3    H251336   2.125   0.365  11.908 -2.3868  1.2665 -1.2610
 9949TIP3   OH251337   3.278   6.459  12.912  0.5462 -0.1233 -0.0852
 9949TIP3    H151338   3.292   6.404  12.989 -0.7285 -2.0925 -1.1747
 9949TIP3    H251339   3.188   6.490  12.920  0.4966 -0.1126 -0.6544
 9950TIP3   OH251340   1.198   0.728  12.586  0.2465 -0.0159 -0.2765
 9950TIP3    H151341   1.213   0.819  12.610  0.7748 -0.1166 -0.2118
 9950TIP3    H251342   1.103   0.718  12.586  0.1958  0.4658 -0.0284
 9951TIP3   OH251343   6.295   6.773   3.858 -0.2793  0.0787  0.0566
 9951TIP3    H151344   6.287   6.748   3.950  1.0387 -0.0445  0.1670
 9951TIP3    H251345   6.377   6.732   3.829  0.5031  1.9551 -0.5454
 9952TIP3   OH251346   1.552   1.004   4.659  0.2376 -0.2671  0.4054
 9952TIP3    H151347   1.524   1.080   4.608  0.2055  0.3654  1.3420
 9952TIP3    H251348   1.557   1.036   4.749  1.4301 -1.0522  0.6388
 9953TIP3   OH251349   5.157   5.619   3.152 -0.3962  0.2649 -0.3333
 9953TIP3    H151350   5.125   5.536   3.187 -0.9341  0.9164  0.7810
 9953TIP3    H251351   5.077   5.667   3.129 -0.1510  0.9632  0.2217
 9954TIP3   OH251352   4.667   6.628  14.279  0.1554 -0.8259  0.3310
 9954TIP3    H151353   4.719   6.563  14.327 -0.5621 -0.6873  1.3133
 9954TIP3    H251354   4.731   6.696  14.255  0.7492 -1.4790  0.0268
 9955TIP3   OH251355   2.706   1.929   1.254 -0.1778  0.3573 -0.2414
 9955TIP3    H151356   2.700   1.860   1.321 -1.2473  0.3287 -0.3468
 9955TIP3    H251357   2.615   1.952   1.235  0.1489  2.0578  0.0504
 9956TIP3   OH251358   3.854   5.553   0.071  0.2012  0.6038  0.1379
 9956TIP3    H151359   3.877   5.646   0.065 -0.7216  0.8464  0.2957
 9956TIP3    H251360   3.820   5.531  -0.016 -2.1070  1.1207  0.8464
 9957TIP3   OH251361   6.563   5.581   4.098 -0.1595  0.1036  0.4527
 9957TIP3    H151362   6.554   5.496   4.141  2.1076 -1.2493 -1.4895
 9957TIP3    H251363   6.502   5.638   4.145 -1.4345 -2.4407  2.1385
 9958TIP3   OH251364   2.488   0.856  16.367  0.4781 -0.6004  0.2604
 9958TIP3    H151365   2.505   0.880  16.276 -0.2476  1.0862  0.5217
 9958TIP3    H251366   2.560   0.896  16.416  1.9745 -3.1528  0.2986
 9959TIP3   OH251367   5.078   2.273   6.513  0.3334  0.0105  0.3863
 9959TIP3    H151368   5.060   2.302   6.603  0.4258 -1.0147  0.7536
 9959TIP3    H251369   5.005   2.307   6.462 -1.1454 -1.5440  1.3342
 9960TIP3   OH251370   2.395   4.102   2.118 -0.2525  0.2941 -0.6738
 9960TIP3    H151371   2.376   4.124   2.208 -2.0395 -0.4371 -0.8339
 9960TIP3    H251372   2.467   4.039   2.123 -0.3903  0.2071  0.2508
 9961TIP3   OH251373   5.410   2.264  16.813  0.0072  0.1426 -0.0420
 9961TIP3    H151374   5.465   2.192  16.780  0.0768 -0.2055  0.7973
 9961TIP3    H251375   5.367   2.227  16.890  0.9913  1.3784  1.1431
 9962TIP3   OH251376   0.867   0.402  10.196  0.4736  0.3587 -0.4134
 9962TIP3    H151377   0.853   0.315  10.232 -0.6689  0.1967 -1.1777
 9962TIP3    H251378   0.788   0.451  10.220 -0.1536  0.3542 -2.2756
 9963TIP3   OH251379   5.035   3.905   6.126  0.7284 -0.2991  0.1238
 9963TIP3    H151380   5.055   3.990   6.165 -1.2148  0.3527 -0.1824
 9963TIP3    H251381   5.047   3.842   6.197  0.4314  0.4526  0.8544
 9964TIP3   OH251382   1.675   3.074   3.660 -0.1303  0.2713  0.3456
 9964TIP3    H151383   1.686   3.168   3.671 -1.5501  0.2556  2.5158
 9964TIP3    H251384   1.761   3.037   3.685 -0.1423  0.9186  1.4365
 9965TIP3   OH251385   0.443   6.660   4.598  0.3330  0.3894  0.0151
 9965TIP3    H151386   0.368   6.655   4.657  3.4130 -0.0088  4.4195
 9965TIP3    H251387   0.431   6.588   4.537 -2.1044 -0.6235  1.5565
 9966TIP3   OH251388   6.237   0.057  14.807  0.8019  0.3384  0.2924
 9966TIP3    H151389   6.203   0.086  14.892 -0.2115 -0.3374  0.1295
 9966TIP3    H251390   6.167   0.004  14.770  1.7154 -0.4086 -0.4207
 9967TIP3   OH251391   2.862   3.878   6.707  0.3833  0.0709 -0.3695
 9967TIP3    H151392   2.899   3.962   6.680  1.1556 -0.5911 -1.4587
 9967TIP3    H251393   2.934   3.816   6.700 -0.6540 -1.0734 -1.6221
 9968TIP3   OH251394   1.030   6.220  13.825  0.0285 -0.5118 -0.4376
 9968TIP3    H151395   1.119   6.247  13.849 -0.4734  1.4394 -0.5945
 9968TIP3    H251396   1.010   6.273  13.747 -1.4450 -0.5539 -0.1046
 9969TIP3   OH251397   2.063   1.119   6.064 -0.4957  0.0665  0.2707
 9969TIP3    H151398   2.154   1.116   6.035 -0.3758 -1.0919  0.7413
 9969TIP3    H251399   2.068   1.149   6.155 -0.7934  2.5042 -0.4225
 9970TIP3   OH251400   3.655   5.700  16.947  0.0874  0.0577 -0.3416
 9970TIP3    H151401   3.663   5.727  17.039  1.1206  0.6438 -0.5881
 9970TIP3    H251402   3.561   5.695  16.932 -0.1521 -1.9387  1.2888
 9971TIP3   OH251403   1.613   2.642   1.305  0.1691 -0.3495 -0.3062
 9971TIP3    H151404   1.564   2.563   1.281 -0.3075 -0.0954 -0.1953
 9971TIP3    H251405   1.607   2.646   1.400 -0.6574  0.3376 -0.3692
 9972TIP3   OH251406   2.577   6.810  10.987  0.3750 -0.2814  0.2538
 9972TIP3    H151407   2.624   6.875  10.935  0.0257 -0.7021 -0.6055
 9972TIP3    H251408   2.528   6.861  11.052  0.0715  0.3124 -0.4378
 9973TIP3   OH251409   3.172   5.359  14.159  0.1222 -0.3246 -0.4824
 9973TIP3    H151410   3.193   5.412  14.082  0.2384 -0.2852 -0.4236
 9973TIP3    H251411   3.158   5.422  14.229  3.2884 -0.4181  0.3824
 9974TIP3   OH251412   0.358   0.582   0.498 -0.1488 -0.5231  0.6440
 9974TIP3    H151413   0.282   0.632   0.530 -0.2978 -0.2346 -0.1514
 9974TIP3    H251414   0.407   0.645   0.446  1.3645 -0.3229  2.2436
 9975TIP3   OH251415   1.312   3.917   1.071 -0.8314  0.3049 -0.2944
 9975TIP3    H151416   1.237   3.972   1.045 -1.0823  0.9355  1.6442
 9975TIP3    H251417   1.381   3.941   1.009 -1.6720  1.0655 -0.9751
 9976TIP3   OH251418   5.718   2.724  10.642 -0.1159  0.1082  0.0870
 9976TIP3    H151419   5.626   2.717  10.667  0.3604 -1.3084  1.5833
 9976TIP3    H251420   5.716   2.733  10.546 -1.7889 -0.3766  0.0478
 9977TIP3   OH251421   0.899   5.424  11.609 -0.2123 -0.1339 -1.0527
 9977TIP3    H151422   0.822   5.396  11.559 -0.1430 -2.2379 -0.0786
 9977TIP3    H251423   0.973   5.407  11.550 -0.2510 -1.2680 -0.8061
 9978TIP3   OH251424   2.243   0.558  16.758  0.4945 -0.3844  0.1152
 9978TIP3    H151425   2.180   0.589  16.693 -0.4455 -0.6787  0.8561
 9978TIP3    H251426   2.229   0.463  16.761  0.9756 -0.4537  0.2962
 9979TIP3   OH251427   4.621   4.464   2.755 -0.7906 -0.2693  0.3089
 9979TIP3    H151428   4.681   4.405   2.801 -0.4919  0.0561  0.3434
 9979TIP3    H251429   4.676   4.539   2.731 -1.2428  0.1446  0.5597
 9980TIP3   OH251430   6.528   3.323   5.816 -0.8778  0.0982 -0.0763
 9980TIP3    H151431   6.473   3.373   5.755  0.5155  2.9156  0.7726
 9980TIP3    H251432   6.490   3.341   5.902  0.3479  0.7452  0.3515
 9981TIP3   OH251433   4.124   1.589   6.686 -0.5770  0.1387 -0.6022
 9981TIP3    H151434   4.036   1.615   6.714 -0.8701 -0.1828 -1.1941
 9981TIP3    H251435   4.122   1.493   6.690 -0.6657  0.0782 -1.7975
 9982TIP3   OH251436   6.034   6.386  12.257  0.2761 -0.3670 -0.0803
 9982TIP3    H151437   6.011   6.475  12.227  0.2212 -0.6038 -0.7708
 9982TIP3    H251438   6.040   6.335  12.176  1.4917 -0.7261  0.2162
 9983TIP3   OH251439   0.461   2.259  15.985  0.4590  0.1608  0.1670
 9983TIP3    H151440   0.406   2.196  16.031  0.1032 -1.1603 -1.9080
 9983TIP3    H251441   0.536   2.273  16.043  0.4530 -2.0495  0.8164
 9984TIP3   OH251442   5.342   1.306  12.026 -0.2910 -0.2179 -0.2273
 9984TIP3    H151443   5.379   1.230  11.981  0.3691  0.7182 -1.3405
 9984TIP3    H251444   5.418   1.352  12.062 -0.8198 -1.0697  2.1547
 9985TIP3   OH251445   3.895   1.265   0.936 -0.3811  0.7910  0.2815
 9985TIP3    H151446   3.926   1.209   1.007 -1.2343  0.1583  0.1656
 9985TIP3    H251447   3.975   1.300   0.896  0.4357 -2.8979 -1.7477
 9986TIP3   OH251448   3.723   5.549  12.133 -0.2491  0.7030 -0.4009
 9986TIP3    H151449   3.721   5.474  12.193 -0.9215  0.8888 -0.1748
 9986TIP3    H251450   3.665   5.523  12.061 -1.2733  1.3637  0.1439
 9987TIP3   OH251451   2.294   0.660  10.598  0.4030 -0.0253 -0.2448
 9987TIP3    H151452   2.369   0.720  10.609  1.2401 -1.0879  0.0473
 9987TIP3    H251453   2.321   0.580  10.643 -1.3697 -0.0709  0.8345
 9988TIP3   OH251454   2.932   3.857  11.782 -0.6151  0.3994  0.3119
 9988TIP3    H151455   2.949   3.878  11.690 -0.3010 -1.9941 -0.2300
 9988TIP3    H251456   3.003   3.901  11.829 -0.3478  1.0390 -0.6560
 9989TIP3   OH251457   6.666   5.235  14.944  0.1112 -0.0623 -0.1778
 9989TIP3    H151458   6.582   5.263  14.980 -0.1568  0.2916 -1.0476
 9989TIP3    H251459   6.732   5.282  14.996 -0.2108 -0.5217  0.6616
 9990TIP3   OH251460   5.517   1.521   6.014 -0.7845  0.3881 -0.5535
 9990TIP3    H151461   5.556   1.602   6.046 -0.7865 -0.0487  0.6298
 9990TIP3    H251462   5.538   1.519   5.921  1.4472  0.5364 -0.1255
 9991TIP3   OH251463   2.392   4.126  10.385 -0.4997 -0.1281  0.6491
 9991TIP3    H151464   2.367   4.142  10.476 -1.0668 -1.0582  0.6690
 9991TIP3    H251465   2.333   4.182  10.334  0.3233  0.9773  0.8599
 9992TIP3   OH251466   2.461   1.997   4.720  0.3804  0.4136  0.4550
 9992TIP3    H151467   2.477   2.079   4.767 -2.3994 -0.0771  2.4909
 9992TIP3    H251468   2.528   1.937   4.752  1.8426  1.5537 -0.3410
 9993TIP3   OH251469   2.858   1.002   1.555 -0.6023 -0.1599 -0.6886
 9993TIP3    H151470   2.914   1.032   1.484 -0.9528  2.1700 -0.0655
 9993TIP3    H251471   2.917   0.987   1.629 -0.1926 -2.9165 -1.4846
 9994TIP3   OH251472   4.068   0.843   3.287 -0.1912  0.2306 -0.1024
 9994TIP3    H151473   4.048   0.913   3.225  0.4748  1.0593  0.5898
 9994TIP3    H251474   4.091   0.768   3.232 -0.9572  0.5320 -0.8586
 9995TIP3   OH251475   5.244   3.268  16.711  0.4605  0.1979  0.0845
 9995TIP3    H151476   5.203   3.353  16.723  0.1826  0.4250 -2.0842
 9995TIP3    H251477   5.303   3.259  16.786  2.5508  3.4843 -0.9721
 9996TIP3   OH251478   4.649   6.595   6.058  0.6365 -0.1525  0.1657
 9996TIP3    H151479   4.745   6.599   6.065  0.5802 -0.5687  1.6706
 9996TIP3    H251480   4.621   6.687   6.066  0.8525 -0.1766  1.5040
 9997TIP3   OH251481   2.596   6.684  15.844 -0.4634 -0.5148 -0.1931
 9997TIP3    H151482   2.639   6.638  15.917 -2.7666 -2.0033  0.3214
 9997TIP3    H251483   2.615   6.776  15.861 -0.3781 -0.8644  1.9489
 9998TIP3   OH251484   1.019   0.105   6.212  0.1660  0.5866  0.5516
 9998TIP3    H151485   0.957   0.178   6.202  0.1101  0.3200 -1.3881
 9998TIP3    H251486   1.000   0.070   6.299 -1.4745  1.3656  0.5513
 9999TIP3   OH251487   0.158   1.222   6.655 -0.0441  0.0168  0.1669
 9999TIP3    H151488   0.229   1.158   6.650  1.9024  2.0995 -0.5917
 9999TIP3    H251489   0.122   1.225   6.566  0.2435  0.3559  0.0590
10000TIP3   OH251490   2.895   6.210  13.763  0.4415 -0.4340  0.6858
10000TIP3    H151491   2.973   6.196  13.817  0.5953 -0.3067  0.4986
10000TIP3    H251492   2.887   6.130  13.710  1.1938  0.0713 -0.2270
10001TIP3   OH251493   4.377   1.159   0.613  0.0981 -0.4535 -0.5837
10001TIP3    H151494   4.291   1.118   0.624 -0.0034 -1.2446 -3.5931
10001TIP3    H251495   4.361   1.235   0.557  1.2791 -0.1648 -0.5603
10002TIP3   OH251496   3.349   2.451  15.370  0.2468  0.5961 -0.3674
10002TIP3    H151497   3.345   2.546  15.359  1.6112  0.6693 -0.4192
10002TIP3    H251498   3.441   2.430  15.356 -0.0758 -0.7606 -0.5236
10003TIP3   OH251499   2.529   4.319  17.083 -0.8046 -0.1960 -0.0367
10003TIP3    H151500   2.592   4.259  17.123 -0.1434  0.1968 -0.4681
10003TIP3    H251501   2.499   4.273  17.004 -1.2295 -0.4700  0.2729
10004TIP3   OH251502   0.983   2.710  16.583 -0.9964 -0.0865 -0.5647
10004TIP3    H151503   1.008   2.630  16.536 -0.3554  0.4310 -1.1239
10004TIP3    H251504   0.968   2.680  16.672  1.5224 -0.5143 -0.1823
10005TIP3   OH251505   3.128   3.233   5.156 -0.1977  0.3586 -0.3750
10005TIP3    H151506   3.198   3.298   5.166 -0.6375  0.9536 -1.0839
10005TIP3    H251507   3.071   3.247   5.232  0.2640  0.0951  0.0267
10006TIP3   OH251508   1.604   3.487   5.160 -0.0950 -0.1873 -0.2692
10006TIP3    H151509   1.538   3.440   5.109 -0.7608 -0.3356  0.6891
10006TIP3    H251510   1.564   3.572   5.177 -0.9462 -0.9614  2.0081
10007TIP3   OH251511   1.048   6.193  10.900  0.3434 -0.7346 -0.6487
10007TIP3    H151512   0.980   6.208  10.966  1.7083  0.9681  0.4691
10007TIP3    H251513   1.122   6.156  10.950  1.3963  0.5632 -1.1875
10008TIP3   OH251514   0.885   2.327   1.666 -0.2094  0.3403 -0.2767
10008TIP3    H151515   0.880   2.377   1.584 -1.0992  0.4235 -0.1769
10008TIP3    H251516   0.888   2.235   1.638  1.2786  0.4221 -0.4553
10009TIP3   OH251517   4.221   5.695   2.489  0.1074  0.6326  0.3055
10009TIP3    H151518   4.128   5.673   2.482 -0.0278  1.2829 -0.0488
10009TIP3    H251519   4.259   5.623   2.539 -0.6006  0.3957  0.5184
10010TIP3   OH251520   4.973   6.708  12.220  0.0959 -0.2399 -0.5323
10010TIP3    H151521   5.005   6.674  12.304 -0.8331 -0.6721 -0.3459
10010TIP3    H251522   4.916   6.639  12.186 -0.1394  0.2527 -1.1672
10011TIP3   OH251523   1.147   1.978   3.180  0.4317  0.1100  0.2621
10011TIP3    H151524   1.157   2.066   3.216 -0.4097 -0.0550  0.9245
10011TIP3    H251525   1.215   1.972   3.113 -0.3596  1.7614 -0.7641
10012TIP3   OH251526   4.078   6.833   0.711  0.3553 -0.4175  0.2298
10012TIP3    H151527   4.052   6.776   0.638  0.1112 -1.2480  0.9397
10012TIP3    H251528   4.165   6.863   0.688  0.2388 -0.5820 -0.4576
10013TIP3   OH251529   6.378   0.933   5.295 -0.4467 -0.2975 -0.7352
10013TIP3    H151530   6.362   0.850   5.341  0.5126 -1.2876 -2.1052
10013TIP3    H251531   6.309   0.991   5.326  0.7036 -0.5554  2.7214
10014TIP3   OH251532   0.646   6.200  14.408  0.2615 -0.7040 -0.4014
10014TIP3    H151533   0.602   6.285  14.417  0.4898 -0.6342  0.0680
10014TIP3    H251534   0.740   6.222  14.406  0.4950 -1.1079  2.2737
10015TIP3   OH251535   6.188   1.963   0.902 -0.3938 -0.0240  0.1405
10015TIP3    H151536   6.244   1.888   0.882 -1.7397 -1.0664  0.1415
10015TIP3    H251537   6.215   1.990   0.990  0.7216  0.0849 -0.2212
10016TIP3   OH251538   5.749   6.119   0.748 -0.4190  0.3666 -0.2144
10016TIP3    H151539   5.828   6.082   0.788 -1.0714 -0.5640  0.2212
10016TIP3    H251540   5.774   6.134   0.657  0.3976  0.5051  0.0189
10017TIP3   OH251541   4.654   5.426   1.278 -0.3447 -0.4069  0.6985
10017TIP3    H151542   4.713   5.501   1.272  1.0165 -1.5052 -0.3627
10017TIP3    H251543   4.704   5.359   1.325 -1.0975 -1.0489  0.6125
10018TIP3   OH251544   6.836   3.020   3.442 -0.3229  0.2929  0.1297
10018TIP3    H151545   6.919   2.998   3.402 -0.5811  1.3182 -1.0397
10018TIP3    H251546   6.830   2.964   3.519  0.7807 -0.8142 -0.5677
10019TIP3   OH251547   0.327   1.845   2.306 -0.1393 -0.7878  0.5582
10019TIP3    H151548   0.271   1.769   2.322 -0.2363 -0.5588  1.3616
10019TIP3    H251549   0.275   1.902   2.250 -0.1806 -1.1766  0.1954
10020TIP3   OH251550   3.574   4.449   1.717 -0.0963  0.4238 -0.2145
10020TIP3    H151551   3.523   4.500   1.781  1.1435  1.6628 -0.1770
10020TIP3    H251552   3.516   4.378   1.692 -2.2223  2.2647 -0.8544
10021TIP3   OH251553   6.559   3.697  16.043  0.3253  0.0257 -0.7301
10021TIP3    H151554   6.465   3.683  16.051  0.1486  1.4270 -0.0692
10021TIP3    H251555   6.597   3.629  16.098 -0.3119 -0.3546 -0.7470
10022TIP3   OH251556   2.250   4.488   5.676  0.3002  0.3405  0.3885
10022TIP3    H151557   2.261   4.397   5.647 -1.1314  1.0851 -3.0481
10022TIP3    H251558   2.284   4.540   5.603 -1.7840  2.5133  0.8437
10023TIP3   OH251559   6.106   5.469   1.567 -0.0650 -0.4756  0.0953
10023TIP3    H151560   6.043   5.401   1.544  0.3771 -0.8357 -0.0514
10023TIP3    H251561   6.075   5.503   1.651  1.0337 -2.5061  1.4051
10024TIP3   OH251562   5.643   3.094   5.048  0.3041 -0.7628 -0.3920
10024TIP3    H151563   5.621   3.186   5.037 -3.2049 -1.1449  1.8395
10024TIP3    H251564   5.685   3.089   5.134 -1.7566 -1.4251  0.6430
10025TIP3   OH251565   2.787   3.582   4.944  0.0751 -0.3705 -0.1754
10025TIP3    H151566   2.822   3.668   4.918  1.1821  0.1567  2.7364
10025TIP3    H251567   2.697   3.600   4.970 -0.1487 -0.3961 -0.8943
10026TIP3   OH251568   5.175   1.471   5.277  0.6507 -0.0570 -0.5294
10026TIP3    H151569   5.170   1.407   5.349  0.4562 -0.5251 -0.9567
10026TIP3    H251570   5.268   1.475   5.256  0.9037  1.1000  0.6462
10027TIP3   OH251571   1.794   4.550  14.352  0.8439  0.5030 -0.3789
10027TIP3    H151572   1.801   4.585  14.440  3.7699  2.1107 -1.1110
10027TIP3    H251573   1.781   4.456  14.364 -0.4008  0.8875  1.7010
10028TIP3   OH251574   3.068   3.869  11.206 -0.0293 -0.2619 -0.9628
10028TIP3    H151575   3.034   3.784  11.179  2.7550 -1.9969  0.5571
10028TIP3    H251576   3.147   3.882  11.154 -0.0665  1.1287 -0.7233
10029TIP3   OH251577   4.079   6.432  11.779 -0.3127  0.2024  0.1631
10029TIP3    H151578   4.051   6.416  11.869  0.0120 -2.0407 -0.0720
10029TIP3    H251579   4.090   6.527  11.773 -2.5946  0.6373  1.7860
10030TIP3   OH251580   6.505   3.563  10.666  0.2654 -0.0449  0.1801
10030TIP3    H151581   6.444   3.513  10.720  1.4602 -2.4823 -0.5623
10030TIP3    H251582   6.453   3.594  10.593 -0.4768 -0.4356  0.5334
10031TIP3   OH251583   0.253   6.790   5.799  0.4495  0.3037 -0.2974
10031TIP3    H151584   0.323   6.851   5.777  0.6005  0.5244  0.7522
10031TIP3    H251585   0.279   6.707   5.759  1.5967  0.2337  0.5602
10032TIP3   OH251586   3.844   4.061   0.016 -0.4022 -0.3528  0.1746
10032TIP3    H151587   3.874   3.984   0.064  1.0875 -0.4431 -0.8157
10032TIP3    H251588   3.868   4.135   0.071  0.3705 -0.4997  0.0414
10033TIP3   OH251589   4.318   5.701   2.121  0.3711  0.2715  0.1714
10033TIP3    H151590   4.235   5.702   2.167  0.5995 -0.5803  0.6179
10033TIP3    H251591   4.384   5.711   2.189  0.6906 -0.4989 -0.0146
10034TIP3   OH251592   2.198   5.916  11.995  0.3147 -0.1462  0.2649
10034TIP3    H151593   2.283   5.880  11.971  0.6344 -0.0425  1.1999
10034TIP3    H251594   2.142   5.900  11.919  0.2114 -3.2753  0.8818
10035TIP3   OH251595   6.537   3.625   2.031 -0.2330 -0.1319  0.0084
10035TIP3    H151596   6.516   3.531   2.028 -1.7304  0.1905 -0.2001
10035TIP3    H251597   6.518   3.657   1.943 -0.9632  0.6131  0.4271
10036TIP3   OH251598   2.261   0.988  11.599 -0.0142  0.7473 -0.6246
10036TIP3    H151599   2.243   0.939  11.679  0.7294 -1.5559 -1.7716
10036TIP3    H251600   2.352   0.966  11.577 -0.5330  0.3740 -2.6697
10037TIP3   OH251601   2.341   5.053   2.079  0.5307  0.4002 -0.2477
10037TIP3    H151602   2.411   5.040   2.015  0.5221 -1.5757  0.0827
10037TIP3    H251603   2.265   5.012   2.039 -0.4046  2.2520 -0.4625
10038TIP3   OH251604   4.135   2.486   5.410 -0.3635 -0.0870  0.4452
10038TIP3    H151605   4.156   2.400   5.373 -1.5419 -0.2096  0.0260
10038TIP3    H251606   4.168   2.482   5.500  3.7060  0.6644 -0.8143
10039TIP3   OH251607   3.162   2.107  16.753 -0.1893 -0.5059 -0.0197
10039TIP3    H151608   3.123   2.052  16.821  1.6622 -0.9575  0.7428
10039TIP3    H251609   3.164   2.051  16.675 -1.4445 -0.3125 -0.2143
10040TIP3   OH251610   4.481   5.737   1.337 -0.2009  0.1465 -0.3019
10040TIP3    H151611   4.545   5.702   1.276  0.1520  0.6065 -0.1931
10040TIP3    H251612   4.396   5.721   1.295 -0.1724 -2.1349  0.3555
10041TIP3   OH251613   4.360   2.197  12.027 -0.4257 -0.5791 -0.4080
10041TIP3    H151614   4.268   2.206  12.004 -0.2216  0.9664 -0.7589
10041TIP3    H251615   4.391   2.122  11.976 -1.3283 -0.7114 -0.7760
10042TIP3   OH251616   5.209   3.341   1.900 -0.5496 -0.1579  0.0136
10042TIP3    H151617   5.178   3.252   1.914  0.3116 -0.5801 -0.6907
10042TIP3    H251618   5.157   3.373   1.826  0.0017 -0.5239 -0.5402
10043TIP3   OH251619   0.097   2.922   1.889  0.7069  0.3595  0.8195
10043TIP3    H151620   0.037   2.970   1.832  1.1427 -0.4006 -0.3189
10043TIP3    H251621   0.044   2.848   1.921  1.0696 -0.4779 -0.4182
10044TIP3   OH251622   2.826   1.252   5.928  0.1250 -0.3954  0.2331
10044TIP3    H151623   2.909   1.257   5.976  0.3574 -1.9749  0.0364
10044TIP3    H251624   2.798   1.161   5.938 -0.7811 -0.2828 -1.0435
10045TIP3   OH251625   5.084   5.561   5.902  0.2404  0.2859  0.0933
10045TIP3    H151626   5.120   5.523   5.982 -0.9757  0.0480  0.5471
10045TIP3    H251627   5.011   5.503   5.878  0.1042  0.7796 -0.7629
10046TIP3   OH251628   0.810   0.647  12.334  0.2593 -0.3032 -0.0068
10046TIP3    H151629   0.725   0.617  12.301  0.1116 -2.0117  1.7231
10046TIP3    H251630   0.816   0.738  12.307 -2.2859 -0.0361  0.0974
10047TIP3   OH251631   1.699   6.139  12.004 -0.0818  0.1053 -0.8598
10047TIP3    H151632   1.643   6.186  11.942 -1.9244 -0.7186  0.1036
10047TIP3    H251633   1.647   6.063  12.031  0.5503  0.5225  1.8341
10048TIP3   OH251634   5.261   2.104   3.907 -0.2187  0.0368 -0.2548
10048TIP3    H151635   5.344   2.066   3.935 -1.2008 -2.6112 -0.6344
10048TIP3    H251636   5.273   2.120   3.813 -0.8345 -2.7070 -0.8921
10049TIP3   OH251637   6.719   1.376  16.241  0.3503 -0.5164  0.1399
10049TIP3    H151638   6.648   1.381  16.304  0.9586  1.0551  0.7321
10049TIP3    H251639   6.675   1.359  16.157 -0.8003  0.9672  0.3974
10050TIP3   OH251640   6.717   5.765  16.516  0.6279 -0.4684 -0.1287
10050TIP3    H151641   6.679   5.744  16.430 -0.8570  3.4483 -0.6313
10050TIP3    H251642   6.641   5.770  16.575  1.3683 -0.6702  0.8604
10051TIP3   OH251643   2.478   3.594   6.477  0.6440 -0.2077 -0.0928
10051TIP3    H151644   2.421   3.582   6.401 -0.9466  0.6321  0.9216
10051TIP3    H251645   2.433   3.548   6.548  1.8026 -0.4786  0.4923
10052TIP3   OH251646   2.303   2.934  16.102 -0.0854  0.2505 -0.1333
10052TIP3    H151647   2.297   2.969  16.191  0.3526 -0.0636  0.0285
10052TIP3    H251648   2.220   2.957  16.061 -0.5475 -0.1351  0.5556
10053TIP3   OH251649   2.952   0.311   3.856 -0.6277  0.0548  1.0530
10053TIP3    H151650   2.862   0.333   3.879 -0.6153 -0.3197  1.4603
10053TIP3    H251651   2.973   0.234   3.909 -1.1415 -1.8483 -1.2993
10054TIP3   OH251652   2.767   1.493   6.093  0.2718  0.1971 -0.0958
10054TIP3    H151653   2.746   1.522   6.182 -1.1420 -1.6168  0.2297
10054TIP3    H251654   2.818   1.413   6.106  0.5668  0.2464 -0.9202
10055TIP3   OH251655   1.014   0.114   4.838  0.7162  0.0204  0.3673
10055TIP3    H151656   0.943   0.166   4.876  0.5331 -0.9608  1.4225
10055TIP3    H251657   1.034   0.157   4.755 -0.9810  0.4251  0.1382
10056TIP3   OH251658   6.210   4.083  11.229 -0.3684  0.5308 -0.4596
10056TIP3    H151659   6.278   4.099  11.296 -0.7419 -2.1935  0.7173
10056TIP3    H251660   6.160   4.165  11.225  1.0284  1.5167  0.9757
10057TIP3   OH251661   0.452   4.774   0.491  0.3440 -0.1993  0.4716
10057TIP3    H151662   0.467   4.816   0.406 -2.1185  1.2433  0.6699
10057TIP3    H251663   0.434   4.847   0.550  0.4136 -1.3020  1.8856
10058TIP3   OH251664   6.149   6.185   0.369  0.3521  0.5965  0.0288
10058TIP3    H151665   6.199   6.195   0.450  1.0837  0.9848 -0.4594
10058TIP3    H251666   6.215   6.177   0.300 -0.1968  2.5689 -0.8202
10059TIP3   OH251667   6.704   3.556  11.806 -0.1634  0.0980  0.4429
10059TIP3    H151668   6.722   3.621  11.873 -2.7831  1.8620 -0.3875
10059TIP3    H251669   6.618   3.520  11.830  0.3476 -1.6533 -0.1944
10060TIP3   OH251670   4.281   4.989   0.465  0.5742 -0.4909  0.2606
10060TIP3    H151671   4.190   5.005   0.440  0.3546 -0.3906  1.0804
10060TIP3    H251672   4.275   4.934   0.543  1.1619  0.6794  1.1598
10061TIP3   OH251673   4.160   3.046   4.376  1.1095  0.4378  0.5792
10061TIP3    H151674   4.132   3.030   4.466  0.3076  0.2686  0.3080
10061TIP3    H251675   4.166   2.959   4.337 -2.8880  0.5577 -0.7886
10062TIP3   OH251676   0.448   6.627  16.382 -0.4681 -0.2811  0.2971
10062TIP3    H151677   0.410   6.584  16.459 -0.7128  1.0424  0.9548
10062TIP3    H251678   0.392   6.601  16.309 -1.0528 -0.4606  0.8031
10063TIP3   OH251679   0.057   4.157  11.402  0.6935 -0.1877  0.7204
10063TIP3    H151680   0.061   4.197  11.490  0.4263  1.1498  0.1481
10063TIP3    H251681  -0.036   4.139  11.388  0.4772  1.4000 -0.0422
10064TIP3   OH251682   3.362   0.046   1.819  0.2114 -0.1002 -0.5959
10064TIP3    H151683   3.397  -0.032   1.776 -1.2898 -0.4047 -1.3068
10064TIP3    H251684   3.431   0.071   1.881  1.1067 -1.4435 -0.9940
10065TIP3   OH251685   5.757   1.654  16.331  0.2681  0.3364 -0.3024
10065TIP3    H151686   5.730   1.736  16.291 -0.6240  0.1757 -0.0654
10065TIP3    H251687   5.677   1.620  16.372  0.9057 -0.0301  0.6795
10066TIP3   OH251688   0.459   6.310   2.121  0.2116  0.0692  0.1448
10066TIP3    H151689   0.538   6.354   2.151 -0.0475  2.4162 -2.2350
10066TIP3    H251690   0.395   6.327   2.190  0.8503  1.2122  0.4872
10067TIP3   OH251691   5.277   3.423  12.835 -0.6370 -0.8105  0.4828
10067TIP3    H151692   5.290   3.508  12.877 -1.9613 -0.6333  0.5898
10067TIP3    H251693   5.345   3.367  12.872 -0.9499 -0.3055  1.8973
10068TIP3   OH251694   0.534   4.442  13.585  0.2093 -0.1460  0.1691
10068TIP3    H151695   0.528   4.451  13.490  0.6323  1.1210  0.2515
10068TIP3    H251696   0.456   4.393  13.609  0.5095 -1.2149 -0.9134
10069TIP3   OH251697   2.116   2.424   0.171 -0.0441 -1.0037  0.4456
10069TIP3    H151698   2.086   2.339   0.139  0.1761 -0.7165 -0.5817
10069TIP3    H251699   2.102   2.483   0.097 -0.5437 -0.0599  1.2679
10070TIP3   OH251700   5.246   4.800   1.451  0.1446 -0.4215  0.1847
10070TIP3    H151701   5.178   4.747   1.409 -0.3005 -0.8643  1.4480
10070TIP3    H251702   5.327   4.771   1.409 -0.1163 -1.9722  0.6952
10071TIP3   OH251703   2.204   5.957   1.082 -0.3438 -0.0524  0.0483
10071TIP3    H151704   2.236   5.892   1.145  0.0613 -1.3116 -1.4147
10071TIP3    H251705   2.109   5.945   1.082 -0.3119 -0.3048  0.1189
10072TIP3   OH251706   2.003   0.347   1.472 -0.5624  0.1305 -0.2549
10072TIP3    H151707   1.998   0.253   1.489 -2.5035  0.4879  1.4517
10072TIP3    H251708   2.016   0.386   1.558 -1.1048  1.5027 -0.7821
10073TIP3   OH251709   4.889   4.360   5.121 -0.0461  0.1734  0.2859
10073TIP3    H151710   4.802   4.323   5.102  0.5296 -1.1269  0.0238
10073TIP3    H251711   4.947   4.318   5.057  0.6992  1.4221  0.1176
10074TIP3   OH251712   2.814   3.723  15.591  0.5415 -0.3674 -0.1476
10074TIP3    H151713   2.842   3.685  15.507  1.1048 -0.0397 -0.1159
10074TIP3    H251714   2.787   3.812  15.569  1.4688 -0.0041  0.1349
10075TIP3   OH251715   4.239   5.435  16.017  0.4469  0.3834 -0.6624
10075TIP3    H151716   4.153   5.395  16.018 -0.6005  2.4455 -1.7552
10075TIP3    H251717   4.255   5.461  16.108 -0.1680  0.1217 -0.4767
10076TIP3   OH251718   0.740   1.433   2.364  0.3241 -0.3789 -0.1153
10076TIP3    H151719   0.684   1.360   2.337  0.3142  0.0416 -1.2574
10076TIP3    H251720   0.742   1.427   2.459 -0.8193 -1.0185 -0.1190
10077TIP3   OH251721   5.187   6.743   0.956  0.5983 -0.2811  0.3856
10077TIP3    H151722   5.247   6.813   0.931 -0.1011 -0.8585 -3.6901
10077TIP3    H251723   5.136   6.779   1.029  2.0493  2.3809  0.1854
10078TIP3   OH251724   6.121   5.914  10.688  0.4314 -0.2514  0.2845
10078TIP3    H151725   6.133   5.886  10.598  0.7779 -0.1610  0.2995
10078TIP3    H251726   6.209   5.907  10.727  0.4667  0.5694  0.3708
10079TIP3   OH251727   4.325   5.310   2.986  0.5041  0.2052 -0.2622
10079TIP3    H151728   4.373   5.339   2.908 -0.1384  0.5952 -0.5220
10079TIP3    H251729   4.324   5.386   3.044  1.6832 -0.3296  0.4938
10080TIP3   OH251730   0.734   6.346   4.623  0.7274  0.0081  0.6916
10080TIP3    H151731   0.714   6.439   4.638  1.7526  0.4154 -0.2180
10080TIP3    H251732   0.693   6.326   4.539 -0.0070 -0.5437  1.1778
10081TIP3   OH251733   1.359   3.575   0.785 -0.4042 -0.2685 -0.4905
10081TIP3    H151734   1.309   3.621   0.853 -1.6989  1.5397 -2.5096
10081TIP3    H251735   1.297   3.511   0.750  0.5000 -1.7100  0.4766
10082TIP3   OH251736   1.327   6.216   5.213  0.5536  0.1407  0.2242
10082TIP3    H151737   1.404   6.253   5.256  1.1458  1.0925 -1.5530
10082TIP3    H251738   1.343   6.229   5.119 -1.3489 -0.4927 -0.2365
10083TIP3   OH251739   0.982   0.040   1.116 -0.1489 -0.1039 -0.2510
10083TIP3    H151740   0.994   0.135   1.112  1.5310 -0.3235 -2.1788
10083TIP3    H251741   0.911   0.022   1.054 -0.4018 -0.1278  0.0427
10084TIP3   OH251742   2.790   4.393   4.705 -0.5958  0.3594  0.3166
10084TIP3    H151743   2.796   4.420   4.796  0.6756 -2.1161  1.0385
10084TIP3    H251744   2.750   4.468   4.660  1.9421  3.0779  2.2323
10085TIP3   OH251745   3.616   1.601   2.590  0.4784 -0.3694  0.3573
10085TIP3    H151746   3.535   1.651   2.600  0.6635  0.5438 -2.2052
10085TIP3    H251747   3.591   1.524   2.539  1.1732 -0.1707 -0.3015
10086TIP3   OH251748   0.139   2.019   4.766 -0.0069 -0.2475  0.4928
10086TIP3    H151749   0.071   2.039   4.831 -1.3593  0.4803 -1.0535
10086TIP3    H251750   0.148   1.924   4.769 -0.9795 -0.3411  0.8561
10087TIP3   OH251751   4.823   4.931  15.815  0.4023 -0.5538 -0.0061
10087TIP3    H151752   4.897   4.873  15.797  0.0283 -0.8380 -0.6536
10087TIP3    H251753   4.848   5.014  15.775  0.9352 -0.2596  0.9167
10088TIP3   OH251754   3.967   4.806   5.081  0.0693 -0.2301 -0.0409
10088TIP3    H151755   3.891   4.835   5.029  0.5582  2.3877  0.5619
10088TIP3    H251756   3.937   4.811   5.172  0.0180 -2.3518  0.1165
10089TIP3   OH251757   3.348   1.271  11.895  0.2930 -0.0257  0.2088
10089TIP3    H151758   3.394   1.245  11.815  0.7225  0.0031  0.4454
10089TIP3    H251759   3.310   1.190  11.928 -1.2223  0.2055 -0.8571
10090TIP3   OH251760   5.966   0.950  15.552 -0.3392  0.0072  0.1379
10090TIP3    H151761   5.885   0.915  15.514  1.3019 -1.1679 -2.6043
10090TIP3    H251762   5.942   1.037  15.585 -2.6099 -0.1559 -0.9115
10091TIP3   OH251763   1.907   1.541   0.799 -0.1705  0.5229 -0.0295
10091TIP3    H151764   1.893   1.521   0.891 -2.6768 -4.0310 -1.0781
10091TIP3    H251765   1.965   1.472   0.768  1.6578  2.6705 -1.7425
10092TIP3   OH251766   0.684   0.835   1.225 -0.5105  0.8852  0.2565
10092TIP3    H151767   0.724   0.769   1.281  0.8402  1.2962 -0.1805
10092TIP3    H251768   0.726   0.918   1.252 -0.4746  1.2085 -0.7478
10093TIP3   OH251769   0.801   3.624   4.389 -0.1036  0.5436  0.1573
10093TIP3    H151770   0.841   3.588   4.309  1.4053 -0.2846  1.2207
10093TIP3    H251771   0.876   3.652   4.441 -1.0516  0.8306  1.3915
10094TIP3   OH251772   3.447   5.196   2.346  0.1471  0.2052 -0.3822
10094TIP3    H151773   3.428   5.289   2.361 -1.0774 -0.2467  1.1909
10094TIP3    H251774   3.368   5.163   2.303  1.1638  0.1498 -2.3296
10095TIP3   OH251775   0.717   0.925  15.322 -0.0185  0.3286 -0.3749
10095TIP3    H151776   0.694   0.856  15.259 -0.7157 -0.1548  0.3919
10095TIP3    H251777   0.813   0.927  15.322  0.0054 -0.6059 -0.4454
10096TIP3   OH251778   1.938   1.453  12.790  0.0212  0.4169  0.3596
10096TIP3    H151779   2.012   1.455  12.850 -1.1699 -0.3902  1.9254
10096TIP3    H251780   1.869   1.501  12.835 -0.5762  0.7656 -0.8702
10097TIP3   OH251781   5.469   1.129   0.671 -0.1325 -0.2213  0.7058
10097TIP3    H151782   5.483   1.083   0.589  1.9035 -1.3091  1.5896
10097TIP3    H251783   5.557   1.137   0.710 -0.9276  0.9691  2.3905
10098TIP3   OH251784   6.583   3.465   2.506 -0.2719  0.1809 -0.1425
10098TIP3    H151785   6.490   3.475   2.486 -0.0712  0.3808 -1.0261
10098TIP3    H251786   6.624   3.448   2.421  0.6868  1.4983  0.0255
10099TIP3   OH251787   5.222   2.472   3.095 -0.5215  0.4399 -0.0420
10099TIP3    H151788   5.273   2.446   3.018 -0.0877  0.4590  0.2316
10099TIP3    H251789   5.287   2.475   3.166 -1.1424 -0.8648  0.6124
10100TIP3   OH251790   4.258   1.703   4.058  0.1508  0.0138 -0.0966
10100TIP3    H151791   4.305   1.730   3.979 -0.8842  2.2589 -0.0274
10100TIP3    H251792   4.169   1.738   4.046 -0.8166 -1.9394  0.8830
10101TIP3   OH251793   0.802   2.195   1.290 -0.3176  0.2958  0.3075
10101TIP3    H151794   0.855   2.266   1.326 -0.9836  0.8120  0.2949
10101TIP3    H251795   0.860   2.150   1.229 -0.1700  1.3990 -0.3750
10102TIP3   OH251796   4.530   3.001  12.002 -0.5044  0.3313  0.2483
10102TIP3    H151797   4.570   3.019  11.917 -0.7800  1.2004  0.2856
10102TIP3    H251798   4.580   2.928  12.038 -0.4115 -0.0682 -0.6764
10103TIP3   OH251799   0.053   2.386   0.299 -0.2443  0.2447  0.9698
10103TIP3    H151800  -0.020   2.336   0.263  0.5013 -0.6058  0.6008
10103TIP3    H251801   0.125   2.371   0.237  0.6744 -0.1516  2.1053
10104TIP3   OH251802   1.047   6.676   4.890 -0.5485 -0.1674 -0.3270
10104TIP3    H151803   1.023   6.768   4.902  0.3123  0.3350 -2.1206
10104TIP3    H251804   1.056   6.666   4.795 -0.4529 -2.0647 -0.1469
10105TIP3   OH251805   3.823   3.076   1.778 -0.0794  0.1895 -0.1799
10105TIP3    H151806   3.879   3.153   1.786  0.0450 -0.0508  1.8376
10105TIP3    H251807   3.790   3.062   1.867 -3.3761  0.3231 -1.2488
10106TIP3   OH251808   6.596   3.614  14.092  0.1827 -0.0655 -0.6593
10106TIP3    H151809   6.596   3.689  14.151  1.2590 -2.1267  2.2112
10106TIP3    H251810   6.630   3.648  14.009 -0.4250  2.7836  0.1524
10107TIP3   OH251811   5.342   4.540  12.166  0.0414 -0.2854 -0.0516
10107TIP3    H151812   5.283   4.549  12.241  0.7301 -0.8971  0.5744
10107TIP3    H251813   5.420   4.590  12.191  0.2935 -0.5305 -0.3464
10108TIP3   OH251814   3.771   3.849  12.186 -0.0503 -0.0369 -0.8858
10108TIP3    H151815   3.770   3.790  12.262 -0.1872  0.6971 -0.3132
10108TIP3    H251816   3.823   3.924  12.215  0.0805  0.1490 -1.5952
10109TIP3   OH251817   4.455   5.008  16.444 -0.0585 -0.5375  0.0083
10109TIP3    H151818   4.447   4.919  16.478 -0.7262 -1.0634 -1.4532
10109TIP3    H251819   4.497   4.997  16.359 -0.7740  0.4716 -0.4871
10110TIP3   OH251820   2.316   5.898   3.702  0.4338  0.0163 -0.0392
10110TIP3    H151821   2.411   5.895   3.713  0.6325 -0.1743 -1.6655
10110TIP3    H251822   2.287   5.808   3.714  0.3295  0.2146  1.3472
10111TIP3   OH251823   6.129   1.083   4.905  0.3332 -0.0653  0.1346
10111TIP3    H151824   6.102   1.095   4.814  0.3061  0.7269  0.2396
10111TIP3    H251825   6.052   1.044   4.947  0.6713 -1.3259 -0.3715
10112TIP3   OH251826   5.271   0.717   2.224 -0.2989  0.1557 -0.0787
10112TIP3    H151827   5.215   0.678   2.292 -1.0749  2.7194  0.8838
10112TIP3    H251828   5.345   0.753   2.273  1.6489 -2.0692 -1.2054
10113TIP3   OH251829   1.019   5.216   0.249 -0.0008 -0.1897 -0.1123
10113TIP3    H151830   1.016   5.308   0.274  0.7035 -0.7068  2.0351
10113TIP3    H251831   0.951   5.207   0.182 -2.0360  1.3339  1.6058
10114TIP3   OH251832   5.395   1.771  14.505  0.0093  0.3870 -0.0066
10114TIP3    H151833   5.454   1.845  14.494 -1.4542  1.3671 -1.5937
10114TIP3    H251834   5.425   1.729  14.586  1.7736  1.8327  0.1509
10115TIP3   OH251835   2.536   4.550   1.011  0.5364  0.1951  0.1770
10115TIP3    H151836   2.502   4.461   1.006  1.2588 -0.0717 -0.0681
10115TIP3    H251837   2.552   4.575   0.919 -1.3906  1.2713  0.0697
10116TIP3   OH251838   5.137   6.110   3.107 -0.4282  0.6939  0.0150
10116TIP3    H151839   5.175   6.178   3.051  1.2936 -0.0972  0.1421
10116TIP3    H251840   5.142   6.031   3.054 -0.7880  0.3497  0.4963
10117TIP3   OH251841   5.208   4.372   5.786 -0.0062  0.3682  0.5114
10117TIP3    H151842   5.244   4.445   5.735  2.1634  0.6427  2.2853
10117TIP3    H251843   5.284   4.333   5.829 -1.1088 -2.8741 -0.1892
10118TIP3   OH251844   4.214   5.666  12.407 -0.1404 -0.1672  0.0055
10118TIP3    H151845   4.166   5.726  12.463  1.0539  0.5033  0.3322
10118TIP3    H251846   4.272   5.722  12.355  0.6827 -0.9949  0.0095
10119TIP3   OH251847   1.556   0.490  16.350  0.2058  0.9129  0.3232
10119TIP3    H151848   1.512   0.457  16.271  0.8801 -1.8471  1.0119
10119TIP3    H251849   1.488   0.492  16.417  0.5795 -1.4437  0.8646
10120TIP3   OH251850   6.357   4.246  16.952  0.1513 -0.3248 -0.0057
10120TIP3    H151851   6.300   4.243  17.029  0.2607  1.0491  0.1662
10120TIP3    H251852   6.299   4.274  16.881  0.2878 -0.4826 -0.1810
10121TIP3   OH251853   1.795   0.735  13.880 -0.3336 -0.1006  0.2473
10121TIP3    H151854   1.888   0.753  13.898 -0.3024 -0.2079  0.1936
10121TIP3    H251855   1.767   0.679  13.952 -0.3263 -0.1612  0.2034
10122TIP3   OH251856   4.340   0.999   5.627  0.5892 -0.3934  0.3624
10122TIP3    H151857   4.353   1.082   5.581  0.8468 -0.6409 -0.0252
10122TIP3    H251858   4.353   0.932   5.559 -0.0281 -0.7373  0.5762
10123TIP3   OH251859   4.450   5.689   5.946  0.0270  0.1712  0.4443
10123TIP3    H151860   4.369   5.638   5.933  0.1484 -0.0642  0.5916
10123TIP3    H251861   4.466   5.731   5.862 -0.8225  1.0560  0.7119
10124TIP3   OH251862   0.019   2.225   5.729 -0.5666 -0.4919  0.0205
10124TIP3    H151863   0.062   2.150   5.688 -0.1660  0.6225 -1.6875
10124TIP3    H251864  -0.038   2.186   5.796  1.2452 -2.1500  0.6941
10125TIP3   OH251865   1.034   0.721   0.554 -0.5970  0.1908  0.4128
10125TIP3    H151866   1.127   0.702   0.540 -0.6836 -0.2822  0.4468
10125TIP3    H251867   1.030   0.760   0.642 -0.4462  0.0809  0.4690
10126TIP3   OH251868   3.083   0.724   3.730 -0.2149  0.1337 -0.0739
10126TIP3    H151869   3.007   0.668   3.744  0.9393 -1.7867 -1.1662
10126TIP3    H251870   3.098   0.722   3.636  1.9466 -0.6101  0.2313
10127TIP3   OH251871   4.417   0.766  14.852  0.4047  0.4098 -0.0473
10127TIP3    H151872   4.440   0.806  14.769 -0.0108 -0.7438 -0.7354
10127TIP3    H251873   4.363   0.691  14.829 -0.3414  0.4927  1.2979
10128TIP3   OH251874   1.188   4.145  12.811 -1.1684  0.5006  0.0839
10128TIP3    H151875   1.243   4.130  12.888  1.3310 -0.8094 -1.8067
10128TIP3    H251876   1.176   4.240  12.808  0.3142  0.7481  1.0436
10129TIP3   OH251877   2.279   0.752  13.882  0.8204 -0.5855 -0.1191
10129TIP3    H151878   2.244   0.699  13.809  1.9422 -0.8116 -0.5112
10129TIP3    H251879   2.280   0.692  13.956 -1.9085  0.0982  0.5839
10130TIP3   OH251880   2.855   6.722  13.905  0.1657 -0.2109  0.2295
10130TIP3    H151881   2.864   6.627  13.902  0.0864 -0.1869 -1.7538
10130TIP3    H251882   2.890   6.752  13.821  1.1008  1.6057  1.2120
10131TIP3   OH251883   2.199   5.354  14.110  0.1439  0.5601 -0.3083
10131TIP3    H151884   2.150   5.433  14.133 -1.8427 -0.8842  0.6275
10131TIP3    H251885   2.163   5.326  14.026  0.6643  0.4777 -0.5135
10132TIP3   OH251886   2.863   1.505  11.339  0.6225 -0.6936 -0.1270
10132TIP3    H151887   2.898   1.546  11.261  1.0753 -0.1890  0.3357
10132TIP3    H251888   2.784   1.460  11.309 -0.1258  0.8622 -0.5746
10133TIP3   OH251889   4.695   1.891   1.228 -0.0751 -0.0350  0.4980
10133TIP3    H151890   4.623   1.950   1.205  1.1816  1.0173 -1.0021
10133TIP3    H251891   4.730   1.928   1.310  0.8585  1.5358 -0.5532
10134TIP3   OH251892   6.294   1.116  16.769  0.0749  0.1453  0.0159
10134TIP3    H151893   6.220   1.150  16.718 -0.3011 -1.5224 -0.6244
10134TIP3    H251894   6.340   1.059  16.708  1.9236  1.1597  0.4132
10135TIP3   OH251895   6.366   3.380   2.773  0.0541  0.1442  0.1529
10135TIP3    H151896   6.423   3.304   2.786  0.6846 -0.0475 -2.8610
10135TIP3    H251897   6.421   3.456   2.794  1.3800 -0.0657 -2.1375
10136TIP3   OH251898   5.021   1.691   1.850 -0.0624 -0.3458  0.5749
10136TIP3    H151899   5.046   1.681   1.759  0.7534 -0.0993  0.7634
10136TIP3    H251900   4.993   1.782   1.859 -0.5090 -0.4732  0.4870
10137TIP3   OH251901   2.112   3.535   0.838  0.2560  0.7881 -0.3824
10137TIP3    H151902   2.165   3.596   0.786 -1.1933  2.8301  0.4093
10137TIP3    H251903   2.171   3.462   0.856  1.8858  1.6259 -1.9151
10138TIP3   OH251904   5.625   6.681   4.920  0.3360 -0.1368  0.4169
10138TIP3    H151905   5.703   6.683   4.866  1.5211 -1.7547  1.9285
10138TIP3    H251906   5.577   6.760   4.898  3.2133  1.7761  0.5932
10139TIP3   OH251907   1.060   3.804   4.133 -0.0233  0.3128  0.2535
10139TIP3    H151908   0.987   3.765   4.085 -0.5207  1.0820  0.3770
10139TIP3    H251909   1.080   3.885   4.085  0.6116  0.2164  0.3425
10140TIP3   OH251910   5.433   2.791  14.076 -0.0576  0.0034  0.0541
10140TIP3    H151911   5.482   2.710  14.092 -0.5752 -0.4087 -0.4407
10140TIP3    H251912   5.373   2.798  14.150 -0.1433 -0.1624 -0.0005
10141TIP3   OH251913   3.519   1.213   1.917  0.5156  0.1785 -0.1780
10141TIP3    H151914   3.505   1.305   1.895 -3.9969 -0.5870 -1.6561
10141TIP3    H251915   3.484   1.204   2.006  2.5901  0.1122  0.6823
10142TIP3   OH251916   1.226   4.281   5.171  0.5251 -0.0568  0.0114
10142TIP3    H151917   1.190   4.365   5.142  0.8121  0.7153  1.7600
10142TIP3    H251918   1.198   4.218   5.104 -3.5255  0.5948  0.8503
10143TIP3   OH251919   4.960   0.174   5.111 -0.3917 -0.1222  0.1122
10143TIP3    H151920   5.013   0.165   5.190  1.0302  1.6357 -0.5696
10143TIP3    H251921   5.017   0.143   5.041 -1.7844 -2.0410 -0.2396
10144TIP3   OH251922   3.885   0.193  11.921  0.2899 -0.4673 -0.9332
10144TIP3    H151923   3.856   0.105  11.947  0.9725 -0.3400  0.3459
10144TIP3    H251924   3.980   0.186  11.919  0.3456  0.2304 -0.8535
10145TIP3   OH251925   0.881   2.665   0.500  0.1233  0.6168 -0.3065
10145TIP3    H151926   0.788   2.652   0.482 -0.0982  0.4832  0.8571
10145TIP3    H251927   0.902   2.750   0.461 -0.3416  0.4095 -1.0385
10146TIP3   OH251928   2.646   2.447  15.806 -0.6792  0.3099 -0.6327
10146TIP3    H151929   2.668   2.524  15.857  0.1782  0.9394 -1.9030
10146TIP3    H251930   2.715   2.441  15.740 -0.3209 -1.9511 -0.1369
10147TIP3   OH251931   3.914   4.157   2.623 -0.1277 -0.0504  0.1254
10147TIP3    H151932   3.904   4.163   2.718 -2.4338 -0.6570 -0.0190
10147TIP3    H251933   3.947   4.243   2.597  2.8899 -0.5822  1.6304
10148TIP3   OH251934   2.864   0.429   2.575 -0.2197  0.4831  0.2887
10148TIP3    H151935   2.959   0.430   2.564 -0.2708  0.2026 -0.2014
10148TIP3    H251936   2.837   0.520   2.561  0.1684  0.9411  2.2662
10149TIP3   OH251937   1.910   3.721  14.411  0.5387  0.1098  0.4536
10149TIP3    H151938   1.996   3.692  14.379  0.0041  0.6696 -1.6026
10149TIP3    H251939   1.851   3.648  14.392  0.2455  0.3730  0.3434
10150TIP3   OH251940   0.128   3.752   6.684  0.3798  0.5534  0.4762
10150TIP3    H151941   0.064   3.796   6.739 -0.6077  0.6410 -0.7122
10150TIP3    H251942   0.082   3.674   6.651  0.8859  0.6047 -0.3758
10151TIP3   OH251943   5.709   0.653   3.638  0.5127 -0.7395 -0.3888
10151TIP3    H151944   5.786   0.711   3.644 -0.1070  0.0593  0.0347
10151TIP3    H251945   5.687   0.653   3.545 -0.8542  1.5912 -0.1445
10152TIP3   OH251946   2.200   3.303  15.205  0.3122  0.0089  0.3053
10152TIP3    H151947   2.290   3.303  15.238  0.4185  0.1469  0.0137
10152TIP3    H251948   2.146   3.318  15.283  0.5290 -0.2615  0.5108
10153TIP3   OH251949   3.463   1.274   5.819  0.0063 -0.4177  0.3820
10153TIP3    H151950   3.414   1.212   5.872 -0.0954 -1.1646 -0.5494
10153TIP3    H251951   3.536   1.301   5.875  0.3245 -1.7535  0.6580
10154TIP3   OH251952   3.450   5.544   6.383 -0.3731  0.0398  0.5156
10154TIP3    H151953   3.496   5.625   6.407 -0.3701 -0.0856  0.9468
10154TIP3    H251954   3.363   5.573   6.356  0.6906  0.5831 -2.8700
10155TIP3   OH251955   3.508   2.312   0.060 -0.5508 -0.0374 -0.4782
10155TIP3    H151956   3.558   2.393   0.065  0.1796 -0.4646 -0.7299
10155TIP3    H251957   3.468   2.314  -0.027 -1.1227  0.3885 -0.2090
10156TIP3   OH251958   0.591   3.297   5.484 -0.4963 -0.4123 -0.1838
10156TIP3    H151959   0.622   3.369   5.429  0.3559 -1.1912 -0.7619
10156TIP3    H251960   0.616   3.218   5.435 -0.1139 -1.1194  1.1220
10157TIP3   OH251961   0.288   2.337  15.761 -0.2763 -0.7931 -0.1527
10157TIP3    H151962   0.337   2.295  15.832  0.3155 -1.0102 -0.6794
10157TIP3    H251963   0.196   2.321  15.783 -0.1676  0.5663  1.4282
10158TIP3   OH251964   2.248   1.350  13.731 -0.0874 -0.4944 -0.1147
10158TIP3    H151965   2.254   1.261  13.767 -1.3798 -0.2644  0.7168
10158TIP3    H251966   2.236   1.336  13.637  1.8568 -1.1304 -0.3205
10159TIP3   OH251967   3.678   0.808  16.111  0.3111 -0.1183  0.3456
10159TIP3    H151968   3.732   0.880  16.145 -0.4700  1.0074 -0.6969
10159TIP3    H251969   3.719   0.784  16.029 -0.4660  0.4149 -0.2147
10160TIP3   OH251970   5.154   1.809  10.549  0.3365  0.3937 -0.5024
10160TIP3    H151971   5.116   1.890  10.515 -1.3521 -0.3294 -0.4354
10160TIP3    H251972   5.196   1.769  10.474 -0.8161  0.2358 -1.0805
10161TIP3   OH251973   2.850   6.794   1.849 -0.1355  0.2481  0.1442
10161TIP3    H151974   2.918   6.754   1.795 -0.7997  1.9187 -2.0922
10161TIP3    H251975   2.879   6.779   1.939  1.3809 -2.0732 -0.6385
10162TIP3   OH251976   3.105   4.751   5.696 -1.1818  0.1681 -0.0987
10162TIP3    H151977   3.183   4.747   5.750 -1.7527  0.5800  0.7873
10162TIP3    H251978   3.113   4.677   5.635  0.8471  1.3651 -1.3931
10163TIP3   OH251979   0.385   4.544  16.495 -0.0549  0.4648  0.4435
10163TIP3    H151980   0.334   4.602  16.551 -1.0393  0.3995 -0.3608
10163TIP3    H251981   0.373   4.457  16.532 -0.8930  0.3879  0.0044
10164TIP3   OH251982   3.100   4.185   2.281  0.3942 -0.4103  0.3777
10164TIP3    H151983   3.173   4.247   2.278 -0.6439  1.0080  2.1107
10164TIP3    H251984   3.022   4.240   2.276 -0.5722 -1.7673 -0.0199
10165TIP3   OH251985   3.639   3.471  14.398 -0.0161  0.6143 -0.2332
10165TIP3    H151986   3.583   3.396  14.377  2.0036 -1.2716  0.7261
10165TIP3    H251987   3.578   3.543  14.409 -1.9963 -0.6634 -2.0175
10166TIP3   OH251988   0.361   5.542   1.047 -0.0049  0.2054  0.0758
10166TIP3    H151989   0.350   5.519   0.955 -2.1679  3.2605 -0.5824
10166TIP3    H251990   0.454   5.564   1.055  0.2697 -0.3240 -1.3157
10167TIP3   OH251991   6.789   5.091   0.067 -0.3070  0.2801  0.0991
10167TIP3    H151992   6.860   5.152   0.044 -0.7452  1.5915  1.9426
10167TIP3    H251993   6.833   5.022   0.118 -0.0194 -0.1949 -0.7807
10168TIP3   OH251994   3.082   5.647   5.553  0.1826  0.4118 -0.3701
10168TIP3    H151995   3.136   5.585   5.505  0.9937  1.0940 -0.3586
10168TIP3    H251996   2.998   5.602   5.564  0.6438 -0.5439 -0.6489
10169TIP3   OH251997   4.364   1.319   3.565 -1.1679  0.0627 -0.3787
10169TIP3    H151998   4.401   1.233   3.583 -1.5947 -0.3972 -1.6009
10169TIP3    H251999   4.389   1.372   3.641  0.9072 -0.5462 -0.5888
10170TIP3   OH252000   0.450   5.345  12.256 -0.3170 -0.0983  0.2450
10170TIP3    H152001   0.420   5.374  12.170  0.7551 -0.5487 -0.3057
10170TIP3    H252002   0.451   5.424  12.309  0.1481  0.4214 -0.5112
10171TIP3   OH252003   0.126   0.806   3.487  0.0756  0.1494 -0.3044
10171TIP3    H152004   0.158   0.878   3.432 -0.7078  0.7331 -0.0175
10171TIP3    H252005   0.126   0.730   3.429  1.0297  0.3403 -0.5790
10172TIP3   OH252006   2.519   1.025  11.796 -0.1045  0.3472  0.1345
10172TIP3    H152007   2.546   0.958  11.734 -1.8178  1.2706 -1.7263
10172TIP3    H252008   2.600   1.069  11.822  0.6241  0.1626 -1.7373
10173TIP3   OH252009   2.813   5.403   3.441  0.0710 -0.0715 -0.3494
10173TIP3    H152010   2.802   5.327   3.384  0.6731 -0.0803 -0.4554
10173TIP3    H252011   2.806   5.479   3.382  1.5811 -0.0991 -0.5970
10174TIP3   OH252012   2.489   6.682  10.759 -0.4371  0.4403 -0.1760
10174TIP3    H152013   2.397   6.659  10.774 -0.4732  0.8026  0.1678
10174TIP3    H252014   2.518   6.720  10.842  0.1280 -0.0047 -0.1686
10175TIP3   OH252015   4.927   2.410  15.496 -0.1056  0.5426  0.1498
10175TIP3    H152016   4.970   2.490  15.466  1.4987  0.0072  0.9267
10175TIP3    H252017   4.967   2.340  15.444  0.1837  0.0010  1.0708
10176TIP3   OH252018   3.647   4.160  15.057 -0.6628 -0.1223 -0.3409
10176TIP3    H152019   3.737   4.145  15.085 -0.1819 -0.3093 -1.8729
10176TIP3    H252020   3.593   4.122  15.126  0.4237  0.1492  0.6843
10177TIP3   OH252021   3.584   6.528  11.440 -0.6155 -0.3852  0.3292
10177TIP3    H152022   3.661   6.493  11.485 -0.8528 -0.6836  0.4990
10177TIP3    H252023   3.615   6.544  11.350 -0.7486 -1.8817 -0.0034
10178TIP3   OH252024   1.286   6.663   3.362 -0.0730  0.0811 -0.4674
10178TIP3    H152025   1.218   6.651   3.296  0.1251  0.7218 -0.7970
10178TIP3    H252026   1.366   6.633   3.320 -0.1634 -0.7973 -0.0328
10179TIP3   OH252027   5.101   2.069  12.750 -0.0598 -0.1264 -0.0973
10179TIP3    H152028   5.148   2.061  12.667  0.0907  1.0749 -0.1582
10179TIP3    H252029   5.132   1.996  12.803 -0.8639 -1.4552 -1.4158
10180TIP3   OH252030   2.648   4.278  10.924 -0.1661  0.0168 -0.0882
10180TIP3    H152031   2.740   4.250  10.923  0.1180  0.7689  1.4792
10180TIP3    H252032   2.598   4.200  10.901  0.8338 -0.5706 -0.3044
10181TIP3   OH252033   0.248   6.159  15.792  0.0055 -0.2357  0.2417
10181TIP3    H152034   0.218   6.166  15.702  0.0981 -0.3706  0.1996
10181TIP3    H252035   0.168   6.159  15.844 -0.0168  1.1762  0.2621
10182TIP3   OH252036   5.307   4.027   4.522  0.4866  0.2483  0.6500
10182TIP3    H152037   5.288   3.937   4.496 -1.5797  1.2174 -1.5259
10182TIP3    H252038   5.235   4.051   4.580  1.2255  0.4354  1.5253
10183TIP3   OH252039   4.338   0.224  12.878 -0.3108  0.1280 -0.1951
10183TIP3    H152040   4.267   0.236  12.814 -1.7161 -1.1775  1.0546
10183TIP3    H252041   4.313   0.278  12.952 -0.6454 -1.2389  0.7254
10184TIP3   OH252042   5.858   5.908  15.156 -0.2601  0.6527  0.1398
10184TIP3    H152043   5.913   5.945  15.225  1.2769  0.3009 -0.8498
10184TIP3    H252044   5.870   5.813  15.164 -1.7796  0.4714  0.7238
10185TIP3   OH252045   3.140   0.614   5.553  0.6938  0.1372 -0.4144
10185TIP3    H152046   3.112   0.528   5.585  1.5870  0.1854  0.5455
10185TIP3    H252047   3.180   0.596   5.467 -1.1392 -0.0818 -1.2584
10186TIP3   OH252048   5.225   6.581   0.659 -0.7923  0.3505 -0.3516
10186TIP3    H152049   5.256   6.564   0.570  1.0601  1.3012  0.0677
10186TIP3    H252050   5.300   6.619   0.704 -2.1484  1.3754  1.1795
10187TIP3   OH252051   2.856   2.600   4.807 -0.0517 -0.4501  0.1107
10187TIP3    H152052   2.930   2.540   4.803  0.3288 -0.2680  2.6960
10187TIP3    H252053   2.894   2.681   4.841 -1.3457 -0.2075  1.0280
10188TIP3   OH252054   4.469   4.645  13.283 -0.1464  0.1578  0.4116
10188TIP3    H152055   4.483   4.635  13.189  0.4791  0.3074  0.4817
10188TIP3    H252056   4.480   4.556  13.318 -0.0424  0.1572  0.3798
10189TIP3   OH252057   0.401   0.931  13.106 -0.3083 -0.1845 -0.4153
10189TIP3    H152058   0.438   0.869  13.170  0.4005  0.9841  0.3341
10189TIP3    H252059   0.342   0.986  13.158 -1.1886 -0.4134 -1.1410
10190TIP3   OH252060   4.823   1.176  11.751 -0.2351 -0.1699  0.1013
10190TIP3    H152061   4.852   1.167  11.661  1.3473 -2.2167  0.7352
10190TIP3    H252062   4.898   1.214  11.797 -0.4059 -0.7098  0.8516
10191TIP3   OH252063   6.277   5.163  16.877  0.3639 -0.2459 -0.1384
10191TIP3    H152064   6.372   5.155  16.886  0.7754  0.1630 -3.2231
10191TIP3    H252065   6.263   5.244  16.828 -1.4940 -1.0273 -1.0105
10192TIP3   OH252066   4.760   2.937  15.508  0.1078  0.1904 -0.2184
10192TIP3    H152067   4.723   2.989  15.580 -1.4874  2.1990 -2.3411
10192TIP3    H252068   4.683   2.899  15.465  0.9039  0.1847 -1.6746
10193TIP3   OH252069   3.228   3.793  10.800  0.6336 -0.0168 -0.5950
10193TIP3    H152070   3.137   3.772  10.778 -0.3941  2.7136  0.5772
10193TIP3    H252071   3.235   3.887  10.784  2.0082  0.7074  3.1740
10194TIP3   OH252072   3.000   6.163   5.712  0.0842 -0.5668  0.3752
10194TIP3    H152073   3.007   6.237   5.773 -0.1312 -0.7776  0.6592
10194TIP3    H252074   3.084   6.117   5.720  0.6903  0.3130 -0.6806
10195TIP3   OH252075   1.617   5.591   4.695  0.1338 -0.2690 -0.0617
10195TIP3    H152076   1.599   5.646   4.771 -1.4752 -0.7205 -0.0911
10195TIP3    H252077   1.568   5.633   4.624 -2.1043 -2.3261  0.1647
10196TIP3   OH252078   1.796   0.300  12.083  0.1064  0.9696 -0.2048
10196TIP3    H152079   1.702   0.301  12.070  0.1231 -0.0725 -0.4757
10196TIP3    H252080   1.814   0.219  12.131  0.9373  0.7580 -0.8378
10197TIP3   OH252081   5.250   5.165   1.383 -0.3035 -0.1816 -0.2521
10197TIP3    H152082   5.184   5.190   1.319 -0.9899  0.5325  0.7053
10197TIP3    H252083   5.323   5.225   1.367 -0.7488  0.4580  0.0750
10198TIP3   OH252084   0.774   5.943   4.116 -0.2698  0.1306 -0.6919
10198TIP3    H152085   0.692   5.901   4.090 -1.4231  1.3965  0.7303
10198TIP3    H252086   0.842   5.883   4.084 -1.7315 -1.1322 -1.6054
10199TIP3   OH252087   1.780   4.937   0.670  0.0087 -0.5766 -0.6931
10199TIP3    H152088   1.734   4.981   0.741 -1.3802 -1.9012 -0.7150
10199TIP3    H252089   1.858   4.901   0.711  0.7556  1.1532 -0.5090
10200TIP3   OH252090   0.048   3.251   3.200  0.8260 -0.3430 -0.3086
10200TIP3    H152091  -0.022   3.313   3.178  0.4471 -0.6628 -0.0178
10200TIP3    H252092   0.045   3.186   3.130  0.5435 -0.5966 -0.0602
10201TIP3   OH252093   6.249   3.326   1.548  0.0263  0.5043 -0.4106
10201TIP3    H152094   6.264   3.254   1.487  2.0791  1.2953 -0.9207
10201TIP3    H252095   6.160   3.356   1.529 -0.0589 -0.4923 -1.6781
10202TIP3   OH252096   0.104   4.563   1.215  0.1830 -0.0391 -0.0681
10202TIP3    H152097   0.178   4.551   1.275  1.1216  1.4218 -0.8725
10202TIP3    H252098   0.142   4.554   1.128 -0.6834  0.2282 -0.4846
10203TIP3   OH252099   3.040   1.317  10.904  0.4588  0.2797 -0.5091
10203TIP3    H152100   2.977   1.314  10.832  1.3120  2.7905 -1.4538
10203TIP3    H252101   3.108   1.378  10.875  2.7494 -1.4150  0.9579
10204TIP3   OH252102   6.595   6.338  12.482  0.3126  0.1744 -0.1293
10204TIP3    H152103   6.503   6.313  12.482  0.5485 -0.7869  0.9024
10204TIP3    H252104   6.609   6.377  12.568  1.1486 -0.8761  0.2343
10205TIP3   OH252105   4.462   2.416   3.722 -0.2207  0.2457  0.0348
10205TIP3    H152106   4.521   2.478   3.679  1.3313 -0.9640  0.3049
10205TIP3    H252107   4.418   2.371   3.650  0.3852  0.0698 -0.2349
10206TIP3   OH252108   2.085   5.384  13.877  0.0007  0.1796 -0.0832
10206TIP3    H152109   1.992   5.371  13.860  0.6036 -1.4125 -2.9117
10206TIP3    H252110   2.114   5.445  13.809  1.2088 -0.2340  0.0278
10207TIP3   OH252111   3.637   4.386  11.228  0.1364 -0.2853  0.3822
10207TIP3    H152112   3.607   4.304  11.189  0.0632 -0.0350 -0.0938
10207TIP3    H252113   3.715   4.410  11.178  0.4418 -0.3188  0.8412
10208TIP3   OH252114   3.297   1.209  12.326 -0.1920 -0.0178 -0.6261
10208TIP3    H152115   3.209   1.222  12.363  0.3398 -1.7501  1.4727
10208TIP3    H252116   3.357   1.226  12.399  1.2283  0.7184 -1.9116
10209TIP3   OH252117   6.272   5.336   2.863  0.4944 -0.7520  0.2293
10209TIP3    H152118   6.179   5.344   2.882  0.2221  1.6605 -1.5121
10209TIP3    H252119   6.310   5.418   2.896  1.6624 -0.9242 -0.6258
10210TIP3   OH252120   6.066   0.321   0.917 -0.1443 -0.0492 -0.1353
10210TIP3    H152121   6.023   0.268   0.850 -1.9532 -0.2016  1.0786
10210TIP3    H252122   5.999   0.336   0.983  0.1127  4.0225 -0.5159
10211TIP3   OH252123   3.554   4.585  13.950  0.1622 -0.4438  0.5085
10211TIP3    H152124   3.534   4.564  14.042  1.8915  0.1554  1.0573
10211TIP3    H252125   3.485   4.542  13.900 -0.7972 -0.8188  2.0892
10212TIP3   OH252126   5.854   5.366   3.320 -0.0411 -0.1893  0.7070
10212TIP3    H152127   5.903   5.444   3.295 -1.7400  0.5835 -0.4441
10212TIP3    H252128   5.905   5.293   3.285  0.7959  0.5054  0.4575
10213TIP3   OH252129   0.763   2.077  11.499 -0.3294  0.0240 -0.1193
10213TIP3    H152130   0.794   1.992  11.466 -1.4604  0.3458 -2.1665
10213TIP3    H252131   0.693   2.054  11.559  1.7435 -0.5783  2.2477
10214TIP3   OH252132   0.281   0.301   2.595  0.1506 -0.8575 -0.4080
10214TIP3    H152133   0.376   0.298   2.587  0.3874  1.2820  0.7370
10214TIP3    H252134   0.257   0.388   2.562 -1.4200 -1.3763 -0.7313
10215TIP3   OH252135   2.682   3.844   0.446  0.3968  0.1685 -0.6216
10215TIP3    H152136   2.604   3.795   0.418  0.7729  0.1564 -1.6728
10215TIP3    H252137   2.651   3.933   0.460 -0.1807 -0.2195  0.7837
10216TIP3   OH252138   0.016   4.851  10.952  0.2354  0.3970  0.1709
10216TIP3    H152139  -0.069   4.847  10.908  0.2023  2.0719  0.0001
10216TIP3    H252140   0.074   4.798  10.898 -0.1943  1.0735 -0.9894
10217TIP3   OH252141   6.316   0.695  14.036  0.2287  0.1091 -0.6785
10217TIP3    H152142   6.313   0.729  14.125  0.8788 -0.4466 -0.4344
10217TIP3    H252143   6.250   0.626  14.034  0.8545 -0.5074 -0.3491
10218TIP3   OH252144   3.346   0.224   6.115  0.1434 -0.6048 -0.0554
10218TIP3    H152145   3.323   0.317   6.111 -0.0381 -0.5402  1.8371
10218TIP3    H252146   3.374   0.203   6.026 -0.7678  1.0053 -0.7754
10219TIP3   OH252147   4.400   1.834  14.690 -0.7468  0.6323 -0.4519
10219TIP3    H152148   4.369   1.917  14.655  0.4265  0.8212 -1.0773
10219TIP3    H252149   4.388   1.842  14.785  0.2505  1.9167 -0.4041
10220TIP3   OH252150   1.348   2.413   4.531  0.2306  0.8732 -0.2641
10220TIP3    H152151   1.372   2.505   4.525  0.3294  0.7944 -1.2517
10220TIP3    H252152   1.345   2.395   4.624  2.8160  1.2010 -0.0546
10221TIP3   OH252153   3.869   3.194   0.827 -0.2984 -0.4108 -0.0812
10221TIP3    H152154   3.819   3.183   0.746 -0.5503  0.3011 -0.0341
10221TIP3    H252155   3.817   3.150   0.894 -0.6365 -0.0810 -0.1194
10222TIP3   OH252156   1.138   3.140   4.776  0.2674 -0.7487  0.6114
10222TIP3    H152157   1.174   3.219   4.737 -2.3658  0.5224  0.5408
10222TIP3    H252158   1.150   3.073   4.709  1.0548 -0.0203 -0.0031
10223TIP3   OH252159   6.461   1.769  10.671 -0.3486 -0.5123  0.0063
10223TIP3    H152160   6.453   1.862  10.690 -0.2032 -0.6428  0.7485
10223TIP3    H252161   6.399   1.754  10.600 -0.1403  0.2079 -0.3376
10224TIP3   OH252162   1.358   2.935   2.687  0.5863 -0.3832 -0.4765
10224TIP3    H152163   1.286   2.912   2.745 -0.2982  0.6666 -1.1121
10224TIP3    H252164   1.373   3.028   2.702  0.6776 -0.2061 -1.5584
10225TIP3   OH252165   3.472   3.616  17.020 -0.2792  0.1776  0.2522
10225TIP3    H152166   3.423   3.570  16.952 -1.2048  1.8341 -0.2709
10225TIP3    H252167   3.562   3.619  16.986 -0.6903  0.8159 -0.8404
10226TIP3   OH252168   1.593   3.826  14.563 -0.3199 -0.3833  0.0197
10226TIP3    H152169   1.549   3.744  14.541  1.8020 -1.2538 -1.2757
10226TIP3    H252170   1.586   3.832  14.658 -1.8141 -1.2793 -0.0080
10227TIP3   OH252171   5.296   1.852   4.995 -0.2672 -0.3310 -0.1007
10227TIP3    H152172   5.277   1.763   4.964 -1.6702  0.1326 -0.6565
10227TIP3    H252173   5.249   1.858   5.078 -0.1745 -0.1162 -0.0661
10228TIP3   OH252174   6.387   5.336  15.773 -0.2832  0.0996  0.0838
10228TIP3    H152175   6.463   5.285  15.801 -0.1946  0.6722  0.9332
10228TIP3    H252176   6.420   5.391  15.702 -0.6490 -1.7768 -1.6183
10229TIP3   OH252177   0.237   3.823   1.031 -0.2016  0.2043  0.2889
10229TIP3    H152178   0.290   3.903   1.031 -1.5046  1.1462 -1.7957
10229TIP3    H252179   0.218   3.807   1.124 -0.4207  2.6810  0.7388
10230TIP3   OH252180   3.997   6.394   3.961 -0.2881  0.0817  0.3963
10230TIP3    H152181   4.082   6.438   3.964 -0.7036  0.8848  0.7510
10230TIP3    H252182   3.934   6.464   3.975 -1.1742 -0.0689 -2.4255
10231TIP3   OH252183   5.950   5.383   6.445  0.1135  0.2443  0.1421
10231TIP3    H152184   5.976   5.418   6.530  0.3271  0.7581 -0.1348
10231TIP3    H252185   5.860   5.352   6.459  0.2595  0.0169  0.6413
10232TIP3   OH252186   6.027   2.813   1.767 -0.2651 -0.3870  0.1532
10232TIP3    H152187   6.035   2.722   1.797  0.3678 -0.5301 -0.4349
10232TIP3    H252188   6.084   2.863   1.827  0.9430 -0.6636 -0.7303
10233TIP3   OH252189   3.532   2.032   1.672  0.0668  0.0111  0.2193
10233TIP3    H152190   3.591   2.105   1.693 -0.6357  0.3288  1.1754
10233TIP3    H252191   3.590   1.962   1.642  0.8372  0.6481  0.1820
10234TIP3   OH252192   0.979   3.305   1.861 -0.4185  0.1466 -0.6227
10234TIP3    H152193   1.065   3.309   1.902 -0.3325 -0.8044 -0.6958
10234TIP3    H252194   0.955   3.397   1.847  2.0007  0.5091 -3.5950
10235TIP3   OH252195   4.926   3.799  11.609  0.4809 -0.2702  0.5562
10235TIP3    H152196   4.902   3.707  11.606  2.2183 -0.7270 -0.7166
10235TIP3    H252197   4.843   3.845  11.627 -0.7186 -1.9454 -0.4133
10236TIP3   OH252198   0.881   1.780   0.962  0.2453 -0.3239  0.2529
10236TIP3    H152199   0.898   1.849   0.898 -0.2308 -1.0147 -0.6503
10236TIP3    H252200   0.789   1.757   0.950  0.6763 -1.9194 -0.3199
10237TIP3   OH252201   0.726   1.040  16.499  0.6562 -0.0807  0.3557
10237TIP3    H152202   0.683   1.084  16.573  1.9529  1.8573  0.0439
10237TIP3    H252203   0.702   1.093  16.423  0.5679 -1.1803 -0.3975
10238TIP3   OH252204   5.885   5.509   1.863 -0.1301 -0.1799 -0.1876
10238TIP3    H152205   5.808   5.508   1.920 -0.1923  0.0596 -0.2659
10238TIP3    H252206   5.913   5.601   1.863 -1.1812  0.1885 -1.9620
10239TIP3   OH252207   1.861   0.168  16.698  0.0794 -0.0936  0.6684
10239TIP3    H152208   1.914   0.216  16.762  1.7392  0.3486 -0.9559
10239TIP3    H252209   1.838   0.233  16.632  0.5159 -1.0244 -0.4481
10240TIP3   OH252210   1.960   5.963   1.734  0.0525 -0.1864 -0.1806
10240TIP3    H152211   1.972   5.909   1.812  0.1840 -0.1374 -0.1656
10240TIP3    H252212   1.865   5.965   1.720  0.0818 -0.8499 -0.4880
10241TIP3   OH252213   0.527   0.817  11.385 -0.6749  0.1006  0.1870
10241TIP3    H152214   0.583   0.889  11.357 -0.8902 -0.5555 -2.1389
10241TIP3    H252215   0.463   0.807  11.314 -1.6462 -1.3447  1.2024
10242TIP3   OH252216   1.534   1.923  13.154  0.6469  0.6625 -0.5615
10242TIP3    H152217   1.467   1.905  13.220  2.2399  1.9280  1.5426
10242TIP3    H252218   1.569   1.838  13.130 -0.8112  0.0891 -0.7411
10243TIP3   OH252219   1.397   1.108  16.477 -0.5592  0.0346 -0.1471
10243TIP3    H152220   1.484   1.109  16.518 -0.6694  1.1444  0.0744
10243TIP3    H252221   1.402   1.175  16.409 -0.8677 -0.7337 -0.9509
10244TIP3   OH252222   6.168   0.149   2.356 -0.6600  0.3662 -0.6068
10244TIP3    H152223   6.119   0.220   2.315  0.4204  0.6495 -1.4412
10244TIP3    H252224   6.248   0.191   2.390 -1.3010  0.0657  1.4289
10245TIP3   OH252225   2.758   0.257   2.742  0.0008  0.0702  0.4074
10245TIP3    H152226   2.832   0.294   2.694 -0.7693  0.6238 -0.3905
10245TIP3    H252227   2.686   0.257   2.679 -0.8626  0.1574  1.3626
10246TIP3   OH252228   6.360   4.183   6.023 -0.6787 -0.0227 -0.1238
10246TIP3    H152229   6.375   4.267   6.067  1.3513  0.2966 -1.2879
10246TIP3    H252230   6.375   4.117   6.090 -2.1174  0.4944  0.7564
10247TIP3   OH252231   5.715   6.526  16.860 -0.2309 -0.1476 -0.3451
10247TIP3    H152232   5.730   6.438  16.894 -1.5941  0.1956  1.2586
10247TIP3    H252233   5.673   6.513  16.775  0.8551 -1.0324 -0.7535
10248TIP3   OH252234   3.348   6.275   2.943 -0.4658  0.0004  0.2176
10248TIP3    H152235   3.434   6.232   2.947 -0.1629  0.3640 -1.6708
10248TIP3    H252236   3.357   6.352   2.999 -0.4030 -1.2703  2.0763
10249TIP3   OH252237   6.582   5.367   3.704 -0.0058 -0.2746 -0.1459
10249TIP3    H152238   6.621   5.453   3.722 -0.6767 -0.1376  0.7133
10249TIP3    H252239   6.647   5.304   3.734  0.8885 -0.0943 -1.6286
10250TIP3   OH252240   1.838   4.739  11.809  0.4168 -0.0610  0.2630
10250TIP3    H152241   1.907   4.799  11.783 -0.4844  0.4738 -0.9823
10250TIP3    H252242   1.850   4.662  11.753 -0.6708  0.5086 -0.7896
10251TIP3   OH252243   0.220   5.329   5.162  0.3747  0.1884 -0.3187
10251TIP3    H152244   0.195   5.372   5.244 -1.9790 -0.4691 -0.6177
10251TIP3    H252245   0.222   5.400   5.098  0.2137  0.4043 -0.0867
10252TIP3   OH252246   3.626   2.623  14.473  0.5259 -0.2004 -0.0080
10252TIP3    H152247   3.618   2.711  14.436 -0.0166 -0.7764 -1.3366
10252TIP3    H252248   3.686   2.633  14.546  0.4693  1.2768 -0.1352
10253TIP3   OH252249   4.558   3.473  14.896  0.0078  0.6109  0.2931
10253TIP3    H152250   4.557   3.467  14.991  0.7425  0.0180  0.2692
10253TIP3    H252251   4.469   3.450  14.870  0.2148 -0.7920  0.7594
10254TIP3   OH252252   3.917   1.922  11.847 -0.2588 -0.2842 -0.1115
10254TIP3    H152253   3.898   1.853  11.784 -1.2961 -1.1787  1.1412
10254TIP3    H252254   3.993   1.890  11.896  1.0659  0.7721 -1.3914
10255TIP3   OH252255   0.897   4.494  15.314 -0.2612  0.7055 -0.2972
10255TIP3    H152256   0.888   4.529  15.403  1.6088  1.3153 -0.3226
10255TIP3    H252257   0.904   4.399  15.326 -1.9480  0.5774  0.0161
10256TIP3   OH252258   1.161   3.886   2.211  0.0722 -0.2793 -0.0658
10256TIP3    H152259   1.128   3.884   2.122  2.0557  1.8584 -0.9441
10256TIP3    H252260   1.093   3.845   2.263 -0.4732 -3.1312 -2.7331
10257TIP3   OH252261   0.048   3.663   3.013  0.0219 -0.2473  0.2055
10257TIP3    H152262   0.016   3.574   3.028  0.8352 -0.7090 -0.6467
10257TIP3    H252263   0.090   3.659   2.927  1.7860  0.4573  0.9783
10258TIP3   OH252264   1.565   3.595  11.295  0.2174  0.2022 -0.3894
10258TIP3    H152265   1.628   3.541  11.246  1.0528  1.4637 -0.7617
10258TIP3    H252266   1.596   3.685  11.283 -2.0536  0.9458 -1.1333
10259TIP3   OH252267   4.230   4.149  15.678 -0.4236 -0.0074 -0.7935
10259TIP3    H152268   4.242   4.223  15.617  0.2191 -0.6250 -1.4372
10259TIP3    H252269   4.141   4.159  15.710 -0.1492  1.3944 -0.4046
10260TIP3   OH252270   4.890   6.118   4.662  0.7440  0.2766 -0.1219
10260TIP3    H152271   4.980   6.087   4.660  0.1504 -1.5352 -0.4140
10260TIP3    H252272   4.838   6.045   4.627 -0.9149  0.9366  0.8347
10261TIP3   OH252273   3.473   3.187  13.001 -0.0154 -0.0834  0.0139
10261TIP3    H152274   3.480   3.102  12.957  2.6619 -0.5570  1.1104
10261TIP3    H252275   3.470   3.251  12.930  0.2465 -0.9997 -0.8500
10262TIP3   OH252276   6.525   0.813   2.253 -0.3524 -0.0591  0.1211
10262TIP3    H152277   6.438   0.834   2.219 -1.2673 -2.1348  0.9660
10262TIP3    H252278   6.560   0.749   2.191  0.2380  0.1683  0.2130
10263TIP3   OH252279   6.279   5.785  12.970  0.1576  0.2090  0.1063
10263TIP3    H152280   6.323   5.805  12.887 -1.1866  1.3308 -0.3866
10263TIP3    H252281   6.212   5.721  12.945  2.7474 -3.2056  1.2180
10264TIP3   OH252282   4.169   3.434   3.362 -0.8098  0.1706 -0.3291
10264TIP3    H152283   4.144   3.353   3.406  0.8327 -0.1305  0.1213
10264TIP3    H252284   4.127   3.503   3.412  0.1239 -0.2428  1.0702
10265TIP3   OH252285   2.357   0.639  15.398  0.1346  0.0015 -0.2189
10265TIP3    H152286   2.436   0.689  15.418  0.0687  0.6797 -1.5081
10265TIP3    H252287   2.292   0.706  15.375 -0.9729 -0.5102  1.2270
10266TIP3   OH252288   3.814   5.641  13.490 -0.1166 -0.3467 -0.0277
10266TIP3    H152289   3.858   5.600  13.416  3.3065 -1.5784  2.4704
10266TIP3    H252290   3.858   5.726  13.500 -1.4175  0.3637 -0.0839
10267TIP3   OH252291   6.050   5.861  12.107 -0.3862 -0.6055 -0.1821
10267TIP3    H152292   6.114   5.835  12.174 -1.6572  1.7798  2.1498
10267TIP3    H252293   6.097   5.851  12.024  1.4426 -3.2295  1.0205
10268TIP3   OH252294   2.944   6.621   4.797  0.2613  0.0363  0.3674
10268TIP3    H152295   2.991   6.545   4.831  2.0080  0.5585 -0.7418
10268TIP3    H252296   2.910   6.665   4.875 -0.6255 -1.7292  1.0432
10269TIP3   OH252297   3.462   4.696  15.812  0.9686 -0.1120 -0.5041
10269TIP3    H152298   3.450   4.601  15.814  0.0173 -0.0468 -1.7517
10269TIP3    H252299   3.556   4.709  15.820  1.1331 -1.1626 -0.6095
10270TIP3   OH252300   4.962   6.396  12.822  0.6381 -0.1934 -0.0974
10270TIP3    H152301   4.937   6.488  12.813  0.0243 -0.1513  1.5299
10270TIP3    H252302   4.879   6.351  12.838  0.6236 -1.4253 -3.1110
10271TIP3   OH252303   6.693   4.733   1.498  0.2151 -0.2609 -0.6201
10271TIP3    H152304   6.747   4.675   1.551 -0.1931  0.5674  0.7776
10271TIP3    H252305   6.639   4.675   1.445 -1.6222 -1.3059  2.1673
10272TIP3   OH252306   5.839   3.779  16.373 -0.1122 -0.1810  0.8525
10272TIP3    H152307   5.768   3.842  16.387 -1.6701 -0.9865 -2.4434
10272TIP3    H252308   5.813   3.702  16.424 -1.0624 -0.0894  0.5301
10273TIP3   OH252309   2.200   1.527   2.049  0.1355  0.7702 -0.5005
10273TIP3    H152310   2.290   1.552   2.028  0.4051  1.5012  1.3395
10273TIP3    H252311   2.157   1.610   2.071 -0.7599  0.3309 -0.5699
10274TIP3   OH252312   0.966   0.351   1.600  0.3721 -0.4272  0.5653
10274TIP3    H152313   0.882   0.359   1.554 -0.6557  1.7718  2.5963
10274TIP3    H252314   0.981   0.257   1.607 -1.1733 -0.8569 -1.0986
10275TIP3   OH252315   3.559   5.937  13.431 -0.5080  0.2488 -0.0455
10275TIP3    H152316   3.470   5.901  13.429  0.0884 -1.6227  2.4994
10275TIP3    H252317   3.551   6.018  13.482 -0.9384  0.8323 -1.0096
10276TIP3   OH252318   4.260   5.815   1.580 -0.6008 -0.1378 -0.2345
10276TIP3    H152319   4.336   5.861   1.544 -0.2402 -0.2714  0.3421
10276TIP3    H252320   4.248   5.740   1.522 -0.2503 -0.1533 -0.2920
10277TIP3   OH252321   6.439   0.970  11.377  0.2189  0.1624  0.4418
10277TIP3    H152322   6.429   0.914  11.300  1.2434  1.3346 -0.5705
10277TIP3    H252323   6.426   0.910  11.451  1.9654 -1.6006 -0.5615
10278TIP3   OH252324   5.700   4.237  16.382  0.0154 -0.1138  0.0647
10278TIP3    H152325   5.630   4.293  16.415 -1.3524 -0.6228 -1.7753
10278TIP3    H252326   5.678   4.150  16.415  1.3678  0.1502  1.7740
10279TIP3   OH252327   3.405   0.329   3.921 -0.7023  0.0308 -0.3951
10279TIP3    H152328   3.497   0.356   3.914 -0.3328 -1.3837 -1.3697
10279TIP3    H252329   3.362   0.374   3.849 -1.1368  1.9673  1.0103
10280TIP3   OH252330   4.615   4.570   6.582 -0.1956  0.4795 -0.1334
10280TIP3    H152331   4.634   4.631   6.510 -3.0723  1.1379 -0.4778
10280TIP3    H252332   4.577   4.494   6.538  0.5618 -0.3029  0.5373
10281TIP3   OH252333   3.344   5.432  16.377  0.1728  0.9770 -0.2258
10281TIP3    H152334   3.434   5.428  16.346  0.5075  1.1744  0.7106
10281TIP3    H252335   3.291   5.423  16.297  1.0144  1.8418 -0.9076
10282TIP3   OH252336   3.678   6.274   2.810  0.2015  0.4766 -0.3559
10282TIP3    H152337   3.635   6.207   2.863  0.7376  0.5387  0.1670
10282TIP3    H252338   3.770   6.268   2.834  0.3636  0.9094 -0.8483
10283TIP3   OH252339   2.168   3.267  13.631  0.0030 -0.1211  0.0968
10283TIP3    H152340   2.225   3.195  13.656  0.2401  0.0031 -0.0745
10283TIP3    H252341   2.082   3.244  13.666 -0.1047 -0.8632 -0.6086
10284TIP3   OH252342   1.951   1.359  16.679 -0.7516 -0.9605 -0.4002
10284TIP3    H152343   1.890   1.377  16.607 -0.8381  1.7592  0.2284
10284TIP3    H252344   1.909   1.291  16.730 -1.4101 -1.8659 -2.0596
10285TIP3   OH252345   2.867   1.736   4.123 -0.3770 -0.5662  0.0459
10285TIP3    H152346   2.826   1.769   4.203  0.7410 -1.0947  0.8663
10285TIP3    H252347   2.830   1.790   4.053 -0.5773  0.6235  1.0403
10286TIP3   OH252348   4.084   2.213  11.970 -0.1557  0.0917  0.5036
10286TIP3    H152349   4.039   2.294  11.993 -1.5510 -0.4800 -0.1302
10286TIP3    H252350   4.060   2.197  11.879 -1.8142 -2.2214  1.2606
10287TIP3   OH252351   4.642   1.286   4.397 -0.1356  0.0026 -0.1398
10287TIP3    H152352   4.549   1.278   4.415 -0.2853  1.8998  0.1121
10287TIP3    H252353   4.684   1.286   4.483 -0.1887  1.7739 -0.0659
10288TIP3   OH252354   2.859   6.308  14.163 -0.1647  0.1652  0.0388
10288TIP3    H152355   2.814   6.225  14.148  0.5287 -0.3658  0.7974
10288TIP3    H252356   2.867   6.314  14.259 -1.0702  1.5826  0.0480
10289TIP3   OH252357   1.015   1.057  14.408 -0.2015  0.3518 -0.2410
10289TIP3    H152358   1.040   1.146  14.434  0.9224 -0.0478  0.1039
10289TIP3    H252359   1.058   1.044  14.323  1.0564 -0.4433  0.4877
10290TIP3   OH252360   4.500   5.312   4.018 -0.0176 -0.1428 -0.2736
10290TIP3    H152361   4.451   5.236   4.050  0.7545 -0.7850 -0.5943
10290TIP3    H252362   4.506   5.298   3.923 -3.1324  2.2131 -0.9815
10291TIP3   OH252363   1.668   1.287   0.164 -0.9467  0.1332  0.3325
10291TIP3    H152364   1.707   1.268   0.078  1.3194 -0.4140  1.4038
10291TIP3    H252365   1.588   1.235   0.166 -1.2107  0.4034 -1.5519
10292TIP3   OH252366   5.335   6.518   5.969 -0.3142 -0.4993 -0.5386
10292TIP3    H152367   5.352   6.598   5.919 -0.2275 -0.9412 -1.2297
10292TIP3    H252368   5.365   6.539   6.058  0.3984 -0.0167 -0.8836
10293TIP3   OH252369   4.630   5.941  16.852 -0.8325  0.0622  0.2185
10293TIP3    H152370   4.651   5.941  16.946 -1.5832  1.9600  0.4229
10293TIP3    H252371   4.672   6.019  16.818 -1.8209  0.1945 -0.7267
10294TIP3   OH252372   5.417   6.502  12.007 -0.1933 -0.0158  0.0867
10294TIP3    H152373   5.507   6.475  11.989 -0.1485 -0.1323  0.4730
10294TIP3    H252374   5.370   6.420  12.021 -0.3957  0.0367 -0.2715
10295TIP3   OH252375   0.491   5.673   5.349 -0.2638 -0.5158 -0.4359
10295TIP3    H152376   0.528   5.611   5.286  1.7202  0.4048 -0.2573
10295TIP3    H252377   0.398   5.673   5.331 -0.0714 -2.1856 -1.6491
10296TIP3   OH252378   1.318   3.520  11.315 -0.2976 -0.0069  0.3967
10296TIP3    H152379   1.318   3.436  11.361 -0.2157 -0.4536 -0.3995
10296TIP3    H252380   1.409   3.548  11.315 -0.6235  1.2104  2.6422
10297TIP3   OH252381   0.158   3.746   4.840  0.1057 -0.1393  0.0210
10297TIP3    H152382   0.089   3.682   4.858 -0.9560  1.3975  1.8395
10297TIP3    H252383   0.112   3.830   4.837  1.6331  0.7055 -0.9135
10298TIP3   OH252384   5.234   6.800  13.905  0.3933  0.5353 -0.0087
10298TIP3    H152385   5.149   6.837  13.930 -0.5465  0.2480 -2.4184
10298TIP3    H252386   5.242   6.822  13.812  2.3906 -0.5539 -0.1387
10299TIP3   OH252387   1.136   2.798  16.913 -0.4025 -0.4796 -0.1781
10299TIP3    H152388   1.041   2.786  16.909 -0.4444 -0.2397  0.0692
10299TIP3    H252389   1.166   2.781  16.824 -0.4819 -2.1548  0.0764
10300TIP3   OH252390   3.181   2.683   4.706  0.8797 -0.3938  0.1624
10300TIP3    H152391   3.222   2.631   4.775 -0.9062 -1.3529  0.5576
10300TIP3    H252392   3.114   2.734   4.751 -0.1601 -0.8578 -0.8184
10301TIP3   OH252393   1.467   0.364  14.858 -0.1606 -0.2658  0.0253
10301TIP3    H152394   1.381   0.354  14.898  0.0980 -0.1542  0.6166
10301TIP3    H252395   1.450   0.359  14.763 -0.8648  0.1896  0.1237
10302TIP3   OH252396   4.087   3.876   2.750  0.1004  0.0085  0.9520
10302TIP3    H152397   4.081   3.936   2.676  0.4280  2.3044  2.6635
10302TIP3    H252398   4.167   3.826   2.735 -0.2597 -0.1408 -0.6001
10303TIP3   OH252399   3.911   2.469  12.033  0.2034  0.2700  0.4543
10303TIP3    H152400   3.975   2.485  12.102  0.4895  0.5106  0.1365
10303TIP3    H252401   3.904   2.553  11.986  1.2942 -0.3346 -0.8731
10304TIP3   OH252402   1.606   6.084  13.263  0.4177 -0.7962  0.0873
10304TIP3    H152403   1.664   6.156  13.238  0.0702 -0.5214  0.0643
10304TIP3    H252404   1.519   6.123  13.267  0.3270 -1.0560  0.7774
10305TIP3   OH252405   5.259   2.035   1.101  0.4175  0.1239 -0.1262
10305TIP3    H152406   5.348   2.015   1.073  0.9989 -1.4301  2.4808
10305TIP3    H252407   5.259   2.017   1.195 -1.8924  2.8380  0.5536
10306TIP3   OH252408   5.525   0.079   5.225 -0.3438  0.2939 -0.1414
10306TIP3    H152409   5.430   0.085   5.212 -0.2641  0.6761 -0.6109
10306TIP3    H252410   5.549   0.165   5.258 -0.1084  0.3384 -0.4213
10307TIP3   OH252411   5.082   2.883  14.595  0.2968 -0.5528  0.2376
10307TIP3    H152412   5.016   2.870  14.663  0.3671  0.9896  0.6480
10307TIP3    H252413   5.039   2.939  14.531  0.9248 -0.2152  0.1039
10308TIP3   OH252414   6.559   3.342  17.010 -0.3006 -0.4912 -0.6605
10308TIP3    H152415   6.471   3.340  16.970  0.2533 -1.6204 -1.9058
10308TIP3    H252416   6.597   3.258  16.986  1.4258  0.3033 -0.8313
10309TIP3   OH252417   1.340   1.918   3.795 -0.3402 -0.2378  0.5325
10309TIP3    H152418   1.259   1.919   3.845  0.1727 -1.0263  1.4096
10309TIP3    H252419   1.409   1.928   3.861  0.3616 -1.5663  0.0371
10310TIP3   OH252420   2.507   2.913  16.365  0.3411  0.2008 -0.0674
10310TIP3    H152421   2.538   2.950  16.447  0.9173  2.8461 -1.3747
10310TIP3    H252422   2.417   2.945  16.356  0.7942  1.2145 -1.1582
10311TIP3   OH252423   0.783   1.398   5.975  0.0585 -0.5869  0.4225
10311TIP3    H152424   0.835   1.318   5.981  0.0839 -0.7263 -1.2477
10311TIP3    H252425   0.699   1.375   6.016 -0.6100 -2.0983 -1.6410
10312TIP3   OH252426   0.787   2.220  12.148  0.2226 -0.0567  0.1140
10312TIP3    H152427   0.836   2.195  12.225  0.7690 -1.1597 -0.5669
10312TIP3    H252428   0.834   2.179  12.075 -1.0848 -0.2451 -0.6565
10313TIP3   OH252429   4.024   5.516  16.295  0.1941 -0.7178 -0.1917
10313TIP3    H152430   4.006   5.445  16.233 -1.0651 -1.2443  0.7616
10313TIP3    H252431   4.067   5.473  16.369 -0.3703 -0.4646  0.2891
10314TIP3   OH252432   1.374   6.375   4.052  0.0991  0.1153 -0.2222
10314TIP3    H152433   1.323   6.414   4.123 -1.1051  0.1944 -1.0920
10314TIP3    H252434   1.398   6.448   3.996  0.1062 -0.0683 -0.4633
10315TIP3   OH252435   5.543   4.174   1.957  0.2408 -0.7120 -0.0265
10315TIP3    H152436   5.466   4.127   1.989 -0.8610  0.5749 -0.7371
10315TIP3    H252437   5.581   4.213   2.036 -1.0748  0.4177  0.0897
10316TIP3   OH252438   6.585   2.506  14.987  0.1369 -0.4271 -0.1842
10316TIP3    H152439   6.653   2.555  14.941  2.5231 -1.5412  1.9537
10316TIP3    H252440   6.545   2.571  15.046  1.2500 -0.3391  0.5003
10317TIP3   OH252441   4.532   1.028  14.663  0.2358  0.1255  0.2291
10317TIP3    H152442   4.453   1.056  14.617  0.9553  0.0383 -1.1413
10317TIP3    H252443   4.550   1.098  14.726 -0.1898  0.7989 -0.3822
10318TIP3   OH252444   5.750   6.153   5.987  0.6622 -0.8031 -0.2816
10318TIP3    H152445   5.701   6.222   6.031 -0.2852 -1.7745  0.2335
10318TIP3    H252446   5.715   6.152   5.898  1.5155  0.1449 -0.6551
10319TIP3   OH252447   3.702   1.455   0.360  0.2538  0.5662  0.1084
10319TIP3    H152448   3.723   1.423   0.272 -1.2442  0.6446 -0.3124
10319TIP3    H252449   3.712   1.378   0.416 -1.7943 -0.3237 -0.6548
10320TIP3   OH252450   4.416   4.032  11.695 -0.2711 -0.0189 -0.1673
10320TIP3    H152451   4.371   4.022  11.611  1.0870 -2.2315 -0.6928
10320TIP3    H252452   4.456   3.947  11.712 -2.5377 -0.5297  4.0034
10321TIP3   OH252453   4.551   4.397   1.364  0.4035 -0.0772  0.0928
10321TIP3    H152454   4.582   4.344   1.438 -1.4205 -0.1862  0.8379
10321TIP3    H252455   4.507   4.471   1.405  2.0460  1.5365 -0.9366
10322TIP3   OH252456   2.580   2.702  16.843  0.1320 -0.2268 -0.7159
10322TIP3    H152457   2.570   2.683  16.936  0.1739  2.0060 -0.1831
10322TIP3    H252458   2.490   2.716  16.812  0.2231  1.2054 -0.4318
10323TIP3   OH252459   0.877   4.426  11.516 -0.6154  0.5380  0.6195
10323TIP3    H152460   0.948   4.399  11.458 -0.6196  1.9311 -0.0796
10323TIP3    H252461   0.921   4.456  11.596 -0.4602  0.8280  0.4244
10324TIP3   OH252462   2.686   1.303  11.250 -0.1395  0.1136  0.1957
10324TIP3    H152463   2.596   1.279  11.274  0.5332 -1.7894  0.9899
10324TIP3    H252464   2.682   1.319  11.156 -1.4479  0.7969  0.3404
10325TIP3   OH252465   1.907   0.991   4.104 -0.0025 -0.0997  0.7408
10325TIP3    H152466   1.872   0.909   4.069  0.8586 -1.0536  2.0186
10325TIP3    H252467   1.851   1.059   4.067 -0.1273 -1.1623 -1.1512
10326TIP3   OH252468   1.333   0.713   1.752  0.1517  0.2495  0.2470
10326TIP3    H152469   1.378   0.753   1.677 -1.4016 -0.3277 -1.0440
10326TIP3    H252470   1.243   0.744   1.745 -0.1717 -0.3540  1.5055
10327TIP3   OH252471   5.737   2.535   1.558  0.5021  0.1343 -0.6198
10327TIP3    H152472   5.741   2.445   1.589 -0.4550 -0.9639 -3.3650
10327TIP3    H252473   5.644   2.556   1.555  0.2269 -0.7220 -4.5933
10328TIP3   OH252474   3.046   6.631  13.169 -0.2934 -0.3022  0.1799
10328TIP3    H152475   3.062   6.659  13.079 -1.2143  0.0463  0.1162
10328TIP3    H252476   3.121   6.665  13.219  0.9368 -1.6581 -0.6646
10329TIP3   OH252477   2.413   1.390   0.395  0.2490  0.5113 -0.2824
10329TIP3    H152478   2.461   1.365   0.316 -1.3748  0.7069 -1.3661
10329TIP3    H252479   2.436   1.481   0.410  1.1164  0.2724 -0.0844
10330TIP3   OH252480   6.548   5.366   5.298  0.4614 -0.0521 -0.4468
10330TIP3    H152481   6.573   5.336   5.386 -0.8836 -1.8743 -0.6324
10330TIP3    H252482   6.518   5.456   5.311 -0.4298 -0.5303  1.1269
10331TIP3   OH252483   1.940   3.128  13.006 -0.2679 -0.4076 -0.1873
10331TIP3    H152484   1.941   3.071  12.929 -0.2766  0.3772 -0.7825
10331TIP3    H252485   1.881   3.199  12.982 -0.2836 -0.1578  0.5577
10332TIP3   OH252486   2.961   1.609  16.016 -0.5695  0.0239  0.0580
10332TIP3    H152487   2.977   1.701  16.037  1.1640 -0.2121 -0.0199
10332TIP3    H252488   2.996   1.561  16.092  3.0052 -0.7165 -1.8121
10333TIP3   OH252489   1.427   5.626   0.943  0.5954 -0.0035 -0.5410
10333TIP3    H152490   1.402   5.637   0.851 -2.2002  1.4751  0.2739
10333TIP3    H252491   1.473   5.707   0.966 -0.5688  0.5837 -0.1664
10334TIP3   OH252492   5.271   3.794  17.114 -0.8147  0.2454 -0.4824
10334TIP3    H152493   5.192   3.741  17.106 -1.0399 -0.0063  2.3635
10334TIP3    H252494   5.242   3.876  17.154  0.1954  0.6109 -0.4570
10335TIP3   OH252495   6.320   3.995   5.349  0.0964  0.4534 -0.2491
10335TIP3    H152496   6.310   4.070   5.290 -2.7561  0.7176  0.4206
10335TIP3    H252497   6.404   4.011   5.393  0.9312  1.7271 -2.1371
10336TIP3   OH252498   5.343   0.697  12.054 -0.7496  0.3786 -0.1185
10336TIP3    H152499   5.333   0.606  12.083 -2.5461  0.2572 -0.9907
10336TIP3    H252500   5.349   0.747  12.136  0.4988 -0.5063  0.3736
10337TIP3   OH252501   1.244   3.257   0.104 -0.3419 -0.1642  0.1045
10337TIP3    H152502   1.231   3.163   0.119 -0.3424 -0.2711 -0.5198
10337TIP3    H252503   1.305   3.284   0.172  0.0822 -0.7376 -0.0332
10338TIP3   OH252504   2.807   2.761  14.895 -0.2257 -0.5668 -0.2264
10338TIP3    H152505   2.821   2.682  14.947 -0.5827  0.1448  1.0090
10338TIP3    H252506   2.849   2.831  14.946 -1.9868  0.4196 -0.0206
10339TIP3   OH252507   0.997   0.233   5.750  0.2197  0.8846  0.1055
10339TIP3    H152508   1.092   0.238   5.765  0.4097 -4.1687  3.0202
10339TIP3    H252509   0.958   0.269   5.830 -0.1000 -0.4824  0.5847
10340TIP3   OH252510   3.524   0.534  15.205 -0.2204  0.1361  0.0326
10340TIP3    H152511   3.540   0.444  15.235 -0.1569  0.6105  1.5173
10340TIP3    H252512   3.587   0.587  15.253  0.3881  0.8895 -1.5499
10341TIP3   OH252513   4.782   4.394   1.933 -0.0025 -0.6087  0.0894
10341TIP3    H152514   4.730   4.357   2.004  0.7953  0.8912  1.5248
10341TIP3    H252515   4.870   4.401   1.968  0.2259  1.0408 -0.6900
10342TIP3   OH252516   0.395   2.221  10.825 -0.4566 -0.5673  0.0461
10342TIP3    H152517   0.365   2.238  10.735  0.4892 -0.2673 -0.2249
10342TIP3    H252518   0.315   2.206  10.874 -1.0154 -0.3496 -0.7734
10343TIP3   OH252519   6.843   3.476  15.770 -0.1977  0.1120  0.3014
10343TIP3    H152520   6.934   3.488  15.742 -0.2086 -0.5515 -0.0364
10343TIP3    H252521   6.845   3.399  15.826 -0.5908 -0.0498  0.0960
10344TIP3   OH252522   2.324   6.666   4.820 -0.0629 -0.2874  0.3928
10344TIP3    H152523   2.391   6.699   4.760  0.2428 -1.1509  0.2375
10344TIP3    H252524   2.282   6.744   4.854 -0.2792  0.2358 -0.9941
10345TIP3   OH252525   0.219   5.268  15.173  0.0136 -0.4021  0.3565
10345TIP3    H152526   0.159   5.194  15.173  0.7056 -0.9817  0.3807
10345TIP3    H252527   0.305   5.229  15.157  0.6064  0.2045  1.8411
10346TIP3   OH252528   6.398   2.793  10.811  0.5322 -0.2281  0.2831
10346TIP3    H152529   6.429   2.862  10.752  0.0381 -1.2361 -1.2099
10346TIP3    H252530   6.458   2.797  10.885  3.4610 -1.2115 -1.8541
10347TIP3   OH252531   3.363   2.690  15.657 -0.0389 -0.0450 -0.0368
10347TIP3    H152532   3.326   2.739  15.584  0.2740  1.4422  0.7642
10347TIP3    H252533   3.300   2.620  15.674 -1.1760  0.8686 -0.3753
10348TIP3   OH252534   3.111   3.478  16.246 -0.2712 -0.1774  0.0800
10348TIP3    H152535   3.174   3.527  16.299 -0.9234  0.6785  0.0904
10348TIP3    H252536   3.041   3.541  16.227 -0.1552 -0.5054 -1.6430
10349TIP3   OH252537   4.036   4.930  11.821 -0.3205  0.2174 -0.3407
10349TIP3    H152538   3.992   4.995  11.875  0.8200 -0.6233  1.7084
10349TIP3    H252539   3.968   4.866  11.799 -0.8040  0.5918  0.0456
10350TIP3   OH252540   2.870   5.256  15.263 -0.1371  0.0066 -0.5176
10350TIP3    H152541   2.808   5.276  15.332  0.0413  0.2485 -0.4240
10350TIP3    H252542   2.954   5.247  15.308  0.0724  0.6943 -0.7660
10351TIP3   OH252543   2.272   4.988  11.164  0.2208 -0.3847 -0.2218
10351TIP3    H152544   2.326   4.978  11.086  1.3818  1.8841  0.1772
10351TIP3    H252545   2.283   4.906  11.212  2.2969 -0.5078 -0.7958
10352TIP3   OH252546   4.609   1.612  15.209  0.1886 -0.0685  0.7044
10352TIP3    H152547   4.546   1.609  15.136  0.1685  0.4376  0.6989
10352TIP3    H252548   4.624   1.705  15.224  1.5455 -0.1848  0.1905
10353TIP3   OH252549   0.006   1.722   4.623 -0.2311 -0.1729  0.3559
10353TIP3    H152550   0.043   1.703   4.537 -0.3648 -1.6530  0.5948
10353TIP3    H252551   0.057   1.668   4.683 -2.1284 -1.5734  0.8019
10354TIP3   OH252552   6.281   2.653   3.202 -0.2798  0.5485  0.1333
10354TIP3    H152553   6.243   2.593   3.266  0.9335  1.1781  1.5127
10354TIP3    H252554   6.210   2.714   3.181 -0.7275  0.2768  0.8310
10355TIP3   OH252555   0.204   3.891   0.730 -0.5585 -0.0134  0.3098
10355TIP3    H152556   0.164   3.956   0.788 -0.8397 -0.9860  1.2368
10355TIP3    H252557   0.149   3.892   0.651 -0.7954  0.5866  0.4776
10356TIP3   OH252558   1.311   1.813   1.832  0.1405  0.0063 -0.1092
10356TIP3    H152559   1.231   1.761   1.836  0.1904 -0.0856 -0.2935
10356TIP3    H252560   1.380   1.752   1.859  0.4136 -0.4760 -1.8054
10357TIP3   OH252561   5.232   6.079  14.768  0.4768 -0.0423 -0.6255
10357TIP3    H152562   5.159   6.037  14.815  0.8423  0.6855  0.6457
10357TIP3    H252563   5.248   6.022  14.693 -0.5100 -0.9453 -0.1788
10358TIP3   OH252564   4.722   2.229  15.544 -0.1603  0.0527  0.0877
10358TIP3    H152565   4.781   2.302  15.526 -0.5216  0.2671 -0.2431
10358TIP3    H252566   4.644   2.248  15.492  1.1828 -2.5165 -3.2076
10359TIP3   OH252567   6.032   6.427   1.243  0.1968  0.9744  0.0928
10359TIP3    H152568   5.993   6.489   1.180 -0.4122 -1.1984 -1.8229
10359TIP3    H252569   5.972   6.352   1.241  1.3298 -0.0092  1.7197
10360TIP3   OH252570   1.853   5.352   1.759 -0.6056 -0.1607 -0.1227
10360TIP3    H152571   1.939   5.390   1.742 -1.9092  3.3883  0.2507
10360TIP3    H252572   1.846   5.350   1.854  0.1492 -3.5194 -0.0174
10361TIP3   OH252573   4.939   4.770  14.875  0.1897  0.5725  0.0038
10361TIP3    H152574   5.017   4.748  14.824  0.3138  0.2461  0.3271
10361TIP3    H252575   4.870   4.716  14.839  0.4378 -0.1818  0.6360
10362TIP3   OH252576   3.866   5.583  15.275  0.1574  0.7300 -0.2678
10362TIP3    H152577   3.833   5.662  15.317  0.5455  0.9021 -0.2796
10362TIP3    H252578   3.819   5.511  15.317  0.9432  0.8525  0.8764
10363TIP3   OH252579   6.626   6.128  11.651 -0.2942 -0.0530 -0.5805
10363TIP3    H152580   6.703   6.072  11.666  0.5542  1.2429  0.0220
10363TIP3    H252581   6.580   6.085  11.579  0.3631 -1.4894 -0.1908
10364TIP3   OH252582   6.785   0.669   4.038  0.0647 -0.0446  0.1609
10364TIP3    H152583   6.747   0.631   4.117 -0.9257  0.6801  0.0635
10364TIP3    H252584   6.709   0.686   3.982  0.8191 -1.5899 -1.4323
10365TIP3   OH252585   5.647   0.510   3.156  0.4342 -0.2339 -0.3032
10365TIP3    H152586   5.672   0.421   3.179 -0.4238 -0.1951  0.9101
10365TIP3    H252587   5.553   0.505   3.137  0.2605  0.4828  0.2924
10366TIP3   OH252588   6.557   2.233   5.535 -0.6270 -0.0451  0.3275
10366TIP3    H152589   6.520   2.320   5.529 -2.0392 -0.5416  1.4050
10366TIP3    H252590   6.494   2.183   5.587  0.5042 -1.5091  0.3630
10367TIP3   OH252591   1.494   2.672  17.018 -0.4206 -0.5496 -0.0798
10367TIP3    H152592   1.506   2.635  16.931 -1.2530 -0.3728 -0.2868
10367TIP3    H252593   1.437   2.609  17.063 -1.1994  0.0696 -0.1722
10368TIP3   OH252594   3.885   0.489  12.987 -0.1268 -0.1466  0.5959
10368TIP3    H152595   3.900   0.428  13.059  0.5924  1.2553  1.7020
10368TIP3    H252596   3.865   0.572  13.031  1.1674  0.9606 -0.8078
10369TIP3   OH252597   2.874   3.833   6.359 -0.6048  0.2778 -0.2998
10369TIP3    H152598   2.903   3.918   6.394 -0.3759 -0.0429  0.3094
10369TIP3    H252599   2.801   3.808   6.415 -0.3309 -0.1727 -0.1395
10370TIP3   OH252600   5.049   2.231   3.575 -0.2990 -0.2301  0.3893
10370TIP3    H152601   5.015   2.143   3.592  0.2276 -0.0804  2.5796
10370TIP3    H252602   5.144   2.220   3.574 -0.2478  0.2364  0.1221
10371TIP3   OH252603   5.447   2.073   0.515 -0.2189  0.0245  0.0598
10371TIP3    H152604   5.436   2.151   0.462 -2.3546  0.1139  0.5640
10371TIP3    H252605   5.374   2.074   0.576  0.6792 -1.4698  1.2465
10372TIP3   OH252606   0.331   5.696  11.869 -0.3207  0.2007  0.4261
10372TIP3    H152607   0.289   5.652  11.795 -0.4915 -0.6085  0.9860
10372TIP3    H252608   0.409   5.737  11.832 -0.6408  0.1932 -0.2821
10373TIP3   OH252609   0.324   5.985   1.628 -0.2696 -0.4511  0.0061
10373TIP3    H152610   0.357   5.967   1.540 -0.5674 -0.2419 -0.1492
10373TIP3    H252611   0.254   6.049   1.615 -0.5601 -0.6879  0.3565
10374TIP3   OH252612   6.720   3.119  15.756  0.0652 -0.4145  0.2699
10374TIP3    H152613   6.627   3.098  15.760  0.3328 -1.3900  1.7846
10374TIP3    H252614   6.733   3.183  15.826  0.4990 -0.0478 -0.1359
10375TIP3   OH252615   0.793   0.877  16.811  0.4625 -0.4142  0.1271
10375TIP3    H152616   0.812   0.872  16.717 -0.9437 -0.0579 -0.1967
10375TIP3    H252617   0.853   0.815  16.851  3.0359  1.3685 -0.6933
10376TIP3   OH252618   2.138   4.274  16.924  0.0980  0.5261  0.2797
10376TIP3    H152619   2.068   4.281  16.858 -1.1011 -2.1904  1.1144
10376TIP3    H252620   2.179   4.190  16.906  0.3099  0.1220  2.4301
10377TIP3   OH252621   5.768   1.221  14.925  0.4338  0.2300 -0.1782
10377TIP3    H152622   5.856   1.257  14.934 -0.0569  1.2971  0.6327
10377TIP3    H252623   5.773   1.165  14.848  1.5056  1.2564 -0.8928
10378TIP3   OH252624   6.820   4.613   2.410 -0.5375 -0.2688  0.3473
10378TIP3    H152625   6.792   4.588   2.322  0.2750 -0.3976  0.1151
10378TIP3    H252626   6.828   4.530   2.457 -0.7965 -0.2141  0.4857
10379TIP3   OH252627   4.739   5.743  12.561  0.3114  0.6277  0.6212
10379TIP3    H152628   4.743   5.672  12.497  1.4053  2.1998 -1.1727
10379TIP3    H252629   4.656   5.787  12.543  0.3688  0.7424  0.6370
10380TIP3   OH252630   4.714   3.697   3.679 -0.2889 -0.1745 -0.6550
10380TIP3    H152631   4.753   3.710   3.765  0.1435 -1.4414 -0.6331
10380TIP3    H252632   4.711   3.601   3.668 -0.6558 -0.0447 -1.8915
10381TIP3   OH252633   3.142   0.091   1.168  0.0247  0.2739 -0.2542
10381TIP3    H152634   3.084   0.121   1.098  0.0549  0.9188 -0.0117
10381TIP3    H252635   3.084   0.074   1.242 -0.1354 -1.4090 -0.7305
10382TIP3   OH252636   2.740   2.197  15.407  0.1324  0.5488  0.3526
10382TIP3    H152637   2.723   2.107  15.435 -0.2025 -0.1637 -1.9587
10382TIP3    H252638   2.654   2.239  15.406 -0.1054  0.0868 -1.0627
10383TIP3   OH252639   5.459   0.737   6.060  0.2636 -0.0232  0.1927
10383TIP3    H152640   5.493   0.825   6.079  3.7697 -1.1700 -0.0330
10383TIP3    H252641   5.421   0.708   6.143  1.5085  0.7635  1.0903
10384TIP3   OH252642   0.959   1.740   1.406  0.1780  0.3768  0.2221
10384TIP3    H152643   0.931   1.756   1.496  2.4086 -0.6389  1.1943
10384TIP3    H252644   0.901   1.671   1.374  0.0352 -0.0182  1.2816
10385TIP3   OH252645   5.206   3.805  15.352 -0.1570  0.1682 -0.7337
10385TIP3    H152646   5.242   3.889  15.324  0.4925 -0.6355 -2.4470
10385TIP3    H252647   5.269   3.772  15.416 -1.6857  2.0469  1.9965
10386TIP3   OH252648   1.905   1.428   4.851  0.3504 -0.0652  0.1329
10386TIP3    H152649   1.868   1.473   4.775 -2.0347  1.6490  2.1390
10386TIP3    H252650   1.972   1.488   4.885 -1.1046  0.9339  1.3756
10387TIP3   OH252651   3.446   4.221   3.367 -0.0069  0.4773  0.4319
10387TIP3    H152652   3.537   4.252   3.362 -0.7344  2.7776 -0.0484
10387TIP3    H252653   3.445   4.160   3.440  2.0912 -0.2966 -0.1119
10388TIP3   OH252654   5.523   2.418  14.386  0.1142  0.1104  0.0722
10388TIP3    H152655   5.482   2.378  14.310  1.0804  0.9429 -0.9335
10388TIP3    H252656   5.451   2.436  14.446 -0.5630 -1.2788 -0.2968
10389TIP3   OH252657   2.661   2.695  11.199  0.1241 -0.3056  0.0750
10389TIP3    H152658   2.569   2.668  11.198  0.4191 -1.9314  3.1858
10389TIP3    H252659   2.698   2.658  11.119 -1.4938 -1.4224 -0.1963
10390TIP3   OH252660   0.911   0.396  11.133 -0.4489  0.0588  0.6321
10390TIP3    H152661   0.964   0.318  11.149 -0.4989  0.3279  2.2492
10390TIP3    H252662   0.830   0.363  11.094  0.6726 -0.3951 -1.4843
10391TIP3   OH252663   1.018   3.435   0.012  0.1558 -0.1884 -0.2997
10391TIP3    H152664   0.952   3.464   0.075 -0.8489 -1.3837 -0.7396
10391TIP3    H252665   1.073   3.375   0.061 -1.3885 -2.1203 -0.7681
10392TIP3   OH252666   1.460   4.973   0.458 -0.0306  0.3100  0.3285
10392TIP3    H152667   1.523   4.920   0.409 -0.2114  0.7575 -0.3961
10392TIP3    H252668   1.395   4.909   0.489  0.5801 -0.1009  0.7708
10393TIP3   OH252669   4.339   2.330   1.868 -0.2396  0.7523 -0.2040
10393TIP3    H152670   4.389   2.258   1.906 -2.0213 -0.0670  0.7274
10393TIP3    H252671   4.297   2.372   1.943 -2.2008  0.3911 -1.0272
10394TIP3   OH252672   6.509   1.075  14.783 -0.4961  0.4131 -0.1345
10394TIP3    H152673   6.529   0.987  14.751 -0.3604  1.4649 -3.2212
10394TIP3    H252674   6.449   1.060  14.856 -0.3726 -2.2440 -0.4693
10395TIP3   OH252675   4.005   4.088   6.360  0.0100 -0.4761 -0.4241
10395TIP3    H152676   3.925   4.140   6.372 -0.4436 -1.2983  0.2100
10395TIP3    H252677   3.982   4.001   6.391  1.5215 -0.4412  0.9481
10396TIP3   OH252678   1.460   6.371   3.049 -0.1112  0.6069  0.1263
10396TIP3    H152679   1.389   6.326   3.094  0.3573 -0.7856 -0.4795
10396TIP3    H252680   1.417   6.425   2.983 -0.6076 -0.1047 -0.1360
10397TIP3   OH252681   3.496   4.380  11.472 -0.4080  0.2238 -0.0042
10397TIP3    H152682   3.578   4.378  11.521 -0.7896 -0.6266  0.6150
10397TIP3    H252683   3.518   4.428  11.392  0.9069 -0.7156 -0.2403
10398TIP3   OH252684   0.182   6.574  12.554 -0.4627  0.0477  0.2110
10398TIP3    H152685   0.160   6.629  12.630  2.1528  1.6111 -0.0305
10398TIP3    H252686   0.149   6.624  12.479  0.5794  0.5905  0.0938
10399TIP3   OH252687   4.006   2.705   5.366 -0.1862  0.0926 -0.8030
10399TIP3    H152688   4.030   2.774   5.428 -0.8287  0.3202 -0.8020
10399TIP3    H252689   4.038   2.625   5.407 -0.6269  0.2375 -0.1563
10400TIP3   OH252690   5.683   5.414  13.603 -0.3160  0.0394 -0.3852
10400TIP3    H152691   5.674   5.330  13.648  0.1542  0.5589  0.7430
10400TIP3    H252692   5.657   5.396  13.513 -0.7676 -1.1807 -0.0406
10401TIP3   OH252693   1.522   2.161   2.571  0.4904  0.0601 -0.3844
10401TIP3    H152694   1.596   2.219   2.551 -0.9951  2.2785  0.2166
10401TIP3    H252695   1.497   2.125   2.486  1.9152 -0.3630 -0.6662
10402TIP3   OH252696   4.913   3.579   4.892 -0.4679  0.0474 -0.3469
10402TIP3    H152697   4.859   3.600   4.968 -0.9292  1.3404 -1.0015
10402TIP3    H252698   4.967   3.504   4.920 -0.3143  0.7696  1.3850
10403TIP3   OH252699   2.265   3.220  12.936  0.0436 -0.7104 -0.0162
10403TIP3    H152700   2.332   3.166  12.894  1.8832  1.2200  0.2378
10403TIP3    H252701   2.182   3.188  12.900  0.7386 -4.9701  1.5932
10404TIP3   OH252702   5.881   0.893   2.121  0.2496 -0.3064 -0.1538
10404TIP3    H152703   5.865   0.840   2.200 -0.6222  0.5054  0.2308
10404TIP3    H252704   5.794   0.908   2.084  0.4810  0.8187 -0.2820
10405TIP3   OH252705   3.544   5.129   1.231  0.5792 -0.0016  0.1624
10405TIP3    H152706   3.456   5.135   1.194  0.3350  0.0323  0.7447
10405TIP3    H252707   3.596   5.087   1.163  0.7304  2.3332 -1.2892
10406TIP3   OH252708   1.186   4.081  10.698 -0.3211  0.1558  0.3994
10406TIP3    H152709   1.278   4.059  10.683 -0.4012  0.3060 -0.3392
10406TIP3    H252710   1.139   4.000  10.681 -0.2786 -0.0849  1.3767
10407TIP3   OH252711   2.784   3.854   3.891  0.2013 -0.4632  0.8066
10407TIP3    H152712   2.752   3.790   3.956  1.2307 -0.4263  1.3645
10407TIP3    H252713   2.705   3.898   3.860 -0.5703 -2.1579  0.2439
10408TIP3   OH252714   4.979   4.777   6.572 -0.2425  0.6566 -0.3312
10408TIP3    H152715   5.008   4.834   6.501 -0.7551  0.1199 -0.9834
10408TIP3    H252716   4.989   4.830   6.651  2.7453  0.4727 -0.4548
10409TIP3   OH252717   3.664   5.133  14.357 -0.3244  0.1750  0.6848
10409TIP3    H152718   3.721   5.209  14.372 -1.5311  1.2859 -0.1821
10409TIP3    H252719   3.581   5.170  14.327 -0.4540 -1.5589 -1.3257
10410TIP3   OH252720   0.798   5.324   0.058 -0.3888 -0.0690  0.0961
10410TIP3    H152721   0.783   5.407   0.014 -0.4014  0.5460  1.2079
10410TIP3    H252722   0.736   5.324   0.131  0.7374 -0.2722  1.1025
10411TIP3   OH252723   0.889   5.727  16.101  0.1123 -0.0013  0.0002
10411TIP3    H152724   0.863   5.778  16.178 -0.0539  1.3896 -0.9581
10411TIP3    H252725   0.979   5.700  16.121  0.4791  1.3234  0.2015
10412TIP3   OH252726   1.643   1.907   4.613  0.6187  0.3322  0.1062
10412TIP3    H152727   1.723   1.956   4.632  0.5506  0.8990 -0.9689
10412TIP3    H252728   1.575   1.974   4.606 -0.0738 -0.1909  1.5372
10413TIP3   OH252729   1.892   4.135   5.105 -0.2160 -0.3268  0.2787
10413TIP3    H152730   1.803   4.102   5.117  0.0022 -1.1022 -0.1777
10413TIP3    H252731   1.924   4.091   5.026  0.2707  0.5985 -0.0650
10414TIP3   OH252732   0.866   0.533   0.512  0.0076 -0.0151  0.2346
10414TIP3    H152733   0.943   0.585   0.534  0.3102 -0.3101 -0.1191
10414TIP3    H252734   0.848   0.554   0.420  0.1734 -0.5755  0.0685
10415TIP3   OH252735   6.460   4.512   0.710 -0.0817  0.1233 -0.8342
10415TIP3    H152736   6.461   4.524   0.805  0.5926 -0.0483 -0.8187
10415TIP3    H252737   6.549   4.485   0.687 -0.0606  0.7944 -1.6009
10416TIP3   OH252738   1.685   2.737  14.382 -0.5879 -0.4285  0.1013
10416TIP3    H152739   1.700   2.642  14.385  0.6076 -0.2737 -0.7485
10416TIP3    H252740   1.607   2.746  14.328 -0.6407 -0.9164  0.0838
10417TIP3   OH252741   1.376   4.743   3.344 -0.1276 -0.7498  1.2536
10417TIP3    H152742   1.321   4.711   3.272 -0.6256  3.1302 -0.3620
10417TIP3    H252743   1.465   4.719   3.319 -0.4992 -1.2993  0.4226
10418TIP3   OH252744   4.489   1.869   4.773  0.6945 -0.4889  0.2059
10418TIP3    H152745   4.530   1.929   4.836 -0.2933 -0.0577  0.4508
10418TIP3    H252746   4.449   1.801   4.826 -0.2143 -0.0786  0.0581
10419TIP3   OH252747   5.994   1.796   2.678  0.6249  0.1694  0.3620
10419TIP3    H152748   5.928   1.853   2.639 -0.0658 -0.1181  1.0819
10419TIP3    H252749   6.078   1.831   2.648  0.1923  1.2730  0.4264
10420TIP3   OH252750   6.245   3.721   5.275 -0.5782  0.2674 -0.3492
10420TIP3    H152751   6.207   3.698   5.191 -1.5883 -0.2252  0.2246
10420TIP3    H252752   6.268   3.813   5.267 -0.3062  0.1291 -1.2812
10421TIP3   OH252753   0.113   2.465   3.232 -0.4704 -0.0068  0.4009
10421TIP3    H152754   0.110   2.542   3.175 -1.0188 -2.0302 -2.5528
10421TIP3    H252755   0.027   2.460   3.272 -1.3949 -0.5015 -1.5418
10422TIP3   OH252756   6.319   6.848  11.383 -0.1998  0.3266 -0.3836
10422TIP3    H152757   6.302   6.816  11.471  1.7214  2.2860  0.7885
10422TIP3    H252758   6.357   6.773  11.337  1.4239  0.0198  1.3584
10423TIP3   OH252759   4.013   4.130   1.208  0.6603 -0.6080  0.1330
10423TIP3    H152760   4.029   4.086   1.292  1.7411 -0.5605 -0.0379
10423TIP3    H252761   3.977   4.215   1.232 -0.7271 -1.2569  0.4884
10424TIP3   OH252762   2.007   3.312   5.052 -0.1824 -0.1186 -0.2010
10424TIP3    H152763   2.071   3.384   5.053 -0.9135  0.5550  0.7603
10424TIP3    H252764   2.058   3.234   5.032  0.9110  0.4351  0.3580
10425TIP3   OH252765   3.016   1.774   6.263  0.0577  0.0097 -0.1850
10425TIP3    H152766   2.931   1.737   6.284 -1.3637  3.5704  1.2218
10425TIP3    H252767   3.061   1.783   6.347  0.5236  0.8817 -0.5039
10426TIP3   OH252768   0.193   5.333  16.001 -0.1027 -0.0438  0.3964
10426TIP3    H152769   0.284   5.348  15.975 -0.0683  0.7040  0.9236
10426TIP3    H252770   0.201   5.284  16.083 -0.1768  0.0178  0.4399
10427TIP3   OH252771   3.822   0.367   5.424  0.5497 -0.2522  0.3684
10427TIP3    H152772   3.901   0.314   5.437  0.1696 -0.5260  1.6942
10427TIP3    H252773   3.794   0.390   5.513  0.1344  1.3301 -0.1466
10428TIP3   OH252774   4.298   2.735   3.677 -0.1830  0.0475 -0.5618
10428TIP3    H152775   4.245   2.697   3.607  0.0634  0.0144 -0.7308
10428TIP3    H252776   4.234   2.779   3.734 -0.2010  2.2238 -2.1097
10429TIP3   OH252777   5.327   4.228   3.541 -0.0656 -0.3322 -0.4833
10429TIP3    H152778   5.274   4.257   3.615 -0.3191 -1.3841 -0.2451
10429TIP3    H252779   5.406   4.190   3.581 -0.1169 -0.7293 -0.7511
10430TIP3   OH252780   0.676   1.974  13.023  0.1767 -0.0280  0.2552
10430TIP3    H152781   0.770   1.993  13.027 -0.3214  2.8041  0.3308
10430TIP3    H252782   0.671   1.895  12.969  2.5630  0.0450 -0.2199
10431TIP3   OH252783   1.195   1.000   0.025 -0.3803  0.0004 -0.4364
10431TIP3    H152784   1.245   0.919   0.017  0.5253  0.6745 -2.2734
10431TIP3    H252785   1.229   1.056  -0.045 -1.8063  1.5337  0.0260
10432TIP3   OH252786   6.220   6.471   4.686  0.5366  0.7705  0.1090
10432TIP3    H152787   6.299   6.417   4.676  1.3344  1.8191  0.4560
10432TIP3    H252788   6.236   6.521   4.766 -0.0990  1.6356 -0.2922
10433TIP3   OH252789   0.677   4.274  16.148 -0.3611 -0.4693 -0.1663
10433TIP3    H152790   0.594   4.305  16.111 -0.4068  1.6429  1.5409
10433TIP3    H252791   0.681   4.315  16.234  1.9384 -1.4612  0.2473
10434TIP3   OH252792   0.519   0.623  13.968  0.2918  0.2402 -0.0309
10434TIP3    H152793   0.542   0.536  14.001 -0.7335 -0.3701 -0.8558
10434TIP3    H252794   0.471   0.606  13.887 -1.8221  1.4640  0.8716
10435TIP3   OH252795   0.353   3.776   2.128  0.3333  0.3806 -0.8307
10435TIP3    H152796   0.403   3.808   2.203  0.7972  2.5572 -1.9918
10435TIP3    H252797   0.416   3.771   2.056 -0.2786 -0.8648 -1.3156
10436TIP3   OH252798   1.421   0.906   0.665 -0.1605 -0.3969 -0.2074
10436TIP3    H152799   1.453   0.959   0.592 -1.2839  1.5235  0.5936
10436TIP3    H252800   1.393   0.824   0.625  0.2623  0.1837 -1.7634
10437TIP3   OH252801   0.721   6.624  13.825  0.3738  0.1013 -0.0409
10437TIP3    H152802   0.802   6.594  13.784  0.3029 -0.0305 -0.0847
10437TIP3    H252803   0.663   6.644  13.751 -0.0489 -0.9409 -0.0054
10438TIP3   OH252804   3.940   3.762   0.955 -0.8031  0.3066  0.0905
10438TIP3    H152805   3.907   3.675   0.930 -1.5134  0.5408  0.1727
10438TIP3    H252806   3.998   3.745   1.030 -0.8095 -0.1150  0.0029
10439TIP3   OH252807   6.487   0.148  13.127  0.3238 -0.3352 -0.3651
10439TIP3    H152808   6.530   0.183  13.049 -0.1151 -1.4001 -1.1145
10439TIP3    H252809   6.414   0.096  13.093  0.8571 -1.8463  0.6805
10440TIP3   OH252810   6.358   1.880   5.942  0.6336  0.1022 -0.3884
10440TIP3    H152811   6.424   1.948   5.957  0.8991 -0.2332 -0.0455
10440TIP3    H252812   6.320   1.864   6.028 -0.3345  0.7277 -0.6759
10441TIP3   OH252813   5.469   3.877   5.570 -0.1000 -0.0917  0.6003
10441TIP3    H152814   5.542   3.859   5.511 -0.5683  0.9475 -0.3464
10441TIP3    H252815   5.398   3.907   5.512 -1.0968 -0.5247  1.5464
10442TIP3   OH252816   2.940   1.916  16.541 -0.2066  0.3175 -0.5002
10442TIP3    H152817   3.031   1.932  16.516 -0.2985  0.7416 -0.5689
10442TIP3    H252818   2.939   1.825  16.570  0.5832  0.7560  1.0141
10443TIP3   OH252819   3.620   0.820   2.579 -0.1238 -0.3104 -0.3440
10443TIP3    H152820   3.631   0.862   2.494  0.2875  1.1163  0.3793
10443TIP3    H252821   3.684   0.749   2.579  0.2409  0.0070 -1.0192
10444TIP3   OH252822   5.196   0.830   1.188  0.4249  0.5350  0.5329
10444TIP3    H152823   5.141   0.795   1.258 -0.0686 -2.1931 -1.0873
10444TIP3    H252824   5.139   0.890   1.140 -0.5527 -0.7003  0.0956
10445TIP3   OH252825   0.639   1.375  14.296  0.0829 -0.6471 -0.2310
10445TIP3    H152826   0.651   1.469  14.302  2.7785 -0.7621 -2.0417
10445TIP3    H252827   0.544   1.363  14.293 -0.3660  2.2946 -2.8729
10446TIP3   OH252828   5.318   5.960  10.795 -0.1203  0.1860 -0.2684
10446TIP3    H152829   5.245   6.011  10.830 -0.2511 -1.0301  1.3300
10446TIP3    H252830   5.340   6.004  10.712  0.2280  3.2396  1.2911
10447TIP3   OH252831   5.872   6.603   2.787  0.6726  0.0676 -0.5686
10447TIP3    H152832   5.951   6.619   2.839  1.0754  1.9766 -1.6506
10447TIP3    H252833   5.856   6.509   2.795  1.8387 -0.0278  1.3622
10448TIP3   OH252834   4.566   6.034   7.182 -0.1480 -0.5226 -0.2974
10448TIP3    H152835   4.645   6.013   7.232 -1.2794 -0.1498  1.7653
10448TIP3    H252836   4.548   5.954   7.132  1.1311 -0.8475 -0.2726
10449TIP3   OH252837   1.821   1.055  13.589  0.1113 -0.1932  0.6643
10449TIP3    H152838   1.797   1.131  13.537  2.5470 -0.0752 -0.4166
10449TIP3    H252839   1.797   1.078  13.679 -0.4133  1.2878  0.1663
10450TIP3   OH252840   1.108   1.953  13.772 -0.1040 -0.0932  0.1104
10450TIP3    H152841   1.015   1.938  13.754 -0.8173  0.1289  3.0377
10450TIP3    H252842   1.154   1.896  13.710 -2.1906 -0.5811 -1.0934
10451TIP3   OH252843   5.990   3.339  13.237  0.2846  0.0588  0.1040
10451TIP3    H152844   5.905   3.382  13.230 -0.1935 -1.0943 -2.6124
10451TIP3    H252845   6.049   3.393  13.185  0.8402 -0.0194  0.6351
10452TIP3   OH252846   3.076   1.029   0.276 -0.2919  0.1752 -0.1556
10452TIP3    H152847   3.162   1.070   0.284 -0.3456  0.5239 -1.1725
10452TIP3    H252848   3.092   0.949   0.225 -0.4731 -0.0922  0.2054
10453TIP3   OH252849   4.957   6.619   5.779 -0.6352  0.3892  0.2159
10453TIP3    H152850   4.990   6.549   5.835  1.3018 -0.9736 -2.4128
10453TIP3    H252851   5.020   6.690   5.790 -0.4076  0.2246 -0.0067
10454TIP3   OH252852   6.822   3.742  11.989 -0.5831  0.3584  0.1296
10454TIP3    H152853   6.856   3.831  11.979 -0.6434  0.3702  0.0357
10454TIP3    H252854   6.801   3.735  12.082 -1.0206  0.5958  0.0465
10455TIP3   OH252855   6.048   3.241  16.150 -0.3607 -0.1171 -0.3404
10455TIP3    H152856   5.982   3.174  16.167  0.2063 -0.6628 -0.2611
10455TIP3    H252857   6.131   3.196  16.160  0.1851  1.4077  3.4545
10456TIP3   OH252858   5.622   1.219   4.989  0.5032  0.2323 -0.1264
10456TIP3    H152859   5.654   1.129   4.997 -0.2196 -0.0844 -0.6521
10456TIP3    H252860   5.538   1.218   5.035 -0.5951  0.0344 -2.0185
10457TIP3   OH252861   4.715   4.695   5.870  0.4430  0.3991  0.2570
10457TIP3    H152862   4.717   4.601   5.886 -0.1479  0.2688 -0.3846
10457TIP3    H252863   4.806   4.719   5.853  1.3482  0.7179  4.4552
10458TIP3   OH252864   1.577   5.295  16.087 -0.6086 -0.1031 -0.3112
10458TIP3    H152865   1.483   5.300  16.066 -0.5924  0.5933 -0.2417
10458TIP3    H252866   1.620   5.298  16.002 -0.6262  0.4476 -0.3073
10459TIP3   OH252867   1.945   2.049   4.784  0.2194 -0.1182  0.4657
10459TIP3    H152868   2.019   2.066   4.843 -0.1210  0.7343  0.6561
10459TIP3    H252869   1.893   2.129   4.787 -0.2977 -0.4173 -0.2778
10460TIP3   OH252870   4.996   3.141  14.451 -0.4327 -0.0678 -0.0586
10460TIP3    H152871   4.948   3.197  14.389 -1.3222 -2.2486 -1.4905
10460TIP3    H252872   4.927   3.101  14.504  0.1840  0.2499  0.9905
10461TIP3   OH252873   6.493   2.594  17.082 -0.2075  0.1990 -0.4689
10461TIP3    H152874   6.588   2.605  17.083  0.0179 -1.4029 -1.0081
10461TIP3    H252875   6.465   2.634  16.999  0.1627 -0.3401 -0.8639
10462TIP3   OH252876   4.114   4.470   4.520  0.3098  0.3319  0.0343
10462TIP3    H152877   4.105   4.491   4.613 -0.2799 -1.4559  0.4347
10462TIP3    H252878   4.089   4.377   4.514  2.0470 -0.0891 -1.6401
10463TIP3   OH252879   4.555   5.388  12.002 -0.3110  0.2630  0.2154
10463TIP3    H152880   4.594   5.446  11.936 -0.5183 -0.2604 -0.3696
10463TIP3    H252881   4.544   5.304  11.958  0.0887 -0.2685  1.0938
10464TIP3   OH252882   5.261   2.440  14.413  0.5357 -0.4143  0.1712
10464TIP3    H152883   5.188   2.436  14.476 -0.8306  0.0959 -1.3203
10464TIP3    H252884   5.222   2.416  14.330  1.6545  1.6457 -1.0322
10465TIP3   OH252885   2.278   2.987   3.848 -0.1956  0.1101  0.3785
10465TIP3    H152886   2.313   2.902   3.876 -1.3451 -0.9060 -1.0886
10465TIP3    H252887   2.232   3.021   3.924 -2.6094 -2.2096  0.0921
10466TIP3   OH252888   2.789   6.117  11.648  0.2027  0.3393 -0.3112
10466TIP3    H152889   2.838   6.100  11.728  0.1130 -1.2209 -0.5581
10466TIP3    H252890   2.851   6.099  11.577  0.1960  1.4221 -0.6049
10467TIP3   OH252891   3.715   2.478   5.939  0.5323  0.2894 -0.0835
10467TIP3    H152892   3.691   2.569   5.958 -1.8444 -0.3859  0.5289
10467TIP3    H252893   3.782   2.456   6.003  1.8910  1.8783 -0.8974
10468TIP3   OH252894   4.306   5.191  14.683  0.1245 -0.1216  0.1209
10468TIP3    H152895   4.362   5.128  14.637  0.0402  0.2701 -0.5284
10468TIP3    H252896   4.244   5.222  14.616 -0.1522  0.2795  0.5555
10469TIP3   OH252897   3.812   0.962   0.369  0.0618 -0.1919 -0.1523
10469TIP3    H152898   3.893   0.954   0.319 -0.7711 -0.5144 -1.4921
10469TIP3    H252899   3.825   1.039   0.423  1.0272  0.1234 -0.8062
10470TIP3   OH252900   6.272   1.093   4.410  0.4707 -0.0569 -0.4747
10470TIP3    H152901   6.329   1.017   4.405 -0.8283 -1.4812  3.0469
10470TIP3    H252902   6.312   1.148   4.478 -1.5456 -0.5240  1.2139
10471TIP3   OH252903   2.104   3.128   1.596  0.3171 -0.6812  0.4273
10471TIP3    H152904   2.017   3.149   1.630  0.0646 -1.8549  0.5429
10471TIP3    H252905   2.157   3.113   1.675  0.0427 -2.1775  0.3566
10472TIP3   OH252906   5.680   1.875  11.363 -0.3689  0.0299 -0.5120
10472TIP3    H152907   5.717   1.829  11.438 -2.0604 -0.3427  0.1417
10472TIP3    H252908   5.754   1.887  11.303  0.9057 -0.1405  0.9629
10473TIP3   OH252909   2.499   5.482  10.426 -0.2115  0.0722 -0.4629
10473TIP3    H152910   2.575   5.524  10.467 -0.5577  0.4473 -0.2013
10473TIP3    H252911   2.438   5.554  10.411 -0.2076 -0.0968 -1.3822
10474TIP3   OH252912   4.068   1.063   3.089  0.4093 -0.2076  0.2581
10474TIP3    H152913   4.005   1.136   3.087  1.1301  0.4372 -2.0767
10474TIP3    H252914   4.069   1.030   2.999  0.5223 -2.7938  1.1397
10475TIP3   OH252915   3.503   0.547  14.147  0.7954 -0.0741 -0.0617
10475TIP3    H152916   3.556   0.602  14.205 -2.0942  1.3849  1.4482
10475TIP3    H252917   3.496   0.464  14.193  0.2324  0.3785  0.6974
10476TIP3   OH252918   3.052   0.624   4.586  0.3239 -0.2608 -0.0043
10476TIP3    H152919   3.125   0.583   4.540 -0.9301 -1.1724 -1.2900
10476TIP3    H252920   3.092   0.697   4.634  2.1807 -1.2571  0.0574
10477TIP3   OH252921   6.435   3.032   1.861 -0.3386 -0.1711  0.4125
10477TIP3    H152922   6.507   3.095   1.858 -0.0403 -0.5315 -0.3400
10477TIP3    H252923   6.357   3.086   1.872  0.1335  0.1374  2.7776
10478TIP3   OH252924   1.355   6.387  10.966 -0.2804 -0.1909 -0.5403
10478TIP3    H152925   1.277   6.388  11.021  0.1164  0.5604  0.0275
10478TIP3    H252926   1.400   6.306  10.989  1.1124  1.2000  2.0625
10479TIP3   OH252927   2.053   1.542  10.885  0.3559 -0.4175  0.2585
10479TIP3    H152928   1.965   1.575  10.866 -0.0542 -0.7237  1.5203
10479TIP3    H252929   2.068   1.565  10.976  0.9522 -1.7340  0.5202
10480TIP3   OH252930   1.211   2.760  13.361 -0.6885  0.7648  0.5077
10480TIP3    H152931   1.218   2.799  13.448 -0.3050 -0.5208  1.0931
10480TIP3    H252932   1.276   2.806  13.308  2.2914 -1.2639  2.0744
10481TIP3   OH252933   2.338   2.280  12.658  0.1432 -0.5305  0.3216
10481TIP3    H152934   2.288   2.309  12.582  0.5551  1.3097  0.7239
10481TIP3    H252935   2.327   2.185  12.659 -2.0027 -0.3279 -0.5140
10482TIP3   OH252936   4.596   0.812  16.967 -0.5533 -0.3196  0.1598
10482TIP3    H152937   4.599   0.865  16.888 -1.6008 -0.6809 -0.1480
10482TIP3    H252938   4.657   0.853  17.027  0.6677 -0.3480 -1.0269
10483TIP3   OH252939   6.494   1.140  15.051  0.5594 -0.1138  0.2294
10483TIP3    H152940   6.538   1.071  15.101  1.1096  1.5253  2.1601
10483TIP3    H252941   6.544   1.219  15.071 -1.9053  1.4296  0.7172
10484TIP3   OH252942   5.970   3.521  15.597  0.5673  0.2509  0.3511
10484TIP3    H152943   6.064   3.504  15.590  0.6125  0.8779 -0.7652
10484TIP3    H252944   5.962   3.587  15.666  1.1162  1.3820 -0.6310
10485TIP3   OH252945   5.330   2.737   2.637  0.5352 -0.4676 -0.5471
10485TIP3    H152946   5.275   2.698   2.570  0.6486 -1.0949 -0.2879
10485TIP3    H252947   5.400   2.672   2.651 -1.2515 -1.9535  2.5180
10486TIP3   OH252948   5.972   0.172   0.717  0.0612  0.2391  0.7262
10486TIP3    H152949   6.016   0.183   0.633 -0.0818 -1.6364  0.3633
10486TIP3    H252950   5.880   0.159   0.693 -0.2720  1.3671  1.3106
10487TIP3   OH252951   1.042   5.888   4.052  0.0243  0.3018 -0.0722
10487TIP3    H152952   1.104   5.948   4.094  0.4779 -0.8466  0.9502
10487TIP3    H252953   1.076   5.801   4.072 -0.9131 -0.3201 -1.0820
10488TIP3   OH252954   1.805   5.208  16.393 -0.1482  0.5457 -0.1269
10488TIP3    H152955   1.860   5.130  16.390 -1.5853 -0.6359  1.7609
10488TIP3    H252956   1.810   5.238  16.483 -0.5470  1.9479 -0.5489
10489TIP3   OH252957   5.281   2.626  12.333 -0.7478 -0.0782  0.4300
10489TIP3    H152958   5.212   2.685  12.303 -0.9138 -0.4310  0.1065
10489TIP3    H252959   5.285   2.558  12.265 -1.4847 -1.1945  1.4633
10490TIP3   OH252960   5.835   3.434  10.935 -0.3130 -0.3457  0.5079
10490TIP3    H152961   5.822   3.480  10.852  2.0292 -1.4532 -0.5745
10490TIP3    H252962   5.780   3.481  10.998  0.9607  3.1531 -0.7460
10491TIP3   OH252963   2.761   2.248   0.783 -0.1049  0.7327  0.2608
10491TIP3    H152964   2.785   2.257   0.876  0.4497 -0.1585  0.2075
10491TIP3    H252965   2.668   2.269   0.781 -0.1356  0.7130  1.0319
10492TIP3   OH252966   2.910   6.613   0.737 -0.4778  0.0414 -0.0271
10492TIP3    H152967   2.942   6.697   0.705 -0.1772 -0.3973 -0.9163
10492TIP3    H252968   2.820   6.630   0.763 -0.5355  0.5603 -0.5452
10493TIP3   OH252969   0.119   6.034  14.270  0.8368  0.1856  0.0201
10493TIP3    H152970   0.065   5.960  14.243  0.8940  0.2139 -0.1681
10493TIP3    H252971   0.206   6.015  14.236  0.5188  1.0870 -1.4048
10494TIP3   OH252972   4.750   2.421  13.096  0.0783  0.5247  0.1194
10494TIP3    H152973   4.694   2.463  13.031  1.0700  1.5344 -0.1151
10494TIP3    H252974   4.697   2.417  13.175 -0.8149  0.1385 -0.4896
10495TIP3   OH252975   1.583   2.745  13.788 -0.7416 -0.1199 -0.7605
10495TIP3    H152976   1.644   2.741  13.713 -0.3976  1.6391 -0.5991
10495TIP3    H252977   1.559   2.653  13.803  3.0482 -1.1521  0.1252
10496TIP3   OH252978   4.378   6.222  12.988 -0.5704 -0.0232  0.0481
10496TIP3    H152979   4.339   6.192  13.070 -0.0885 -0.0847  0.2631
10496TIP3    H252980   4.408   6.142  12.945  0.2310  0.0890  0.3702
10497TIP3   OH252981   0.183   0.705   4.635 -0.1951  0.1624  0.0361
10497TIP3    H152982   0.097   0.747   4.628  0.2351  0.9425 -0.8479
10497TIP3    H252983   0.235   0.766   4.688 -0.4196 -0.7049  1.2676
10498TIP3   OH252984   3.429   6.737  11.551 -0.3412  0.1421 -0.0208
10498TIP3    H152985   3.342   6.714  11.518 -0.0199  0.3435 -1.0538
10498TIP3    H252986   3.486   6.666  11.520 -0.2258 -0.2922  1.1442
10499TIP3   OH252987   1.004   1.469  16.331 -0.0199 -0.1913  0.1480
10499TIP3    H152988   1.065   1.396  16.345 -1.1249 -1.5202 -1.6114
10499TIP3    H252989   0.948   1.469  16.408 -0.7592 -2.0107 -0.3495
10500TIP3   OH252990   2.138   1.272  16.089  0.1349  0.1612  0.1158
10500TIP3    H152991   2.153   1.328  16.165 -1.0085  1.3384 -0.4722
10500TIP3    H252992   2.065   1.215  16.114 -0.4174  0.7294 -0.1651
10501TIP3   OH252993   2.045   6.789   4.570 -0.7863 -0.3679  0.5217
10501TIP3    H152994   2.052   6.800   4.665  0.1485 -1.2538  0.5784
10501TIP3    H252995   1.992   6.863   4.541 -0.1970  0.5136  1.5992
10502TIP3   OH252996   3.644   2.825  11.475 -0.1764 -0.5701 -0.2336
10502TIP3    H152997   3.685   2.881  11.541 -1.1659 -0.6439  0.4754
10502TIP3    H252998   3.716   2.796  11.419  1.0406 -2.1088  1.9628
10503TIP3   OH252999   2.594   3.616   5.782  0.5820  0.0624 -0.1741
10503TIP3    H153000   2.680   3.576   5.773  0.4713 -0.4513  0.8682
10503TIP3    H253001   2.605   3.704   5.748  2.2426  0.9086  2.2646
10504TIP3   OH253002   0.203   6.464   0.375  0.0754  0.4959  0.2933
10504TIP3    H153003   0.154   6.416   0.309  0.4063 -0.2791  0.6014
10504TIP3    H253004   0.143   6.472   0.449  0.6140 -1.0782  0.9445
10505TIP3   OH253005   5.466   3.163   3.405  0.0898  0.4844 -0.5060
10505TIP3    H153006   5.431   3.075   3.397  1.4451 -0.0148 -1.3227
10505TIP3    H253007   5.437   3.193   3.491  1.3419 -1.5584  0.7047
10506TIP3   OH253008   0.135   4.872   0.913 -0.6266 -0.6745  0.4584
10506TIP3    H153009   0.215   4.821   0.920 -0.1257 -0.0786 -0.7613
10506TIP3    H253010   0.079   4.839   0.984  0.5014 -1.4174  1.0171
10507TIP3   OH253011   2.062   5.843   2.215  0.5214  0.1250  0.0650
10507TIP3    H153012   1.992   5.896   2.253  1.7958  2.2896 -0.4437
10507TIP3    H253013   2.055   5.758   2.260 -1.6075  0.6857  0.9027
10508TIP3   OH253014   0.037   1.898  13.230  0.1400  0.0150 -0.2362
10508TIP3    H153015  -0.002   1.863  13.310  0.8465  0.5331  0.3513
10508TIP3    H253016  -0.020   1.867  13.160 -0.4808 -0.4651  0.4641
10509TIP3   OH253017   2.463   3.652   3.520 -0.0969 -0.3575  0.1590
10509TIP3    H153018   2.485   3.680   3.608  1.8148 -0.3296 -0.2897
10509TIP3    H253019   2.461   3.556   3.525  3.2997 -0.5784 -0.3784
10510TIP3   OH253020   4.028   4.214  14.473 -0.1762  0.4867 -0.5019
10510TIP3    H153021   4.042   4.192  14.566  2.1240  0.9832 -0.6656
10510TIP3    H253022   3.958   4.279  14.474 -0.5447  0.0989  0.8426
10511TIP3   OH253023   6.063   1.105  16.155  0.2156  0.5928 -0.4789
10511TIP3    H153024   5.992   1.085  16.216  0.2052 -1.4225 -1.0586
10511TIP3    H253025   6.143   1.089  16.205  0.2651  1.5706 -0.2227
10512TIP3   OH253026   0.648   0.194  11.773 -0.1437  0.2221 -0.2065
10512TIP3    H153027   0.690   0.197  11.687  1.3954  1.5926  0.5366
10512TIP3    H253028   0.561   0.158  11.756  0.1106  0.4833 -2.3292
10513TIP3   OH253029   1.436   3.391  15.940 -0.2388  0.4835  0.3014
10513TIP3    H153030   1.502   3.459  15.952  0.3411 -0.1553  0.8525
10513TIP3    H253031   1.475   3.330  15.878 -1.0106  0.9598 -0.6750
10514TIP3   OH253032   5.468   1.035  16.469 -0.2411 -0.2361 -0.1301
10514TIP3    H153033   5.386   1.001  16.434 -1.2222  0.5956  1.2772
10514TIP3    H253034   5.470   1.127  16.441 -1.0806  0.4707  1.9473
10515TIP3   OH253035   1.776   5.673  17.105 -0.3828 -0.1289 -0.4923
10515TIP3    H153036   1.852   5.731  17.104 -0.9489  0.7563  1.5853
10515TIP3    H253037   1.799   5.604  17.167 -0.4622 -1.0699 -1.4909
10516TIP3   OH253038   4.286   6.380   5.009 -0.5317  0.2243 -0.4261
10516TIP3    H153039   4.239   6.304   4.976  1.4274 -1.0869 -0.3486
10516TIP3    H253040   4.379   6.358   4.998  0.1124  2.6014 -0.3855
10517TIP3   OH253041   2.086   4.541  17.003 -0.0020  0.2618  0.6538
10517TIP3    H153042   2.110   4.449  16.993 -1.0387 -0.0276  0.6544
10517TIP3    H253043   2.128   4.569  17.084  3.1150  0.7738 -1.0162
10518TIP3   OH253044   0.957   1.908  12.538  0.2077  0.4629  0.2718
10518TIP3    H153045   0.958   1.932  12.631  0.8558  0.0761  0.3688
10518TIP3    H253046   0.920   1.820  12.537  2.2311 -0.4235  0.3938
10519TIP3   OH253047   1.456   1.843   2.768  0.2027 -0.1111 -0.4071
10519TIP3    H153048   1.391   1.911   2.782  1.6163  1.5573 -1.4884
10519TIP3    H253049   1.512   1.845   2.845  0.0123 -0.3379 -0.2610
10520TIP3   OH253050   4.000   4.573  11.280  0.0303 -0.7771  0.2852
10520TIP3    H153051   3.975   4.661  11.308 -0.1043 -0.7425  0.0546
10520TIP3    H253052   4.028   4.530  11.361  3.4509  0.5629 -0.0234
10521TIP3   OH253053   4.996   5.294   4.963 -0.0021 -0.3241 -0.4737
10521TIP3    H153054   4.952   5.373   4.995  2.7449  0.5677  1.3850
10521TIP3    H253055   4.974   5.227   5.028  0.4911 -0.1709 -0.1493
10522TIP3   OH253056   0.767   4.734   1.395  0.0854 -0.0465 -0.4342
10522TIP3    H153057   0.709   4.734   1.471 -1.1611  1.7092 -1.3210
10522TIP3    H253058   0.773   4.642   1.370 -2.3990 -0.3027 -0.3245
10523TIP3   OH253059   0.152   3.118  16.273 -0.0068 -0.4967 -0.2356
10523TIP3    H153060   0.148   3.200  16.322  1.9733  0.5975 -1.7347
10523TIP3    H253061   0.245   3.095  16.275  0.3576  0.0663 -4.0530
10524TIP3   OH253062   3.634   0.650   3.474  0.2782 -0.8163  0.3098
10524TIP3    H153063   3.555   0.642   3.527 -0.3003 -1.0231 -0.5520
10524TIP3    H253064   3.606   0.699   3.396  0.9170 -1.1378 -0.1347
10525TIP3   OH253065   3.238   5.655   2.289 -0.4936 -0.7973  0.1725
10525TIP3    H153066   3.209   5.684   2.375 -2.1172 -3.6031  0.6824
10525TIP3    H253067   3.226   5.731   2.233  1.7456  1.5064  2.5247
10526TIP3   OH253068   1.476   3.067  11.698 -0.1925 -0.5109 -0.0048
10526TIP3    H153069   1.411   3.052  11.629 -0.1484 -2.5490  0.3326
10526TIP3    H253070   1.467   3.160  11.719 -1.4999 -0.2592 -1.4437
10527TIP3   OH253071   6.326   2.843  11.130  0.4835  0.0735  0.2986
10527TIP3    H153072   6.275   2.809  11.056  1.0751 -3.2804  1.2685
10527TIP3    H253073   6.414   2.855  11.095  0.3237  0.4559  0.0097
10528TIP3   OH253074   4.229   3.214  12.626  0.7389 -0.1972  0.0203
10528TIP3    H153075   4.313   3.188  12.588  0.0892 -0.6903 -1.1091
10528TIP3    H253076   4.222   3.161  12.706  1.2171 -0.6083 -0.2048
10529TIP3   OH253077   3.026   0.818  15.932 -0.2168  0.4127 -0.0509
10529TIP3    H153078   2.958   0.819  15.999 -0.6613  2.0003 -0.4763
10529TIP3    H253079   2.983   0.779  15.856 -0.2184  0.1384  0.0885
10530TIP3   OH253080   3.778   3.005  17.040  0.2600 -0.1847 -0.5579
10530TIP3    H153081   3.767   3.037  16.951 -1.2235 -0.2329 -0.4202
10530TIP3    H253082   3.850   3.056  17.075 -0.5972  1.4523 -1.0685
10531TIP3   OH253083   3.879   2.765  12.003  0.0232 -0.1558 -0.2332
10531TIP3    H153084   3.954   2.802  12.049 -0.7326 -0.1663  1.0457
10531TIP3    H253085   3.814   2.748  12.072 -0.6050 -1.4912 -1.1141
10532TIP3   OH253086   1.479   2.458  11.876 -0.3428  0.0212  0.1833
10532TIP3    H153087   1.440   2.510  11.946 -0.0331  1.1765 -0.4730
10532TIP3    H253088   1.407   2.445  11.813 -0.6901 -1.2331  0.8057
10533TIP3   OH253089   1.737   2.467  14.404  0.7091  0.5200  0.1024
10533TIP3    H153090   1.761   2.399  14.341  0.7645  1.4184 -0.8787
10533TIP3    H253091   1.655   2.436  14.442 -0.6394  1.0356 -2.1783
10534TIP3   OH253092   2.757   6.178   0.392  0.5449 -0.5531 -0.0115
10534TIP3    H153093   2.803   6.255   0.426  2.1279 -1.5100  0.0976
10534TIP3    H253094   2.705   6.146   0.467  2.4057 -1.4468  0.9605
10535TIP3   OH253095   3.126   2.804   4.174 -0.1403  0.8400  0.4855
10535TIP3    H153096   3.042   2.788   4.218  0.7296 -1.1237  1.5302
10535TIP3    H253097   3.145   2.722   4.128  1.2847  1.2028  0.4025
10536TIP3   OH253098   0.201   5.384  14.310 -0.6447  0.4517 -0.1136
10536TIP3    H153099   0.180   5.313  14.371 -0.5672  1.1003  0.6988
10536TIP3    H253100   0.284   5.419  14.344 -0.5732  0.7856 -0.6321
10537TIP3   OH253101   0.023   1.223  13.828 -0.3191  0.3357 -0.1343
10537TIP3    H153102   0.099   1.165  13.821 -0.2536  0.4031  0.0152
10537TIP3    H253103   0.048   1.287  13.894 -0.0116  1.1278 -0.9953
10538TIP3   OH253104   5.255   3.735   0.470 -0.8069 -0.4542 -0.1454
10538TIP3    H153105   5.286   3.692   0.549 -2.4139 -0.2286  0.6608
10538TIP3    H253106   5.220   3.664   0.416  1.2788 -0.7556 -1.2134
10539TIP3   OH253107   3.707   5.969  16.302  0.2699 -0.2972  0.5525
10539TIP3    H153108   3.648   5.963  16.228 -0.6188 -1.3306  1.3140
10539TIP3    H253109   3.745   5.881  16.310  0.5054 -0.1469  1.1949
10540TIP3   OH253110   3.001   3.522  16.952 -0.0796  0.1231 -0.5026
10540TIP3    H153111   3.015   3.440  16.904  0.2257 -0.5568  0.7002
10540TIP3    H253112   2.957   3.495  17.033 -2.2002  1.4312 -1.1352
10541TIP3   OH253113   4.806   4.209  13.872 -0.3726 -0.0452 -0.1878
10541TIP3    H153114   4.748   4.152  13.921 -0.2550 -0.9836 -1.1053
10541TIP3    H253115   4.760   4.293  13.869 -1.9052 -0.8685 -1.2343
10542TIP3   OH253116   2.737   5.910  12.306 -0.1462 -0.0679 -0.1845
10542TIP3    H153117   2.647   5.887  12.283  0.2291 -2.0721  0.1610
10542TIP3    H253118   2.769   5.963  12.233 -2.0683  2.0606  0.4049
10543TIP3   OH253119   2.020   1.929  13.131 -0.4262  0.0854 -0.1251
10543TIP3    H153120   1.979   1.934  13.217  0.8431 -1.7834  0.6410
10543TIP3    H253121   2.060   1.842  13.127  3.4506  1.6714 -0.7509
10544TIP3   OH253122   5.627   1.243  12.383 -0.2302 -0.0791 -0.1248
10544TIP3    H153123   5.655   1.284  12.301 -1.5670 -0.2091 -0.6662
10544TIP3    H253124   5.536   1.218  12.368 -0.7999  0.7261  1.7259
10545TIP3   OH253125   0.279   4.823  14.084  0.1897 -0.0177  0.5128
10545TIP3    H153126   0.321   4.758  14.140  0.0643  0.3127  0.9949
10545TIP3    H253127   0.185   4.810  14.099  0.0077 -1.8486 -1.7733
10546TIP3   OH253128   5.292   6.607   4.289  0.0794  0.1431 -0.2954
10546TIP3    H153129   5.326   6.536   4.235  0.9724  0.3869 -0.0742
10546TIP3    H253130   5.248   6.665   4.228 -1.0482 -0.8184 -0.4202
10547TIP3   OH253131   5.896   5.638  13.336  0.6044 -0.0754 -0.1839
10547TIP3    H153132   5.992   5.632  13.339  0.5875  0.0260  1.7211
10547TIP3    H253133   5.878   5.730  13.320  0.8261  0.0325  0.1856
10548TIP3   OH253134   0.303   5.257  12.485  0.0918  0.2812  0.4237
10548TIP3    H153135   0.324   5.186  12.547 -0.7509 -0.5157 -0.1677
10548TIP3    H253136   0.369   5.248  12.416 -0.2968 -0.2596  0.1076
10549TIP3   OH253137   2.584   4.655  11.206  0.1591 -0.1322 -0.1369
10549TIP3    H153138   2.586   4.648  11.301  0.7540 -0.4630 -0.1691
10549TIP3    H253139   2.558   4.569  11.175 -0.0110 -0.0324 -0.2769
10550TIP3   OH253140   5.031   2.409   1.589  0.2650  0.0533 -0.1812
10550TIP3    H153141   4.941   2.387   1.611  0.3575 -1.1755 -0.9798
10550TIP3    H253142   5.064   2.454   1.667 -0.9975  0.4525  0.1469
10551TIP3   OH253143   0.770   1.671  15.689  0.0654  0.0075  0.2693
10551TIP3    H153144   0.742   1.726  15.762 -3.1731  1.9381 -2.1229
10551TIP3    H253145   0.856   1.705  15.665  0.9616 -0.3040  2.7000
10552TIP3   OH253146   4.072   1.408  12.704  0.0487 -0.3269 -0.9158
10552TIP3    H153147   4.116   1.373  12.782 -2.1303 -1.8355 -0.2580
10552TIP3    H253148   4.059   1.332  12.648 -1.2749  0.1354 -1.2756
10553TIP3   OH253149   5.550   4.560   3.404 -0.4041  0.6983  0.2457
10553TIP3    H153150   5.581   4.585   3.317  4.1711  0.2889  1.4764
10553TIP3    H253151   5.516   4.471   3.394 -1.3888  1.2217 -1.3109
10554TIP3   OH253152   3.916   6.397   6.392  0.3449  0.8520  0.5879
10554TIP3    H153153   3.864   6.440   6.324 -1.0792  1.4105  1.9890
10554TIP3    H253154   4.006   6.428   6.376  0.2010  0.3759 -1.4700
10555TIP3   OH253155   4.421   6.480  13.454  0.4229 -1.1163  0.3141
10555TIP3    H153156   4.417   6.392  13.493  1.9865 -0.8721  1.0988
10555TIP3    H253157   4.432   6.464  13.360  2.1866 -1.8072  0.6074
10556TIP3   OH253158   5.538   3.608   3.647 -0.4062  0.2777 -0.9189
10556TIP3    H153159   5.609   3.605   3.583  0.9869  3.6714  0.1907
10556TIP3    H253160   5.458   3.612   3.594  0.4261 -0.6746 -2.3050
10557TIP3   OH253161   1.392   4.249  16.485  0.3623 -0.1699 -0.1734
10557TIP3    H153162   1.391   4.315  16.554  0.0036  0.2456 -0.5732
10557TIP3    H253163   1.410   4.298  16.405  0.7762 -0.6501 -0.3797
10558TIP3   OH253164   2.790   5.733  16.394 -0.0593  0.4320 -0.0780
10558TIP3    H153165   2.709   5.784  16.400 -0.3598 -0.1836  1.3685
10558TIP3    H253166   2.858   5.799  16.378 -0.7490  1.0223 -0.6279
10559TIP3   OH253167   1.250   3.361   2.297 -0.2931 -0.1019 -0.6877
10559TIP3    H153168   1.171   3.413   2.312 -2.1012 -2.8315 -0.0183
10559TIP3    H253169   1.219   3.283   2.252  2.4468 -0.2368 -2.5755
10560TIP3   OH253170   1.170   5.074  15.632  0.4682  0.0646  0.6375
10560TIP3    H153171   1.207   5.068  15.720  1.4904  0.5550  0.2612
10560TIP3    H253172   1.231   5.024  15.577  0.5676  0.8379  0.0153
10561TIP3   OH253173   3.200   2.282   0.105 -0.1926  0.4699 -0.5356
10561TIP3    H153174   3.145   2.230   0.047 -3.2596  0.3232  2.2023
10561TIP3    H253175   3.159   2.369   0.105  0.4539  0.7938  0.4261
10562TIP3   OH253176   1.353   2.137   1.053 -0.0995  0.1594  0.4426
10562TIP3    H153177   1.284   2.138   0.987  0.7264  0.1108 -0.4523
10562TIP3    H253178   1.375   2.230   1.066 -0.5935  0.2015  1.0228
10563TIP3   OH253179   0.042   6.556  16.777 -0.3081 -0.0288 -0.4741
10563TIP3    H153180   0.132   6.573  16.807 -1.5815  0.4060  3.7421
10563TIP3    H253181   0.029   6.462  16.794 -0.0763 -0.6408 -3.2086
10564TIP3   OH253182   0.147   1.911   2.834  0.4515 -0.1144  0.2440
10564TIP3    H153183   0.090   1.979   2.872 -1.8986 -0.2424 -2.7040
10564TIP3    H253184   0.123   1.831   2.881 -0.8880  0.1061 -0.0144
10565TIP3   OH253185   5.882   6.382   2.460  0.2450  0.1976  0.1359
10565TIP3    H153186   5.906   6.472   2.441 -0.8043  0.6070  0.6555
10565TIP3    H253187   5.880   6.377   2.556  0.0067 -0.2944  0.1092
10566TIP3   OH253188   1.674   1.666   1.245  0.1930 -0.2368 -0.1274
10566TIP3    H153189   1.738   1.667   1.174  0.1724 -0.2806 -0.1463
10566TIP3    H253190   1.589   1.662   1.201  0.0600  1.9649 -0.1914
10567TIP3   OH253191   1.651   2.852  15.087  0.7234 -0.2633 -0.2878
10567TIP3    H153192   1.660   2.943  15.116  2.3794  0.1673 -1.9772
10567TIP3    H253193   1.727   2.837  15.031  0.6310 -2.7880  0.1547
10568TIP3   OH253194   4.080   0.238   5.460 -0.0279  0.0283 -0.4633
10568TIP3    H153195   4.128   0.167   5.418  1.1191  1.2169 -1.2545
10568TIP3    H253196   4.148   0.291   5.502 -0.8425  0.7062  0.0304
10569TIP3   OH253197   5.729   5.914  11.878  0.6128  0.0682 -0.2216
10569TIP3    H153198   5.723   5.891  11.970  1.6872  0.1314 -0.1186
10569TIP3    H253199   5.673   5.851  11.833  0.3579 -0.1823  0.4409
10570TIP3   OH253200   4.034   4.794  13.728 -0.5287 -0.4158 -0.1575
10570TIP3    H153201   4.092   4.755  13.793  0.5318 -1.0200 -1.4151
10570TIP3    H253202   3.946   4.775  13.760 -0.0332 -0.7769  1.0419
10571TIP3   OH253203   2.472   4.748  15.945  0.7752  0.0350 -0.1715
10571TIP3    H153204   2.510   4.660  15.932 -1.6843 -1.2102  0.4651
10571TIP3    H253205   2.382   4.731  15.973  0.6961  2.7798  1.5384
10572TIP3   OH253206   5.649   3.458  14.366 -0.9768 -0.8051  0.4838
10572TIP3    H153207   5.607   3.374  14.346 -1.9286 -0.2549  0.0766
10572TIP3    H253208   5.743   3.439  14.368 -0.9477 -1.3933 -2.3597
10573TIP3   OH253209   2.347   6.001  16.361  0.0038 -0.6966  0.2007
10573TIP3    H153210   2.345   6.035  16.451 -1.0157  2.2254 -0.8449
10573TIP3    H253211   2.256   6.008  16.331  0.4168 -1.2153 -1.2309
10574TIP3   OH253212   2.476   2.236  14.216  0.1411  0.6821  0.1010
10574TIP3    H153213   2.529   2.271  14.144  0.6281 -1.1323 -0.4584
10574TIP3    H253214   2.430   2.313  14.250 -0.4763  1.5465 -2.4361
10575TIP3   OH253215   4.417   0.927   4.473 -0.2553 -0.1517  0.7807
10575TIP3    H153216   4.375   0.992   4.417  1.1219 -0.4855 -0.7052
10575TIP3    H253217   4.493   0.973   4.510  0.2467 -0.6562  0.3903
10576TIP3   OH253218   3.172   3.701   0.417  0.1602  0.0221 -0.5661
10576TIP3    H153219   3.166   3.772   0.480  0.0503 -1.6372  1.3978
10576TIP3    H253220   3.092   3.650   0.430  1.2167 -1.6643 -0.3448
10577TIP3   OH253221   0.534   5.150   0.553 -0.3928 -0.1050  0.0492
10577TIP3    H153222   0.485   5.069   0.568 -0.9042  0.5450  2.4623
10577TIP3    H253223   0.467   5.217   0.544 -0.0775 -0.0942 -4.2734
10578TIP3   OH253224   3.410   1.796  15.934 -0.3684 -0.2827  0.3557
10578TIP3    H153225   3.412   1.869  15.995  0.4729 -1.5882  1.9850
10578TIP3    H253226   3.495   1.798  15.891 -0.4265 -0.1850  0.2447
10579TIP3   OH253227   1.932   3.294  14.574  0.4262 -0.0164  0.4277
10579TIP3    H153228   1.919   3.251  14.658 -0.3456  1.3861  1.0585
10579TIP3    H253229   2.027   3.290  14.559  0.3018 -2.9891 -0.1698
10580TIP3   OH253230   5.274   3.682  14.786  0.2558  0.1980  0.2771
10580TIP3    H153231   5.244   3.591  14.784  0.9531 -0.1025  1.7828
10580TIP3    H253232   5.317   3.695  14.702 -1.2076 -0.3655 -0.5943
10581TIP3   OH253233   0.172   6.065  13.401  0.2066  0.5748 -0.8508
10581TIP3    H153234   0.140   6.000  13.339 -0.6981  0.3931 -0.2157
10581TIP3    H253235   0.113   6.139  13.390 -0.5872  0.1712  0.4554
10582TIP3   OH253236   0.963   5.834  15.850 -0.0087 -0.5059  0.6425
10582TIP3    H153237   0.915   5.775  15.793  1.2432 -0.2589 -0.7188
10582TIP3    H253238   0.940   5.806  15.939 -1.2045 -1.5430  0.0293
10583TIP3   OH253239   6.524   3.387  12.552 -0.0298 -0.6310  0.0710
10583TIP3    H153240   6.555   3.338  12.476 -0.1815 -1.2375  0.3932
10583TIP3    H253241   6.602   3.402  12.605  0.4293  1.4423 -1.0855
10584TIP3   OH253242   3.996   2.352   4.133 -0.0163  0.5866 -0.8772
10584TIP3    H153243   3.922   2.328   4.077  0.5563  4.7647 -3.9034
10584TIP3    H253244   4.069   2.299   4.100 -0.2894  1.1330 -2.4694
10585TIP3   OH253245   2.487   5.569   3.211  0.2598 -0.1306 -0.2120
10585TIP3    H153246   2.460   5.578   3.119 -0.5264  0.1677  0.0502
10585TIP3    H253247   2.492   5.474   3.225  0.0014 -0.1793 -0.4456
10586TIP3   OH253248   4.558   4.881   5.201  0.3812 -0.7940  0.1916
10586TIP3    H153249   4.531   4.962   5.159  0.5696 -0.3496  0.9196
10586TIP3    H253250   4.647   4.865   5.168 -0.3150 -1.6802 -1.3534
10587TIP3   OH253251   5.019   5.201  13.196 -0.1515  0.1004  0.6143
10587TIP3    H153252   4.981   5.168  13.115 -0.1988  0.7163  0.3820
10587TIP3    H253253   4.944   5.230  13.248 -0.3821 -2.7859  2.0518
10588TIP3   OH253254   1.547   2.338  12.315 -0.0318 -0.3977  0.1893
10588TIP3    H153255   1.563   2.386  12.397  0.4606  0.5630 -0.4428
10588TIP3    H253256   1.468   2.378  12.279 -0.5449 -1.1727  0.4416
10589TIP3   OH253257   4.645   2.360   4.493 -0.2237 -0.3803  0.1057
10589TIP3    H153258   4.591   2.377   4.571  0.9474  2.9855  0.3282
10589TIP3    H253259   4.734   2.379   4.522  0.0372  3.2761 -2.4791
10590TIP3   OH253260   2.043   5.460  14.951 -0.5273 -0.1381  0.0897
10590TIP3    H153261   2.048   5.551  14.979 -0.3777 -0.2708  0.5005
10590TIP3    H253262   1.967   5.457  14.893 -0.1614  0.3752 -0.4230
10591TIP3   OH253263   0.083   1.100  11.046  0.2347  0.2658 -0.4729
10591TIP3    H153264   0.093   1.005  11.048  0.3855  0.2794  2.0439
10591TIP3    H253265   0.014   1.119  11.109 -0.6430  1.7751 -1.8070
10592TIP3   OH253266   3.277   6.670  11.095 -0.0721  0.2277  0.1304
10592TIP3    H153267   3.364   6.677  11.053  0.1335  0.3749  0.5771
10592TIP3    H253268   3.296   6.644  11.185 -0.6520 -3.3831 -0.6462
10593TIP3   OH253269   3.566   1.153  14.646 -0.3902 -0.0909 -0.4356
10593TIP3    H153270   3.617   1.149  14.565  0.3147 -2.6293  0.0302
10593TIP3    H253271   3.624   1.194  14.710  0.0380 -0.4278 -0.6046
10594TIP3   OH253272   2.916   6.036   4.796 -0.2655  0.7750  0.6344
10594TIP3    H153273   2.830   6.059   4.831  0.6588  2.1895  2.0556
10594TIP3    H253274   2.946   5.963   4.850 -1.6626 -1.6567 -1.6145
10595TIP3   OH253275   1.793   3.703  14.075 -0.0008 -0.5173 -0.4703
10595TIP3    H153276   1.877   3.659  14.090 -0.1054 -0.3693  0.6525
10595TIP3    H253277   1.753   3.708  14.162 -0.7407  0.2860 -0.8465
10596TIP3   OH253278   5.149   2.505  11.094  0.0322 -0.0412 -0.1724
10596TIP3    H153279   5.080   2.534  11.033 -0.9659 -0.2569  0.8158
10596TIP3    H253280   5.229   2.545  11.060 -0.2434 -1.1721 -2.3486
10597TIP3   OH253281   0.510   3.892   5.561  0.5572  0.0287 -0.5085
10597TIP3    H153282   0.445   3.885   5.491  0.9673 -1.5050 -0.7625
10597TIP3    H253283   0.574   3.955   5.528 -0.5665  1.2774 -0.4111
10598TIP3   OH253284   5.983   2.291  12.651 -0.5398  0.1902  0.1494
10598TIP3    H153285   5.922   2.332  12.712  1.0299  4.0219 -0.5692
10598TIP3    H253286   5.928   2.267  12.576 -1.4789  1.9254  0.2321
10599TIP3   OH253287   0.042   0.718  11.779 -0.3946 -0.4103  0.2740
10599TIP3    H153288   0.132   0.742  11.757 -0.4623 -0.0082  0.4141
10599TIP3    H253289   0.011   0.790  11.835 -1.3641  0.3155 -1.1375
10600TIP3   OH253290   6.632   0.605   2.075  0.4640 -0.4700 -0.0192
10600TIP3    H153291   6.569   0.557   2.128  0.2976 -0.5145 -0.2564
10600TIP3    H253292   6.687   0.537   2.036  1.2037 -0.3966  0.8572
10601TIP3   OH253293   5.015   6.769  16.913 -0.0694  0.2858 -1.1426
10601TIP3    H153294   4.987   6.808  16.996  1.1151  1.5206 -1.2782
10601TIP3    H253295   5.107   6.746  16.928 -0.2820 -0.9047 -1.6296
10602TIP3   OH253296   2.002   6.765   2.295 -0.4285 -0.3287 -0.0195
10602TIP3    H153297   1.948   6.693   2.327  0.4306 -1.5322 -1.1972
10602TIP3    H253298   2.087   6.726   2.275 -0.2320  0.7765 -1.6165
10603TIP3   OH253299   3.776   5.107  15.653  0.2685 -0.3911  0.4452
10603TIP3    H153300   3.721   5.064  15.586  1.2189 -1.2191  0.1768
10603TIP3    H253301   3.739   5.078  15.736  0.2528 -0.8976  0.2662
10604TIP3   OH253302   0.278   4.157  15.651  0.3011 -0.5660 -0.4229
10604TIP3    H153303   0.303   4.121  15.567 -0.2926 -1.2099 -0.3385
10604TIP3    H253304   0.342   4.226  15.669  3.2900 -3.4126  0.7375
10605TIP3   OH253305   2.584   5.022   1.920 -0.4999  0.6138 -0.1413
10605TIP3    H153306   2.631   5.087   1.973  0.6352  0.5859 -1.0571
10605TIP3    H253307   2.631   5.022   1.837 -0.5456 -1.3030 -0.1997
10606TIP3   OH253308   4.498   0.726   3.398 -0.0588 -0.2496  1.0039
10606TIP3    H153309   4.441   0.788   3.444 -0.0276  0.5867 -0.0181
10606TIP3    H253310   4.574   0.779   3.371 -0.3628 -0.5265 -0.5138
10607TIP3   OH253311   4.158   1.760  11.138 -0.2596 -0.3651 -0.1387
10607TIP3    H153312   4.187   1.803  11.218 -0.4573 -0.6495  0.0854
10607TIP3    H253313   4.199   1.810  11.067  2.3992 -1.9162  0.1975
10608TIP3   OH253314   3.277   4.717   0.451 -0.0374  0.0390  0.3848
10608TIP3    H153315   3.212   4.664   0.498  1.8524 -0.5864  2.4518
10608TIP3    H253316   3.225   4.780   0.403 -2.2157 -0.7959  1.4818
10609TIP3   OH253317   5.473   3.289   3.832  0.0195  0.2577  0.2953
10609TIP3    H153318   5.473   3.211   3.777 -0.1732  0.1565  0.4366
10609TIP3    H253319   5.381   3.313   3.840 -0.0728 -0.4222  1.5339
10610TIP3   OH253320   4.183   6.068   1.649 -0.1865 -0.2651  0.1295
10610TIP3    H153321   4.240   6.142   1.629  1.7627 -0.9772  2.5385
10610TIP3    H253322   4.221   5.994   1.602 -0.1499 -0.3857  0.3448
10611TIP3   OH253323   6.231   0.944  12.999  0.4626  0.5375  0.1415
10611TIP3    H153324   6.206   1.011  12.935  0.0948  1.1271  0.8954
10611TIP3    H253325   6.298   0.985  13.053  1.1903 -0.1541 -0.2087
10612TIP3   OH253326   2.865   3.719   6.940  0.1669 -0.6722  0.2770
10612TIP3    H153327   2.824   3.791   6.892  0.4684 -1.4531 -1.2117
10612TIP3    H253328   2.883   3.653   6.873  3.3573 -0.6071  0.8893
10613TIP3   OH253329   1.425   2.799  14.306 -0.4441 -0.2289  0.0027
10613TIP3    H153330   1.366   2.725  14.289 -0.9145  0.6149 -2.4555
10613TIP3    H253331   1.423   2.850  14.225  1.7141  1.2133  0.7734
10614TIP3   OH253332   1.433   6.689  10.470 -0.4692 -0.0561 -0.0857
10614TIP3    H153333   1.504   6.726  10.417 -0.2832 -1.4289 -0.8341
10614TIP3    H253334   1.354   6.733  10.439 -0.1010  0.5800 -0.1273
10615TIP3   OH253335   4.609   3.562  13.548 -0.2079 -1.1308  0.3851
10615TIP3    H153336   4.539   3.505  13.579  0.6671 -1.8759  1.0259
10615TIP3    H253337   4.643   3.520  13.470 -1.0520 -0.3028 -0.4551
10616TIP3   OH253338   0.643   5.504  14.769  0.3222  0.1813  0.4049
10616TIP3    H153339   0.718   5.478  14.716 -0.0534  0.2644 -0.1669
10616TIP3    H253340   0.621   5.592  14.738 -1.1294 -0.5298 -0.6818
10617TIP3   OH253341   3.952   6.196   0.005  0.6249  0.0791  0.2017
10617TIP3    H153342   3.899   6.158   0.076 -0.9138  1.3698 -0.2101
10617TIP3    H253343   3.918   6.285  -0.005  2.0976  0.5461 -0.9060
10618TIP3   OH253344   6.429   6.642   3.094 -0.2236 -0.8118 -0.1818
10618TIP3    H153345   6.402   6.734   3.090 -1.3303 -1.0228  1.2765
10618TIP3    H253346   6.518   6.641   3.059 -0.3003  0.7575 -0.4983
10619TIP3   OH253347   4.463   5.879  15.897 -0.6190  0.0110  1.0535
10619TIP3    H153348   4.368   5.875  15.904 -0.7820 -1.0472 -0.8372
10619TIP3    H253349   4.490   5.787  15.897  0.0043  0.1015 -1.8254
10620TIP3   OH253350   6.609   4.992  14.255 -0.5661 -0.5606 -1.0238
10620TIP3    H153351   6.664   5.032  14.188 -0.4126  2.4226  0.7354
10620TIP3    H253352   6.668   4.934  14.303  0.8923  1.6632  0.0608
10621TIP3   OH253353   4.632   5.512  15.492  0.4120 -0.4054 -0.1988
10621TIP3    H153354   4.653   5.490  15.582  0.2250  2.0529  0.5185
10621TIP3    H253355   4.539   5.532  15.493  0.5775  0.4514 -0.7281
10622TIP3   OH253356   1.011   5.016   0.863  0.1863  0.3260 -0.0145
10622TIP3    H153357   1.031   5.090   0.920  0.3926  0.2456  0.0228
10622TIP3    H253358   1.072   5.025   0.790  1.5141 -0.8100  0.8918
10623TIP3   OH253359   1.281   0.528  11.670  0.4312  0.2010 -0.0424
10623TIP3    H153360   1.213   0.572  11.721  2.5609  0.8006  2.4263
10623TIP3    H253361   1.258   0.435  11.675 -1.9043  0.5565 -1.9986
10624TIP3   OH253362   5.773   0.272  16.283 -0.2246  0.7568 -0.0730
10624TIP3    H153363   5.760   0.359  16.245 -0.1804  0.5297 -0.6118
10624TIP3    H253364   5.859   0.244  16.252  0.2500  0.9675  0.9877
10625TIP3   OH253365   4.191   1.308  14.445 -0.2912 -0.1073  0.4763
10625TIP3    H153366   4.250   1.293  14.371 -1.6157 -1.7442 -0.3169
10625TIP3    H253367   4.229   1.257  14.516 -0.2186 -0.3815  0.2459
10626TIP3   OH253368   3.137   2.209  13.037 -0.3635  0.7213 -0.2456
10626TIP3    H153369   3.223   2.212  13.078 -0.5436  2.4003  0.0586
10626TIP3    H253370   3.080   2.169  13.102  0.0981 -0.0990 -0.3275
10627TIP3   OH253371   6.292   4.669   0.113  0.0385  0.0541 -0.3036
10627TIP3    H153372   6.335   4.731   0.173 -0.1463  0.0578 -0.1736
10627TIP3    H253373   6.278   4.720   0.033 -0.1298  0.1867 -0.1909
10628TIP3   OH253374   0.705   2.985   0.046 -0.4297  0.0991 -0.1331
10628TIP3    H153375   0.759   3.033   0.109 -0.7303  0.5293 -0.1962
10628TIP3    H253376   0.633   3.045   0.026  0.2568  0.4564 -1.7421
10629TIP3   OH253377   5.253   3.905   5.396 -0.4439  0.2466  0.2942
10629TIP3    H153378   5.217   3.820   5.372  2.5659 -1.2478  0.5496
10629TIP3    H253379   5.192   3.969   5.359 -1.6542 -2.0025 -1.8851
10630TIP3   OH253380   5.417   0.430   2.757 -0.4545 -0.3131 -0.1494
10630TIP3    H153381   5.511   0.443   2.770 -0.4903  0.1236 -0.3258
10630TIP3    H253382   5.377   0.476   2.830 -0.5255 -0.7194  0.0725
10631TIP3   OH253383   5.992   2.821   0.291 -0.6116  0.0369 -0.2405
10631TIP3    H153384   6.061   2.849   0.232 -0.9181 -0.7469 -0.9857
10631TIP3    H253385   5.918   2.800   0.234 -1.3056  0.3715  0.5034
10632TIP3   OH253386   1.796   6.775  15.311 -0.7876  0.0931 -0.0511
10632TIP3    H153387   1.780   6.768  15.217  0.4385  0.4298 -0.3023
10632TIP3    H253388   1.835   6.862  15.322 -0.3425 -0.1869  0.6697
10633TIP3   OH253389   4.996   1.522   0.133 -0.2730 -0.7101  0.3662
10633TIP3    H153390   5.074   1.487   0.090 -1.1754 -1.2149 -0.9229
10633TIP3    H253391   5.019   1.613   0.153  0.6323 -0.8441 -0.0093
10634TIP3   OH253392   5.615   3.027   0.603  0.4725 -0.2298 -0.1045
10634TIP3    H153393   5.580   3.001   0.688  0.0554 -2.9746 -1.0372
10634TIP3    H253394   5.618   2.946   0.551  0.3391  1.3814 -2.8507
10635TIP3   OH253395   6.715   4.523   0.529  0.3097  0.2167  0.0620
10635TIP3    H153396   6.770   4.531   0.607  1.3435 -0.2039 -0.6001
10635TIP3    H253397   6.717   4.610   0.489  0.8424  0.1004 -0.1754
10636TIP3   OH253398   1.621   0.170  15.792  0.4677 -0.1381 -0.4610
10636TIP3    H153399   1.622   0.202  15.882 -1.4254 -0.9166 -0.1086
10636TIP3    H253400   1.552   0.103  15.791  1.5658 -1.3098 -2.1117
10637TIP3   OH253401   6.451   0.485  16.962  0.0598 -0.2037  0.2856
10637TIP3    H153402   6.482   0.527  17.042  0.0645 -1.7693  1.1438
10637TIP3    H253403   6.529   0.472  16.908  0.4733 -1.4456  1.1531
10638TIP3   OH253404   0.170   4.043   3.013 -0.2106  0.0471  0.0788
10638TIP3    H153405   0.241   4.004   2.963 -1.2182 -1.7684 -0.0308
10638TIP3    H253406   0.090   4.017   2.967 -1.0843 -0.2200  1.6460
10639TIP3   OH253407   2.437   1.233   3.825  0.0521  0.1305 -0.8238
10639TIP3    H153408   2.444   1.138   3.817 -0.7813 -0.0872  0.7427
10639TIP3    H253409   2.346   1.252   3.799  0.6427  0.7088 -2.6179
10640TIP3   OH253410   5.954   2.627   1.433  0.5282  0.2678  0.1060
10640TIP3    H153411   5.870   2.594   1.465  0.7168 -0.2412  0.0854
10640TIP3    H253412   5.968   2.579   1.351 -0.8381  2.8328 -1.7804
10641TIP3   OH253413   4.638   1.216   3.247 -0.3256 -0.3486  0.3625
10641TIP3    H153414   4.552   1.174   3.253 -1.0351  1.0228  0.1957
10641TIP3    H253415   4.636   1.285   3.313 -0.2995  1.2475 -1.1953
10642TIP3   OH253416   5.231   6.327   7.007  0.5322 -0.3818 -0.2673
10642TIP3    H153417   5.176   6.397   7.044  0.4809 -1.3537  1.5939
10642TIP3    H253418   5.315   6.369   6.991  0.6038  0.0760  1.1383
10643TIP3   OH253419   6.589   6.347  16.550  0.0548  0.1887  0.0902
10643TIP3    H153420   6.586   6.432  16.506  1.9687 -0.3079 -1.1456
10643TIP3    H253421   6.551   6.286  16.487 -0.1325 -0.0596  0.4389
10644TIP3   OH253422   4.798   5.560  13.513  0.2744  0.1377  0.4994
10644TIP3    H153423   4.869   5.542  13.575  0.8607 -1.7069 -0.6194
10644TIP3    H253424   4.799   5.655  13.501  1.6520  0.2750  1.5415
10645TIP3   OH253425   2.951   4.640   1.313  0.0174 -0.5716 -0.1295
10645TIP3    H153426   2.930   4.633   1.220 -1.2543  1.8751 -0.0994
10645TIP3    H253427   2.870   4.670   1.354  1.4906  2.0066  1.1650
10646TIP3   OH253428   5.377   0.026  14.634  0.0189  0.1262 -0.1890
10646TIP3    H153429   5.340   0.100  14.681  1.8696  1.8117 -1.2441
10646TIP3    H253430   5.424  -0.024  14.702  0.6696  1.2085  0.1816
10647TIP3   OH253431   1.546   1.570  15.237  0.0158 -0.4519 -0.7085
10647TIP3    H153432   1.598   1.618  15.173  0.9146 -1.2469 -0.6053
10647TIP3    H253433   1.456   1.578  15.206  0.4853 -1.2859 -2.3938
10648TIP3   OH253434   6.280   6.045   5.539  0.0880  0.0132  0.5794
10648TIP3    H153435   6.187   6.021   5.537  0.4874 -1.6344 -0.1317
10648TIP3    H253436   6.326   5.962   5.554  1.3908  1.1180  3.3725
10649TIP3   OH253437   5.015   6.387   4.989  0.5520 -0.2295  0.9245
10649TIP3    H153438   4.939   6.380   4.931 -1.0977 -0.8955  3.0578
10649TIP3    H253439   5.073   6.449   4.944 -1.7723  1.2606 -0.2323
10650TIP3   OH253440   1.097   0.821   5.306  0.1566 -0.0119  0.5103
10650TIP3    H153441   1.085   0.896   5.248  1.8533  1.1126  1.5238
10650TIP3    H253442   1.015   0.815   5.355  0.0902  1.3684  0.6101
10651TIP3   OH253443   3.817   1.302   0.150 -0.0233 -0.2259  0.5140
10651TIP3    H153444   3.891   1.245   0.169 -1.0374 -1.4310  1.0323
10651TIP3    H253445   3.769   1.256   0.081  0.5502  1.3234 -0.9631
10652TIP3   OH253446   5.696   6.443  10.762 -0.3304  0.3166 -0.6676
10652TIP3    H153447   5.619   6.394  10.733 -1.2210  1.1973  0.1300
10652TIP3    H253448   5.721   6.401  10.844 -0.2086  0.2994 -0.7134
10653TIP3   OH253449   5.205   2.452   4.427 -0.0217  0.7258  0.2300
10653TIP3    H153450   5.178   2.543   4.442  0.1624  0.5919  1.4942
10653TIP3    H253451   5.300   2.452   4.441  0.3647  0.7547 -2.0018
10654TIP3   OH253452   2.051   0.265   1.781  0.1790  0.5748 -0.7325
10654TIP3    H153453   2.090   0.349   1.805 -0.0559  0.4533  0.0737
10654TIP3    H253454   2.121   0.219   1.734  1.2219  0.1447  1.1369
10655TIP3   OH253455   4.531   6.479   2.068  0.6350 -0.3003 -0.6372
10655TIP3    H153456   4.439   6.496   2.044 -0.1435 -1.5456  1.2632
10655TIP3    H253457   4.542   6.385   2.053  0.1173 -1.1807  3.4217
10656TIP3   OH253458   5.180   2.101  11.795  0.4431 -0.1250 -0.4006
10656TIP3    H153459   5.198   2.119  11.702  2.5442 -1.3083 -0.2767
10656TIP3    H253460   5.175   2.006  11.801  0.4486 -0.0701  0.7342
10657TIP3   OH253461   0.774   4.294   0.227  0.0424  0.6138  0.2234
10657TIP3    H153462   0.831   4.319   0.154 -0.2310 -1.1785 -0.6735
10657TIP3    H253463   0.728   4.374   0.250  1.3121  1.5962 -0.4979
10658TIP3   OH253464   0.360   4.691  15.817 -0.7859  0.3957 -0.2443
10658TIP3    H153465   0.285   4.750  15.811 -0.3963  0.8036 -1.2863
10658TIP3    H253466   0.408   4.704  15.735  0.5362  0.3036  0.4838
10659TIP3   OH253467   6.789   3.906   1.306  0.2587 -0.1040  0.1349
10659TIP3    H153468   6.876   3.943   1.293  0.8034 -1.5826 -0.7553
10659TIP3    H253469   6.775   3.851   1.228 -1.0209 -0.7137  0.7661
10660TIP3   OH253470   2.456   2.803  11.935 -0.4052  0.1403  0.3248
10660TIP3    H153471   2.448   2.712  11.961 -3.1763 -0.5747 -2.4075
10660TIP3    H253472   2.438   2.803  11.841 -0.8676  3.5391  0.2764
10661TIP3   OH253473   5.179   6.510  16.424 -0.2510  0.0326  0.2651
10661TIP3    H153474   5.129   6.441  16.467 -0.8040  0.0193 -0.3891
10661TIP3    H253475   5.216   6.469  16.346 -1.6752  0.7891 -0.8492
10662TIP3   OH253476   2.468   6.281   1.346  0.4120 -0.0908  0.9093
10662TIP3    H153477   2.439   6.372   1.346 -0.1313 -0.2193 -1.0941
10662TIP3    H253478   2.392   6.231   1.317  1.4915 -0.8616 -0.7212
10663TIP3   OH253479   5.704   1.145   2.357 -0.0503 -0.5335  0.7552
10663TIP3    H153480   5.769   1.165   2.291 -0.3640 -0.4301  0.4758
10663TIP3    H253481   5.755   1.127   2.436  0.4141 -2.1663  0.1246
10664TIP3   OH253482   4.767   3.378  14.718  0.0483 -0.0290 -0.2420
10664TIP3    H153483   4.711   3.333  14.655 -1.0610  0.8529  0.0690
10664TIP3    H253484   4.707   3.403  14.789  0.7517  1.2694 -0.0707
10665TIP3   OH253485   5.000   5.873  15.646 -0.8098 -0.0808  0.4310
10665TIP3    H153486   4.996   5.783  15.678 -1.1652  0.0950  0.8957
10665TIP3    H253487   4.911   5.891  15.614 -0.4814 -0.2331 -0.6205
10666TIP3   OH253488   4.050   1.383   0.474  0.0057  0.2231  0.1302
10666TIP3    H153489   4.129   1.377   0.419 -0.9951 -0.6339 -1.2819
10666TIP3    H253490   4.020   1.473   0.461 -0.2798  0.0014 -0.8548
10667TIP3   OH253491   4.012   2.302   4.784  0.2492  0.3637  0.3560
10667TIP3    H153492   3.977   2.367   4.723 -0.4190  0.5690  0.9394
10667TIP3    H253493   3.984   2.333   4.871 -0.7041 -1.0615  0.6033
10668TIP3   OH253494   4.944   2.940  17.034  0.0580 -0.4742  0.2466
10668TIP3    H153495   4.869   2.998  17.045  0.6325  0.1818  0.7662
10668TIP3    H253496   4.906   2.852  17.032 -0.8106 -0.0934 -0.5043
10669TIP3   OH253497   1.887   2.517   6.100  0.3036  0.2523 -0.2112
10669TIP3    H153498   1.927   2.553   6.021  0.3906  1.2744  0.2738
10669TIP3    H253499   1.796   2.549   6.097 -0.2655 -1.3550 -0.8871
10670TIP3   OH253500   6.619   1.288  13.913 -0.1023  0.6039  0.1477
10670TIP3    H153501   6.621   1.361  13.975  1.7263 -0.0583  0.9589
10670TIP3    H253502   6.710   1.278  13.885 -0.4415 -0.8815 -0.5340
10671TIP3   OH253503   0.702   2.849   3.949 -0.4762 -0.1693  0.5166
10671TIP3    H153504   0.720   2.800   4.029 -0.7932  0.0390  0.7183
10671TIP3    H253505   0.663   2.931   3.980  2.2604  1.3214  0.3477
10672TIP3   OH253506   1.421   2.363   2.713  0.0387  0.4622 -0.0964
10672TIP3    H153507   1.459   2.303   2.650  0.4511  0.4747  0.1375
10672TIP3    H253508   1.408   2.445   2.665 -0.9265  0.0689 -0.5349
10673TIP3   OH253509   6.307   4.327   1.145  0.7489 -0.4382  0.1043
10673TIP3    H153510   6.302   4.278   1.226  0.9547 -1.1746 -0.3212
10673TIP3    H253511   6.288   4.417   1.170  3.0977 -0.2128  1.3674
10674TIP3   OH253512   0.706   6.622  14.657  0.6007  0.6939 -0.4559
10674TIP3    H153513   0.621   6.626  14.700  0.7636 -1.4325  0.1769
10674TIP3    H253514   0.687   6.642  14.565 -0.8818 -1.1472 -0.6249
10675TIP3   OH253515   1.417   4.368  16.219 -0.0777 -0.0392 -0.1799
10675TIP3    H153516   1.494   4.316  16.197 -0.9572 -0.9837 -1.1701
10675TIP3    H253517   1.358   4.357  16.144  0.1130  3.3081 -0.9971
10676TIP3   OH253518   1.984   1.697  11.664 -0.7304  0.2719  0.1671
10676TIP3    H153519   2.018   1.667  11.580 -1.1047 -1.6823  0.6756
10676TIP3    H253520   2.042   1.657  11.729 -1.5427  0.2741  0.9010
10677TIP3   OH253521   3.060   5.357   0.265 -0.8659 -0.0255  0.1780
10677TIP3    H153522   2.968   5.337   0.249 -1.0603  0.4827  0.6212
10677TIP3    H253523   3.064   5.453   0.266 -0.4995 -0.0440  1.0836
10678TIP3   OH253524   2.278   0.618  10.931  0.6864 -0.0295  0.1790
10678TIP3    H153525   2.278   0.711  10.954 -1.9825  0.6879 -2.0675
10678TIP3    H253526   2.351   0.608  10.870 -0.1110  1.1406 -1.0471
10679TIP3   OH253527   0.869   6.285  15.544  0.9658  0.3424 -0.2556
10679TIP3    H153528   0.917   6.262  15.465  1.2448 -1.8969  0.5148
10679TIP3    H253529   0.846   6.202  15.585  1.2306  1.4017  2.2818
10680TIP3   OH253530   5.637   4.785  12.305  0.2347 -0.1790  0.1148
10680TIP3    H153531   5.730   4.806  12.316  0.0327  0.9230 -0.1953
10680TIP3    H253532   5.637   4.697  12.267  1.2743  0.9702 -2.8140
10681TIP3   OH253533   5.902   5.625  11.508  0.2983  0.3610  0.2217
10681TIP3    H153534   5.860   5.683  11.445  0.4381  0.3464  0.1137
10681TIP3    H253535   5.919   5.680  11.584 -0.3213  0.2582  0.4411
10682TIP3   OH253536   1.128   2.118  13.994 -0.4830 -0.4323 -0.2274
10682TIP3    H153537   1.104   2.063  14.068  1.0646  0.8425  1.2972
10682TIP3    H253538   1.112   2.064  13.917  0.5417 -2.8418  1.1566
10683TIP3   OH253539   1.838   4.765   1.183 -0.6159 -0.3880 -0.0701
10683TIP3    H153540   1.761   4.721   1.148 -0.7854 -1.4117  1.4723
10683TIP3    H253541   1.812   4.794   1.271  0.7079 -0.6691  0.4521
10684TIP3   OH253542   5.144   5.110  11.459 -0.3550 -0.6944 -0.4860
10684TIP3    H153543   5.230   5.151  11.471 -0.0144 -1.4034 -0.4293
10684TIP3    H253544   5.122   5.077  11.545 -0.8919 -0.1373 -0.4046
10685TIP3   OH253545   6.491   0.341   0.713  0.3204  0.4325  0.3476
10685TIP3    H153546   6.563   0.278   0.724 -0.5521 -0.6779 -0.0813
10685TIP3    H253547   6.521   0.399   0.643  0.3084 -0.7802 -0.6943
10686TIP3   OH253548   1.306   3.242   1.522  0.4768  0.8603  0.2360
10686TIP3    H153549   1.296   3.150   1.549 -0.6436  0.1811 -2.1833
10686TIP3    H253550   1.400   3.259   1.529  0.7357 -0.5331  0.5169
10687TIP3   OH253551   6.206   0.810  11.982  0.5042 -0.3133  0.3498
10687TIP3    H153552   6.120   0.789  12.018  0.5489  0.3107  0.8430
10687TIP3    H253553   6.250   0.725  11.975 -0.5936 -0.7909 -1.1165
10688TIP3   OH253554   4.751   4.048  14.255 -0.0894 -0.1244 -0.1399
10688TIP3    H153555   4.813   4.104  14.301  1.1599 -1.5209 -0.0523
10688TIP3    H253556   4.757   3.964  14.300 -0.1556 -1.0144 -1.7281
10689TIP3   OH253557   6.677   1.088  11.304  0.3863 -0.7530 -0.2170
10689TIP3    H153558   6.658   1.177  11.272 -0.4683 -0.5816  0.7202
10689TIP3    H253559   6.600   1.064  11.355  1.8343 -0.8253  2.0998
10690TIP3   OH253560   0.618   6.515   2.358 -0.4146  0.3790  0.9652
10690TIP3    H153561   0.671   6.437   2.376 -0.3896 -0.0232 -0.7301
10690TIP3    H253562   0.682   6.583   2.338 -0.4139 -0.5730 -2.9896
10691TIP3   OH253563   3.024   2.081   5.559  0.4190 -0.3607  0.3901
10691TIP3    H153564   2.996   2.012   5.499  0.9069 -0.3769  0.1821
10691TIP3    H253565   3.061   2.149   5.503  1.8054 -0.8084  0.7358
10692TIP3   OH253566   4.130   4.705   2.568 -0.4000 -0.2763  0.2525
10692TIP3    H153567   4.198   4.675   2.628 -0.2950  0.5190  0.5463
10692TIP3    H253568   4.084   4.774   2.617 -0.4852  0.1929 -0.4805
10693TIP3   OH253569   2.599   5.840   4.790 -0.7165  0.2011 -0.1206
10693TIP3    H153570   2.586   5.933   4.771 -1.3676  0.0786 -0.2763
10693TIP3    H253571   2.544   5.794   4.727 -1.3799 -0.2629  0.7720
10694TIP3   OH253572   4.791   4.615   4.441  0.1063 -0.6906 -0.1008
10694TIP3    H153573   4.730   4.687   4.425 -0.1090 -0.8287  0.0885
10694TIP3    H253574   4.756   4.571   4.519 -0.6929 -1.9853 -1.1592
10695TIP3   OH253575   1.680   1.759  15.998  0.5924  0.2613  0.3851
10695TIP3    H153576   1.775   1.753  16.006  0.6252 -2.1076 -1.0315
10695TIP3    H253577   1.663   1.744  15.905 -1.2435 -0.6538  0.8334
10696TIP3   OH253578   0.332   0.582   4.920  0.3102 -0.0477 -0.2008
10696TIP3    H153579   0.360   0.511   4.862 -1.0265 -1.6078  0.9772
10696TIP3    H253580   0.379   0.565   5.002 -0.3703  0.1634  0.2348
10697TIP3   OH253581   5.044   0.077  14.300  0.3026 -0.0716 -0.5700
10697TIP3    H153582   5.050  -0.011  14.264  0.2951 -0.0634 -0.5907
10697TIP3    H253583   5.007   0.129  14.230  0.6533  0.0239 -0.6902
10698TIP3   OH253584   3.081   0.031  12.868 -0.0472  0.1699  0.6608
10698TIP3    H153585   3.124  -0.031  12.809 -0.3994  0.2609  0.2952
10698TIP3    H253586   2.987   0.010  12.860 -0.2378  1.1723  0.0112
10699TIP3   OH253587   1.433   2.654   2.085  0.6284  0.0018  0.1299
10699TIP3    H153588   1.451   2.674   2.177  0.3463 -4.4010  1.3650
10699TIP3    H253589   1.359   2.593   2.087  0.1803  0.2575 -3.1076
10700TIP3   OH253590   3.518   6.304   4.178  0.0464  0.0990 -0.3721
10700TIP3    H153591   3.589   6.241   4.168  1.6218  1.1507  2.8031
10700TIP3    H253592   3.533   6.369   4.109 -0.6196 -1.9810 -2.6167
10701TIP3   OH253593   1.119   0.518   4.529  0.4723  0.1308 -0.3037
10701TIP3    H153594   1.138   0.431   4.566  1.7219  0.3173 -0.4547
10701TIP3    H253595   1.095   0.571   4.604  0.3847 -0.1679 -0.1172
10702TIP3   OH253596   0.308   1.355   0.720  0.3390  0.0729 -0.0129
10702TIP3    H153597   0.218   1.358   0.689 -0.9560  4.5473  3.1387
10702TIP3    H253598   0.304   1.302   0.800  0.8472 -0.7863 -0.5428
10703TIP3   OH253599   1.736   6.061  16.548 -0.9100 -0.1740 -0.0652
10703TIP3    H153600   1.729   6.124  16.476  1.6025 -1.1172 -1.2632
10703TIP3    H253601   1.809   6.094  16.601 -2.1635  0.0213  1.6032
10704TIP3   OH253602   3.364   0.739   5.729 -0.1775 -0.5788 -0.8327
10704TIP3    H153603   3.348   0.665   5.670  1.4515 -1.6634  0.0090
10704TIP3    H253604   3.423   0.796   5.680  2.0970 -2.0358  0.0673
10705TIP3   OH253605   1.648   4.881   1.969 -0.2890  0.1979  0.5787
10705TIP3    H153606   1.698   4.949   1.924  0.5410 -0.7680 -0.0205
10705TIP3    H253607   1.557   4.905   1.957 -0.0034  1.4856  0.8490
10706TIP3   OH253608   1.489   4.719  10.888 -0.1331 -0.0852  0.0934
10706TIP3    H153609   1.572   4.703  10.843 -1.5704 -0.7777 -2.5741
10706TIP3    H253610   1.452   4.796  10.843 -1.2386 -0.2090  0.7375
10707TIP3   OH253611   5.079   5.422   4.167  0.2240 -0.7125 -0.0045
10707TIP3    H153612   5.059   5.365   4.242 -0.7264  0.0296  0.3325
10707TIP3    H253613   5.020   5.392   4.098  0.5810 -0.9180 -0.2216
10708TIP3   OH253614   6.854   4.571  11.585  0.1969  0.2253 -0.1178
10708TIP3    H153615   6.846   4.506  11.515  1.7320  0.6040 -0.7024
10708TIP3    H253616   6.924   4.537  11.641  0.5222  1.0154 -0.0355
10709TIP3   OH253617   4.303   2.822  12.983  0.6051 -0.0734 -0.9474
10709TIP3    H153618   4.315   2.815  13.077  0.9453  2.0338 -0.8074
10709TIP3    H253619   4.280   2.733  12.956 -2.0075 -0.2552  1.4500
10710TIP3   OH253620   0.055   1.759   0.649  1.0794 -0.3619  0.0362
10710TIP3    H153621   0.003   1.729   0.724  0.8886  1.7186  0.7905
10710TIP3    H253622  -0.009   1.786   0.584  1.2270  0.5496  0.2669
10711TIP3   OH253623   6.107   4.136   5.548  0.0773  0.0124  0.2190
10711TIP3    H153624   6.052   4.084   5.606 -0.6157  1.2152  0.6806
10711TIP3    H253625   6.169   4.073   5.510 -0.1975 -0.9831  1.3767
10712TIP3   OH253626   0.302   0.315   4.419  0.2995 -0.7205 -0.5636
10712TIP3    H153627   0.392   0.345   4.414  0.7636 -1.9707 -0.1510
10712TIP3    H253628   0.308   0.228   4.459 -1.1163 -0.6786 -0.1996
10713TIP3   OH253629   6.716   6.755  16.732 -0.5534  0.6811 -0.0126
10713TIP3    H153630   6.788   6.692  16.736 -0.9846  0.2390  1.6196
10713TIP3    H253631   6.668   6.732  16.653 -0.3090 -0.6293  0.1983
10714TIP3   OH253632   4.853   4.886   4.809 -0.2550  0.2684 -0.0799
10714TIP3    H153633   4.760   4.866   4.796 -0.5626  2.2511 -1.2370
10714TIP3    H253634   4.893   4.800   4.823 -1.8512 -0.9468 -2.2522
10715TIP3   OH253635   2.667   6.392  12.733 -0.1830 -0.2242 -0.3624
10715TIP3    H153636   2.599   6.459  12.724  0.0688  0.3253  1.4769
10715TIP3    H253637   2.667   6.347  12.648 -1.0510  1.4285 -1.2977
10716TIP3   OH253638   6.244   1.779   2.396  0.3087  0.0290  0.1299
10716TIP3    H153639   6.238   1.864   2.353  0.9208  1.4988  2.7177
10716TIP3    H253640   6.229   1.798   2.489  1.2811 -2.5563  0.9140
10717TIP3   OH253641   6.312   2.497   2.978  0.6413 -0.2018  0.3125
10717TIP3    H153642   6.232   2.445   2.967  0.2916  0.4701 -0.4150
10717TIP3    H253643   6.293   2.555   3.052  1.1622 -1.3119  1.3600
10718TIP3   OH253644   5.192   5.792   6.129 -0.3115 -0.0845 -0.1008
10718TIP3    H153645   5.257   5.730   6.161 -1.0009 -1.0998 -0.6421
10718TIP3    H253646   5.158   5.835   6.208  1.7803  1.2952  0.1428
10719TIP3   OH253647   6.723   4.145  13.308  0.4479 -0.8688  0.0321
10719TIP3    H153648   6.712   4.149  13.213  0.6709 -2.5464 -0.0910
10719TIP3    H253649   6.636   4.162  13.343 -0.0331 -2.0531 -0.5493
10720TIP3   OH253650   3.417   0.961  12.521  0.7214  0.0130 -0.2628
10720TIP3    H153651   3.486   0.979  12.584  1.5868 -2.7014 -0.2949
10720TIP3    H253652   3.358   0.901  12.567 -0.9632  1.2581 -0.6805
10721TIP3   OH253653   4.042   3.222   3.459 -0.4126  0.3986  0.0687
10721TIP3    H153654   4.033   3.136   3.500 -0.4181 -0.6604 -2.0189
10721TIP3    H253655   4.012   3.284   3.526 -1.2308 -1.2781  1.3182
10722TIP3   OH253656   0.005   6.429   5.055 -0.3379 -0.7603 -0.9350
10722TIP3    H153657   0.018   6.519   5.083  1.3760 -1.5872  1.1717
10722TIP3    H253658  -0.075   6.432   5.002 -1.8762  1.5428  1.2828
10723TIP3   OH253659   6.754   0.122   2.966  0.2432 -0.5281  0.5428
10723TIP3    H153660   6.743   0.174   2.886 -1.5110 -1.8457 -0.1470
10723TIP3    H253661   6.709   0.173   3.034 -0.5345 -0.6058  0.1029
10724TIP3   OH253662   0.408   5.757   3.291 -0.1923 -0.0832  0.4423
10724TIP3    H153663   0.436   5.834   3.242 -0.9560 -0.3159 -0.3788
10724TIP3    H253664   0.489   5.708   3.306  0.1710  0.4180  0.1688
10725TIP3   OH253665   2.361   1.613   4.904 -0.6523  0.0265  0.8211
10725TIP3    H153666   2.364   1.639   4.812 -2.2244  1.7836  1.1886
10725TIP3    H253667   2.269   1.594   4.921 -0.3039 -0.8411  1.9044
10726TIP3   OH253668   1.374   2.433  17.081 -0.6765  0.0330 -0.6680
10726TIP3    H153669   1.409   2.389  17.158  1.1621 -0.2548 -1.6163
10726TIP3    H253670   1.406   2.382  17.007 -3.3541 -0.3788 -1.6621
10727TIP3   OH253671   5.812   3.312   5.854 -0.7310 -0.2088  0.4681
10727TIP3    H153672   5.734   3.313   5.910 -1.1338  1.1897 -0.0938
10727TIP3    H253673   5.884   3.334   5.913 -0.8862 -0.5479  0.7916
10728TIP3   OH253674   1.724   2.199   3.969 -0.1209  0.5888  0.2178
10728TIP3    H153675   1.764   2.262   4.028  0.3444 -0.4119  0.9853
10728TIP3    H253676   1.763   2.115   3.992 -0.6786  0.0183 -0.8302
10729TIP3   OH253677   0.316   2.676  12.368  0.0365  0.6721  0.2452
10729TIP3    H153678   0.373   2.636  12.303 -1.9599 -0.5144 -0.8937
10729TIP3    H253679   0.269   2.603  12.408 -1.1170  1.6115  0.6839
10730TIP3   OH253680   5.165   4.072  16.630  0.2602  0.0174 -0.1795
10730TIP3    H153681   5.084   4.074  16.578  1.3378 -1.7281 -2.0588
10730TIP3    H253682   5.151   4.002  16.694 -0.2401  0.7262  0.5162
10731TIP3   OH253683   2.494   3.147   3.786  0.2162  0.1981  0.6817
10731TIP3    H153684   2.404   3.117   3.771  0.2618  0.6675 -0.6928
10731TIP3    H253685   2.507   3.215   3.721  1.5880  0.1148  0.8486
10732TIP3   OH253686   3.874   2.408   3.007  0.0219 -0.5277 -0.1028
10732TIP3    H153687   3.864   2.434   2.916 -1.3467 -0.1628  0.1176
10732TIP3    H253688   3.784   2.390   3.037  0.3460  0.1187  1.3696
10733TIP3   OH253689   0.608   5.528   3.670 -0.4989 -0.2151 -0.0790
10733TIP3    H153690   0.577   5.492   3.587 -2.2273  0.6564  0.1285
10733TIP3    H253691   0.550   5.490   3.735  0.1233 -0.0291  0.5866
10734TIP3   OH253692   2.214   3.761   1.811  0.1520  0.2416  0.3157
10734TIP3    H153693   2.243   3.750   1.720 -1.6487 -1.7662 -0.1098
10734TIP3    H253694   2.145   3.828   1.806 -0.5674 -0.4938 -0.0029
10735TIP3   OH253695   4.467   6.479   4.003 -0.2829 -0.2810  0.0618
10735TIP3    H153696   4.455   6.391   3.968 -1.4266  0.4156 -1.4148
10735TIP3    H253697   4.496   6.531   3.928  0.7168  0.5518  0.9797
10736TIP3   OH253698   4.956   1.961   0.047 -0.0380 -0.1545  0.7764
10736TIP3    H153699   5.030   1.942  -0.011 -0.4035  0.4613  0.0826
10736TIP3    H253700   4.899   1.884   0.041 -0.7053  0.4101 -0.7204
10737TIP3   OH253701   0.852   6.798   4.566 -0.3070 -0.0469 -0.0898
10737TIP3    H153702   0.882   6.884   4.597  0.0294 -0.0203 -0.4805
10737TIP3    H253703   0.933   6.752   4.542 -0.5353 -0.2261 -0.5104
10738TIP3   OH253704   0.847   5.927  10.666 -0.1176  0.3603  0.2500
10738TIP3    H153705   0.844   5.910  10.572  0.7641 -0.7724  0.3949
10738TIP3    H253706   0.828   6.020  10.675 -0.1292  0.5001 -1.0560
10739TIP3   OH253707   3.124   3.226  13.551  0.2732 -0.0262  0.3595
10739TIP3    H153708   3.164   3.148  13.589 -1.4413 -1.8568 -1.4018
10739TIP3    H253709   3.121   3.209  13.457 -3.8642  0.2088  0.2498
10740TIP3   OH253710   0.783   6.155  12.611 -0.3020 -0.2214 -0.2847
10740TIP3    H153711   0.710   6.152  12.674 -1.7057 -2.7218 -1.8459
10740TIP3    H253712   0.758   6.221  12.548  0.1342  0.8494  0.6317
10741TIP3   OH253713   2.499   5.098   4.196 -0.5597 -0.0856 -0.4093
10741TIP3    H153714   2.538   5.065   4.277  0.9401 -1.5605 -1.6601
10741TIP3    H253715   2.556   5.171   4.170 -1.0964  0.4498 -0.1302
10742TIP3   OH253716   3.137   0.606  12.994 -0.2890 -0.4918 -0.8124
10742TIP3    H153717   3.065   0.607  13.057 -0.1380  2.1668 -0.5507
10742TIP3    H253718   3.105   0.555  12.920 -2.1393 -0.0556 -0.3516
10743TIP3   OH253719   2.236   0.477   1.724 -0.7049  0.0494  0.1755
10743TIP3    H153720   2.252   0.546   1.659 -0.4602 -1.6997 -1.7300
10743TIP3    H253721   2.321   0.433   1.734 -0.8960 -0.1215  1.2268
10744TIP3   OH253722   5.030   3.870   0.559 -0.2117 -0.2933 -0.6481
10744TIP3    H153723   4.977   3.886   0.480  0.0983  1.0808 -0.6055
10744TIP3    H253724   5.109   3.826   0.526 -0.0022  0.4280 -1.1498
10745TIP3   OH253725   4.824   3.679  15.812 -0.2997  0.4184 -0.8113
10745TIP3    H153726   4.876   3.609  15.851  0.2078 -0.3308 -2.6844
10745TIP3    H253727   4.733   3.648  15.818 -0.4846  1.1992  1.4075
10746TIP3   OH253728   1.318   1.264   3.181  0.2897 -0.2597  0.2016
10746TIP3    H153729   1.323   1.266   3.085  1.0295 -0.6546  0.2187
10746TIP3    H253730   1.340   1.353   3.208  0.7865 -0.3226  0.0202
10747TIP3   OH253731   2.866   6.321  15.718 -0.3014 -0.3127  0.1269
10747TIP3    H153732   2.895   6.274  15.640 -1.6775 -1.8591  0.5026
10747TIP3    H253733   2.803   6.385  15.685  0.7724  0.5902 -0.2552
10748TIP3   OH253734   1.439   1.385  10.340 -0.0679  0.4029  0.2353
10748TIP3    H153735   1.362   1.343  10.301  2.1928 -2.2584 -1.8084
10748TIP3    H253736   1.466   1.449  10.274 -0.4734  1.3501  0.9633
10749TIP3   OH253737   0.906   2.892  11.651  0.1460  0.5706 -0.0704
10749TIP3    H153738   0.992   2.868  11.685 -0.8866 -1.5850  1.2077
10749TIP3    H253739   0.887   2.978  11.690  1.3937  0.7395  0.1830
10750TIP3   OH253740   6.150   0.514   0.696 -0.6001  0.5841 -0.2276
10750TIP3    H153741   6.056   0.533   0.683 -1.2419 -1.7647  0.5538
10750TIP3    H253742   6.159   0.505   0.790  0.3840  0.5054 -0.3285
10751TIP3   OH253743   3.128   4.191   5.765  0.1178  0.8787 -0.2249
10751TIP3    H153744   3.157   4.109   5.805  2.4605 -0.3174 -3.7963
10751TIP3    H253745   3.203   4.219   5.713 -1.8738  3.3191 -2.0217
10752TIP3   OH253746   5.410   5.310  14.648  0.1755 -0.1464 -0.1907
10752TIP3    H153747   5.479   5.347  14.702 -1.8908  1.9257  1.1821
10752TIP3    H253748   5.423   5.349  14.561  0.3863  0.6566  0.2032
10753TIP3   OH253749   2.219   1.996   3.992  0.2711 -0.1817  0.0299
10753TIP3    H153750   2.277   1.949   3.932  1.1861  0.1176  0.6468
10753TIP3    H253751   2.133   1.990   3.952  0.6841 -0.8529 -0.7964
10754TIP3   OH253752   0.032   4.233   2.342 -0.6638 -0.0672  0.1075
10754TIP3    H153753   0.003   4.313   2.297 -0.4592 -0.0008  0.0936
10754TIP3    H253754   0.014   4.251   2.434  2.6844  1.5012  0.6263
10755TIP3   OH253755   3.616   3.347  16.773  0.1012  0.1379  0.6846
10755TIP3    H153756   3.569   3.296  16.839 -0.4169  0.7247  0.7800
10755TIP3    H253757   3.567   3.333  16.692  0.3512 -0.0504  0.5630
10756TIP3   OH253758   0.949   5.879  14.947  0.6381 -0.0583  0.2277
10756TIP3    H153759   1.027   5.931  14.969  0.6621 -0.0467  0.1127
10756TIP3    H253760   0.947   5.811  15.014  0.2667  0.4496  0.7408
10757TIP3   OH253761   1.874   2.598   3.739  0.4562 -0.5886 -0.4454
10757TIP3    H153762   1.887   2.537   3.666 -0.3130  0.1571 -1.2178
10757TIP3    H253763   1.809   2.661   3.707 -1.2573 -1.2631  1.4972
10758TIP3   OH253764   1.816   3.325   4.849 -0.0808 -0.4431  0.4246
10758TIP3    H153765   1.820   3.302   4.942 -0.7674 -0.1079  0.5414
10758TIP3    H253766   1.826   3.241   4.804  1.5723 -0.4662  0.7553
10759TIP3   OH253767   2.103   3.258  12.062 -0.0964 -0.0372 -0.0340
10759TIP3    H153768   2.028   3.255  12.003  0.0066  1.7219 -0.3004
10759TIP3    H253769   2.160   3.187  12.032 -0.3499  0.3935 -1.6368
10760TIP3   OH253770   3.128   2.164   3.860 -0.2145 -0.0604  0.2263
10760TIP3    H153771   3.140   2.080   3.817 -0.8575 -0.7487  1.3453
10760TIP3    H253772   3.198   2.167   3.926  0.6746  0.9163 -0.7186
10761TIP3   OH253773   0.480   4.119  15.375  0.0982  0.4154 -0.1433
10761TIP3    H153774   0.479   4.132  15.280 -0.6178  0.9100 -0.0783
10761TIP3    H253775   0.400   4.069  15.392  0.1256  0.4988  0.2253
10762TIP3   OH253776   4.640   4.459   4.986  0.0875 -0.0583 -0.2349
10762TIP3    H153777   4.703   4.510   4.935  2.0061 -1.1568  0.9113
10762TIP3    H253778   4.594   4.523   5.039  1.9265  0.6024  0.6348
10763TIP3   OH253779   6.112   2.596   2.191  0.1862 -0.6497 -0.1211
10763TIP3    H153780   6.200   2.597   2.228  0.2933  1.3296 -0.3335
10763TIP3    H253781   6.068   2.523   2.236  0.7514  0.7430  2.9214
10764TIP3   OH253782   1.668   4.165  11.095  0.2927 -0.2921 -0.0358
10764TIP3    H153783   1.654   4.176  11.001  0.8825  0.7864 -0.0128
10764TIP3    H253784   1.720   4.084  11.102  0.9167  0.0382 -0.7033
10765TIP3   OH253785   1.695   0.555  14.092  0.4636  0.1114  0.2867
10765TIP3    H153786   1.781   0.580  14.125  0.6089  0.1276 -0.1029
10765TIP3    H253787   1.672   0.476  14.142  0.9784 -0.2536 -0.0477
10766TIP3   OH253788   6.758   2.170   0.866  0.0066 -0.0089  0.7676
10766TIP3    H153789   6.805   2.092   0.835 -0.4878 -0.7355  1.7754
10766TIP3    H253790   6.765   2.165   0.962 -0.4037  0.9685  0.8615
10767TIP3   OH253791   3.335   2.315  15.900  0.4886 -0.6480 -0.1353
10767TIP3    H153792   3.252   2.285  15.935  0.1070 -2.1104 -2.0697
10767TIP3    H253793   3.311   2.376  15.830  0.9851 -1.1633 -0.7803
10768TIP3   OH253794   3.868   6.440  11.466  0.0485  0.4936  0.3578
10768TIP3    H153795   3.883   6.534  11.474 -0.0203  0.4295  1.4597
10768TIP3    H253796   3.914   6.403  11.542 -1.4746 -0.1749  0.9844
10769TIP3   OH253797   2.167   3.009  13.836  0.2963 -0.4381 -0.3458
10769TIP3    H153798   2.257   3.040  13.840  0.1031  0.0778  0.0102
10769TIP3    H253799   2.152   2.969  13.922 -0.3951  1.1039  0.2812
10770TIP3   OH253800   5.826   2.026   2.871 -0.2086  0.4631 -0.2541
10770TIP3    H153801   5.766   1.952   2.878  0.5605 -0.1548 -0.0421
10770TIP3    H253802   5.882   2.005   2.796  1.5850 -0.3716  1.2453
10771TIP3   OH253803   0.350   2.991   1.849  0.5452  0.0138 -0.2022
10771TIP3    H153804   0.345   2.939   1.769  0.9256 -1.0769  0.4514
10771TIP3    H253805   0.264   2.980   1.890  0.6041 -0.0345 -0.0936
10772TIP3   OH253806   3.522   5.325   4.414 -0.1993  0.5341  0.1621
10772TIP3    H153807   3.448   5.343   4.355 -0.7355 -0.0531  0.6420
10772TIP3    H253808   3.585   5.277   4.360 -0.7715 -0.1709  0.1064
10773TIP3   OH253809   5.436   2.178   6.058  0.0029 -0.3967 -0.4473
10773TIP3    H153810   5.413   2.092   6.094 -3.0029  0.5682  0.2500
10773TIP3    H253811   5.377   2.189   5.983 -0.2552  1.3721 -0.0257
10774TIP3   OH253812   1.691   5.128  13.964 -0.6086  0.0577  0.7431
10774TIP3    H153813   1.750   5.071  14.014  0.8558  0.5808 -0.3169
10774TIP3    H253814   1.704   5.103  13.873 -1.5615  0.6364  0.4283
10775TIP3   OH253815   6.299   1.944   0.013  0.3010  0.0025 -0.0056
10775TIP3    H153816   6.303   1.924   0.107  0.3384 -0.5867 -0.1304
10775TIP3    H253817   6.244   1.874  -0.024  1.5469 -0.6540 -0.6628
10776TIP3   OH253818   4.525   1.913   4.354  0.3843 -0.0223 -0.2170
10776TIP3    H153819   4.570   1.837   4.392  1.5109  0.5683 -0.3197
10776TIP3    H253820   4.544   1.984   4.415  1.4939  0.7406 -1.3900
10777TIP3   OH253821   3.446   2.481  12.097 -0.7815  0.2989  0.7783
10777TIP3    H153822   3.515   2.483  12.030 -0.4023  1.5030  1.1724
10777TIP3    H253823   3.388   2.553  12.073 -1.2085  0.0839  1.1692
10778TIP3   OH253824   6.679   4.786  12.270  0.3064 -0.3018  0.1833
10778TIP3    H153825   6.691   4.714  12.331  0.4641  0.5416  1.1918
10778TIP3    H253826   6.586   4.783  12.247 -0.0253  0.0680  1.4055
10779TIP3   OH253827   1.312   4.573   2.403 -0.1998  1.1369 -0.3265
10779TIP3    H153828   1.288   4.524   2.325 -1.6209 -0.6121  1.1169
10779TIP3    H253829   1.407   4.584   2.397  0.1078 -1.3580 -0.9743
10780TIP3   OH253830   4.790   3.502   2.891  0.3019  0.6769  0.1593
10780TIP3    H153831   4.870   3.481   2.940  0.2466 -0.8601 -0.3339
10780TIP3    H253832   4.780   3.428   2.831 -0.9550  1.3433 -0.4787
10781TIP3   OH253833   2.380   3.409   4.255 -0.0660  0.4564 -0.4807
10781TIP3    H153834   2.474   3.414   4.270 -0.2984  1.0391  0.9466
10781TIP3    H253835   2.370   3.424   4.161  1.2372  0.7787 -0.5882
10782TIP3   OH253836   6.256   1.553  13.734  0.1975 -0.0664 -0.5223
10782TIP3    H153837   6.290   1.622  13.790  1.2872 -0.4825 -0.6515
10782TIP3    H253838   6.332   1.522  13.685  0.0369 -2.2973  0.5156
10783TIP3   OH253839   1.431   5.795   1.931  0.1525  0.3644  0.6218
10783TIP3    H153840   1.402   5.709   1.899  1.4666  0.3624 -0.6703
10783TIP3    H253841   1.353   5.833   1.971 -0.8282 -0.8546 -0.0371
10784TIP3   OH253842   3.648   0.747   5.844 -0.2744  0.0568  0.5475
10784TIP3    H153843   3.652   0.733   5.749  0.7625  0.3733  0.5338
10784TIP3    H253844   3.590   0.678   5.876 -2.4691  1.2940 -0.5589
10785TIP3   OH253845   2.870   3.602  12.286 -0.3829 -0.4178 -0.0306
10785TIP3    H153846   2.859   3.652  12.367 -1.8785  0.7413 -0.8838
10785TIP3    H253847   2.798   3.631  12.230  0.3531 -1.4976 -1.6242
10786TIP3   OH253848   0.275   2.229   1.628 -0.2153 -0.1530  0.4350
10786TIP3    H153849   0.316   2.273   1.553 -0.8554 -0.8619 -0.3472
10786TIP3    H253850   0.342   2.232   1.696  0.3877  0.5058 -0.1600
10787TIP3   OH253851   5.049   0.543   0.114 -0.0769  0.0099  0.3052
10787TIP3    H153852   5.013   0.587   0.191 -1.9978 -0.3837 -0.3123
10787TIP3    H253853   5.075   0.615   0.056 -0.2548  0.3124  0.5953
10788TIP3   OH253854   6.177   3.844  11.927  0.8833 -0.3211  0.2331
10788TIP3    H153855   6.158   3.879  11.841  1.4212 -0.1084  0.1929
10788TIP3    H253856   6.099   3.795  11.952  0.4290  0.2575 -0.0434
10789TIP3   OH253857   2.822   0.673  14.166  0.4055  0.3456  0.0168
10789TIP3    H153858   2.748   0.657  14.225  1.7227  2.9786  2.6912
10789TIP3    H253859   2.899   0.650  14.217  1.5603 -0.9140 -2.1537
10790TIP3   OH253860   1.472   2.882  15.633  0.4077  0.4102 -0.2292
10790TIP3    H153861   1.563   2.910  15.645  1.1197 -1.5874 -0.5757
10790TIP3    H253862   1.452   2.903  15.541  0.4165  1.0450 -0.0945
10791TIP3   OH253863   1.114   0.787  13.246 -0.0680  0.3769 -0.7588
10791TIP3    H153864   1.101   0.731  13.170 -2.4258 -1.2189  0.6907
10791TIP3    H253865   1.026   0.810  13.275  0.5493 -0.7828  2.6156
10792TIP3   OH253866   4.184   1.506  17.068 -0.0071  0.2819 -0.4707
10792TIP3    H153867   4.235   1.443  17.118  1.2059  1.2657 -0.4116
10792TIP3    H253868   4.175   1.582  17.126  1.0490  1.2703 -1.5307
10793TIP3   OH253869   5.746   3.993   1.863 -0.5532  0.0849  0.3072
10793TIP3    H153870   5.703   3.934   1.924 -1.4734  1.0443  0.6031
10793TIP3    H253871   5.690   4.070   1.859  0.6912  1.0112  0.0331
10794TIP3   OH253872   6.139   3.487  10.218  0.2918 -0.2289  0.0188
10794TIP3    H153873   6.167   3.398  10.237  0.4641 -0.4908 -1.3415
10794TIP3    H253874   6.194   3.515  10.144 -0.1080  0.8159  0.0905
10795TIP3   OH253875   3.097   2.887  10.543 -0.3022  0.0720  0.5459
10795TIP3    H153876   3.029   2.920  10.485  0.2711 -1.3296 -1.0051
10795TIP3    H253877   3.085   2.936  10.625 -2.2465  0.8535 -0.1520
10796TIP3   OH253878   5.769   3.372   2.402 -0.5573 -0.2089  0.0125
10796TIP3    H153879   5.702   3.311   2.433 -2.3098 -0.0824 -3.1193
10796TIP3    H253880   5.729   3.458   2.413  0.3354  0.1156  0.8303
10797TIP3   OH253881   3.026   0.163  16.493  0.0672  0.6522  0.5690
10797TIP3    H153882   2.969   0.228  16.535 -1.1055  0.1969 -0.2639
10797TIP3    H253883   3.114   0.201  16.500 -0.5763  2.3218  0.1283
10798TIP3   OH253884   3.633   5.981   5.263 -0.3372 -0.4580  0.4241
10798TIP3    H153885   3.640   5.914   5.331  0.6665 -0.5353  0.2582
10798TIP3    H253886   3.689   6.052   5.295  1.0167 -0.9294 -0.8213
10799TIP3   OH253887   3.104   6.678  12.411  0.2562  0.8306  0.0424
10799TIP3    H153888   3.035   6.734  12.375 -1.9828 -0.6684  1.7490
10799TIP3    H253889   3.089   6.593  12.369  0.5528  0.2770  1.0470
10800TIP3   OH253890   5.023   6.029  13.859  0.0550  0.3249  0.1488
10800TIP3    H153891   4.933   6.005  13.880  0.1404  0.0259  0.1812
10800TIP3    H253892   5.023   6.043  13.765  0.4017 -1.6386 -0.1944
10801TIP3   OH253893   5.235   2.195   5.862 -0.0685 -0.3175  0.8322
10801TIP3    H153894   5.295   2.203   5.788 -0.6636 -3.7351 -0.1806
10801TIP3    H253895   5.205   2.284   5.878  0.7416  0.6813 -2.4731
10802TIP3   OH253896   0.737   3.486  11.854 -0.2885  0.1423  0.0727
10802TIP3    H153897   0.658   3.525  11.818  0.1084  1.5013  0.6303
10802TIP3    H253898   0.766   3.424  11.787 -1.4767  0.0528 -0.3904
10803TIP3   OH253899   0.888   3.880   3.407  0.3032 -0.4547  0.0451
10803TIP3    H153900   0.814   3.822   3.390 -0.9425  0.6624  1.4047
10803TIP3    H253901   0.900   3.875   3.502  0.1708  1.4729  0.1949
10804TIP3   OH253902   6.742   5.660   3.440  0.1047  0.1359  0.3275
10804TIP3    H153903   6.669   5.618   3.485  0.2367 -1.5169 -0.8829
10804TIP3    H253904   6.757   5.605   3.362  1.3712  1.5422 -0.4776
10805TIP3   OH253905   2.867   6.607  13.459 -0.4290  0.1867  0.3884
10805TIP3    H153906   2.827   6.665  13.395 -0.1091  0.3538  0.3393
10805TIP3    H253907   2.901   6.534  13.407 -0.0089  0.4112  0.3474
10806TIP3   OH253908   1.684   0.819  16.767  0.1861 -0.1941 -0.0979
10806TIP3    H153909   1.732   0.822  16.849  1.9217  1.9329 -1.0820
10806TIP3    H253910   1.598   0.858  16.788 -0.2398 -1.6896  1.1205
10807TIP3   OH253911   2.181   4.830   2.311 -0.4663 -0.3209 -0.3230
10807TIP3    H153912   2.149   4.807   2.398 -1.7960  1.1826 -0.3685
10807TIP3    H253913   2.244   4.901   2.326 -2.5382  1.6963 -0.6829
10808TIP3   OH253914   3.080   5.376   6.285 -0.2199  0.4990  0.0301
10808TIP3    H153915   3.064   5.384   6.191  0.8258 -2.0672 -0.4351
10808TIP3    H253916   3.005   5.328   6.318  0.6297 -0.8846  0.0081
10809TIP3   OH253917   0.519   1.754  16.287  0.0192 -0.8533  0.2461
10809TIP3    H153918   0.468   1.834  16.300 -0.5230 -0.8522 -1.6023
10809TIP3    H253919   0.470   1.705  16.221  1.7436 -1.4117 -0.6857
10810TIP3   OH253920   3.954   6.412  15.948  1.1343 -0.4950 -0.1783
10810TIP3    H153921   3.947   6.421  16.043 -1.1332  2.7493 -0.5012
10810TIP3    H253922   4.044   6.438  15.928  1.2343  0.1374  0.9957
10811TIP3   OH253923   1.817   3.431   4.374  0.5091  0.5464  0.0015
10811TIP3    H153924   1.789   3.355   4.425  1.4049 -0.4239 -0.9089
10811TIP3    H253925   1.867   3.484   4.436 -1.6789  1.4065  1.1579
10812TIP3   OH253926   6.158   3.735   2.015  0.2533  0.4297 -0.5206
10812TIP3    H153927   6.143   3.826   1.991 -0.9397  0.2194 -0.6201
10812TIP3    H253928   6.184   3.739   2.107 -0.1928  0.8418 -0.4072
10813TIP3   OH253929   2.636   0.416  11.129  0.2822 -0.0419  0.5086
10813TIP3    H153930   2.618   0.327  11.100 -2.0315  0.0253  1.5771
10813TIP3    H253931   2.703   0.448  11.068 -0.3967 -1.7638 -1.2295
10814TIP3   OH253932   6.616   4.386  14.211 -0.1162  0.5717 -0.7214
10814TIP3    H153933   6.703   4.400  14.173 -0.2641  0.5498 -1.0725
10814TIP3    H253934   6.557   4.435  14.154 -0.1712  1.8052  0.3505
10815TIP3   OH253935   1.049   3.285  13.958 -0.0047 -0.2790 -0.5896
10815TIP3    H153936   1.073   3.201  13.997 -1.7653 -0.2119  0.7514
10815TIP3    H253937   1.021   3.264  13.870  0.2565 -0.9867 -0.5085
10816TIP3   OH253938   6.356   5.587   2.909 -0.0778 -0.4302  0.2752
10816TIP3    H153939   6.405   5.572   2.990 -0.0364 -1.2519  0.1024
10816TIP3    H253940   6.332   5.679   2.913  1.6351  0.0511  0.2702
10817TIP3   OH253941   1.270   1.634  13.696 -0.2841 -0.0326 -0.4733
10817TIP3    H153942   1.321   1.574  13.752 -0.4691  0.0403 -0.2236
10817TIP3    H253943   1.333   1.666  13.632 -0.3385 -1.0620 -1.0714
10818TIP3   OH253944   4.833   2.288   4.883 -0.1197 -0.1163 -0.1691
10818TIP3    H153945   4.851   2.195   4.880  0.2571 -0.0497 -0.0151
10818TIP3    H253946   4.803   2.304   4.973 -5.4893 -1.0389 -1.4719
10819TIP3   OH253947   5.633   5.449   1.193 -0.2930  0.2432  0.4320
10819TIP3    H153948   5.724   5.461   1.218  0.2711 -0.3131 -1.2280
10819TIP3    H253949   5.598   5.538   1.186  0.1701  0.4658  0.8684
10820TIP3   OH253950   4.893   1.899   5.637 -0.5041  0.7742  0.0972
10820TIP3    H153951   4.960   1.884   5.704 -0.7217  2.1141  0.6403
10820TIP3    H253952   4.911   1.832   5.571 -0.7522 -1.0897  1.8037
10821TIP3   OH253953   1.236   3.978   3.577 -0.0643  0.1842 -0.2943
10821TIP3    H153954   1.200   3.890   3.564 -1.0439  0.7536 -1.7243
10821TIP3    H253955   1.204   4.028   3.502  1.1784  1.5507  0.0420
10822TIP3   OH253956   5.511   6.393   0.562  0.4889 -0.0137  0.3825
10822TIP3    H153957   5.486   6.429   0.647  0.2747  0.9976 -0.0977
10822TIP3    H253958   5.604   6.414   0.553  0.2788  0.7588 -0.0552
10823TIP3   OH253959   2.006   5.460  15.968  0.3567  0.1694 -0.5453
10823TIP3    H153960   2.095   5.459  16.002  1.0198  1.5795 -2.0930
10823TIP3    H253961   1.951   5.446  16.045  1.8852 -0.1117  0.5422
10824TIP3   OH253962   4.395   6.336   1.075 -0.0622 -0.3809  0.1924
10824TIP3    H153963   4.465   6.393   1.041  0.1339 -0.0393  1.1441
10824TIP3    H253964   4.320   6.395   1.084 -0.5758 -0.7979 -1.0613
10825TIP3   OH253965   4.905   6.390  11.219 -0.0573  0.0035 -0.0135
10825TIP3    H153966   4.861   6.421  11.140 -2.2327  1.9328  1.7956
10825TIP3    H253967   4.987   6.440  11.221 -0.5725  0.8954 -0.4432
10826TIP3   OH253968   0.514   1.727  13.479 -0.0056 -0.3630 -0.1781
10826TIP3    H153969   0.569   1.748  13.554  1.6833 -0.9277 -1.2067
10826TIP3    H253970   0.562   1.760  13.403 -1.5213 -0.0811 -1.0684
10827TIP3   OH253971   0.343   3.493  16.590  0.3682 -0.0576 -0.1727
10827TIP3    H153972   0.257   3.473  16.555 -0.0021 -1.2768  1.3311
10827TIP3    H253973   0.399   3.422  16.558  0.6188  0.2488 -0.4187
10828TIP3   OH253974   2.939   2.319  12.581  0.1566 -0.5476  0.0117
10828TIP3    H153975   2.874   2.321  12.651 -0.8001 -1.2934 -0.8126
10828TIP3    H253976   2.953   2.226  12.564  1.9987 -0.4111  0.6493
10829TIP3   OH253977   2.788   3.570   1.349  0.4848 -0.5265  0.2527
10829TIP3    H153978   2.800   3.477   1.327  0.6550 -0.5134  0.2892
10829TIP3    H253979   2.760   3.570   1.440  2.6614 -0.4332  0.9616
10830TIP3   OH253980   1.140   0.532  12.370  0.6740  0.1881 -0.6665
10830TIP3    H153981   1.096   0.535  12.285 -1.5655  1.1999  0.4542
10830TIP3    H253982   1.147   0.623  12.397 -0.0398 -0.1823  0.8856
10831TIP3   OH253983   5.286   0.459  15.628  0.4924 -0.7762 -0.5694
10831TIP3    H153984   5.243   0.389  15.677  1.4608 -0.7692  0.3391
10831TIP3    H253985   5.228   0.534  15.638 -0.5990 -1.4519 -1.6225
10832TIP3   OH253986   5.258   5.314  13.262  0.1360  0.0636  0.0093
10832TIP3    H153987   5.185   5.273  13.217  0.9842 -0.8269 -0.6022
10832TIP3    H253988   5.234   5.407  13.267 -0.3134  0.0641 -1.6245
10833TIP3   OH253989   6.742   2.967  11.274  0.4506 -0.5683 -0.0617
10833TIP3    H153990   6.679   3.039  11.262 -1.4212 -2.0599  0.2302
10833TIP3    H253991   6.786   2.988  11.356  3.0041  2.3143 -1.9588
10834TIP3   OH253992   0.750   3.131  12.465 -0.2910  0.3336 -0.0909
10834TIP3    H153993   0.659   3.160  12.461 -0.2905  0.2340 -1.2374
10834TIP3    H253994   0.794   3.195  12.520 -1.1062  0.2351  0.6826
10835TIP3   OH253995   1.217   5.046   5.507  0.1373  0.0515 -0.0004
10835TIP3    H153996   1.195   4.967   5.556  1.0577 -0.9558 -1.1562
10835TIP3    H253997   1.300   5.075   5.545  0.3701 -0.1922 -0.3146
10836TIP3   OH253998   0.684   6.614   4.701 -0.0806 -0.4769 -0.1214
10836TIP3    H153999   0.604   6.644   4.657  0.2884  1.0301  0.1575
10836TIP3    H254000   0.753   6.671   4.665  0.6620 -0.9666  0.5040
10837TIP3   OH254001   3.177   2.082  13.929 -0.2874  0.3002 -0.4154
10837TIP3    H154002   3.119   2.008  13.915 -0.0088 -0.0734  0.3599
10837TIP3    H254003   3.254   2.045  13.972  0.0542  0.9602 -0.4416
10838TIP3   OH254004   1.967   3.590   5.296  0.1126  0.1581  0.0284
10838TIP3    H154005   2.016   3.590   5.378 -1.0790 -0.3290  0.7807
10838TIP3    H254006   2.026   3.550   5.232  1.2722  1.0668  0.5021
10839TIP3   OH254007   3.324   1.311   3.792 -0.2188  0.0254 -0.0783
10839TIP3    H154008   3.334   1.218   3.772  3.0708 -0.1125  1.5017
10839TIP3    H254009   3.321   1.354   3.707 -0.4306 -1.4223 -0.8339
10840TIP3   OH254010   1.504   0.075  12.373  0.2167 -0.3162 -0.1140
10840TIP3    H154011   1.413   0.056  12.398 -0.2730  1.4492 -0.4085
10840TIP3    H254012   1.550   0.089  12.456 -0.0826 -0.0089  0.0039
10841TIP3   OH254013   2.561   4.122  14.543  0.4883  0.6663 -0.3042
10841TIP3    H154014   2.528   4.162  14.623 -1.6037 -0.8065 -0.3604
10841TIP3    H254015   2.564   4.194  14.479 -0.3506  1.3217  0.3821
10842TIP3   OH254016   2.918   0.026  13.288  0.2569  0.0524  0.5044
10842TIP3    H154017   2.974  -0.050  13.271 -0.0064  0.5608 -3.5980
10842TIP3    H254018   2.835   0.006  13.245 -0.5405  1.8337  1.0955
10843TIP3   OH254019   6.440   4.979  17.104  0.1746 -0.0515  0.3693
10843TIP3    H154020   6.368   4.927  17.069  1.2535 -0.5621 -1.2406
10843TIP3    H254021   6.456   5.045  17.037  0.5613  0.6836  1.1698
10844TIP3   OH254022   3.860   3.854  11.439  0.6890  0.2733  0.0498
10844TIP3    H154023   3.840   3.890  11.525  2.5910  1.0420  0.2300
10844TIP3    H254024   3.854   3.759  11.450 -1.7483  0.4093  0.2842
10845TIP3   OH254025   0.127   4.321   1.969 -0.0919  0.2951  0.6419
10845TIP3    H154026   0.177   4.311   1.888  0.5448 -0.0019  1.0580
10845TIP3    H254027   0.063   4.250   1.967  2.2665 -2.0507  2.0437
10846TIP3   OH254028   2.121   5.550   3.405  0.1930 -0.3092  0.2089
10846TIP3    H154029   2.033   5.540   3.369 -0.0971  1.0744  0.4687
10846TIP3    H254030   2.114   5.625   3.464  1.9643  1.0112 -1.1647
10847TIP3   OH254031   2.302   2.553   1.236  0.1117 -0.4395  0.0641
10847TIP3    H154032   2.339   2.639   1.218 -0.6543  0.1639  1.3149
10847TIP3    H254033   2.282   2.554   1.329  0.6126 -2.1785  0.2227
10848TIP3   OH254034   5.701   0.357  12.010  0.5427 -0.0512 -0.0150
10848TIP3    H154035   5.645   0.279  12.020  0.2553  0.2747  1.0348
10848TIP3    H254036   5.658   0.408  11.941 -0.4043  0.1280  0.6822
10849TIP3   OH254037   1.248   3.649   1.035 -0.5687 -0.0024  0.2879
10849TIP3    H154038   1.161   3.653   1.074 -0.0712  0.5879  1.4153
10849TIP3    H254039   1.283   3.738   1.046 -0.7899  0.5376 -2.5466
10850TIP3   OH254040   5.016   5.214  15.217 -0.4238  0.1157 -0.6987
10850TIP3    H154041   5.081   5.281  15.198  1.0992 -0.6927  1.2732
10850TIP3    H254042   5.033   5.145  15.154 -0.5926  0.6667 -1.3603
10851TIP3   OH254043   3.856   0.718  13.112 -0.0501  0.0296  0.6634
10851TIP3    H154044   3.926   0.751  13.170 -0.7272 -0.0309  1.5389
10851TIP3    H254045   3.775   0.744  13.156 -0.6382  2.0776 -1.4539
10852TIP3   OH254046   6.629   0.449  13.317  0.4631  0.3510 -0.2700
10852TIP3    H154047   6.723   0.434  13.322  0.4747 -0.2756 -1.9586
10852TIP3    H254048   6.620   0.540  13.290  0.5008  1.0866  1.9394
10853TIP3   OH254049   5.645   1.080   1.220 -0.1167 -0.2898 -0.1953
10853TIP3    H154050   5.635   1.095   1.314  0.3441 -1.3432  0.0446
10853TIP3    H254051   5.579   1.014   1.199 -0.3009  0.0319 -0.6421
10854TIP3   OH254052   4.872   1.137   2.181  0.3814  0.1567 -0.9943
10854TIP3    H154053   4.803   1.075   2.158  0.1378 -0.8528  2.0049
10854TIP3    H254054   4.935   1.086   2.232 -0.6284  2.4933  3.0823
10855TIP3   OH254055   5.452   6.240  16.807 -0.0351 -0.0591  0.0076
10855TIP3    H154056   5.368   6.197  16.793 -0.2165 -0.0446  1.0422
10855TIP3    H254057   5.445   6.323  16.759  0.2247 -1.0188 -1.7900
10856TIP3   OH254058   4.372   6.096  16.523 -0.1176 -0.6692  0.1415
10856TIP3    H154059   4.302   6.161  16.523  1.5438  1.2494  1.8168
10856TIP3    H254060   4.392   6.082  16.615  2.1672 -0.6272 -0.2940
10857TIP3   OH254061   2.043   0.727  16.491 -0.7884 -0.2950  0.6852
10857TIP3    H154062   2.086   0.812  16.496  0.4432 -0.9199  1.0731
10857TIP3    H254063   2.106   0.670  16.448 -2.6671 -0.4025 -2.2761
10858TIP3   OH254064   3.644   0.423   4.908  0.0984 -0.0428 -0.3830
10858TIP3    H154065   3.633   0.429   4.813 -0.0377 -1.1153 -0.4496
10858TIP3    H254066   3.667   0.511   4.935 -0.0672  0.3248 -1.3893
10859TIP3   OH254067   3.716   5.699   0.589  0.1671 -0.1072  0.5298
10859TIP3    H154068   3.783   5.724   0.526  1.9055 -1.9237  1.5294
10859TIP3    H254069   3.741   5.745   0.670 -0.0314 -0.4305  0.7804
10860TIP3   OH254070   5.727   1.347  15.158 -0.0183 -0.5126 -0.2698
10860TIP3    H154071   5.744   1.274  15.098 -1.2117  0.0514 -1.3438
10860TIP3    H254072   5.711   1.422  15.101  0.2666  0.3899  0.8000
10861TIP3   OH254073   0.362   2.437   3.932  0.1590 -0.6633  0.0257
10861TIP3    H154074   0.426   2.366   3.932 -0.7934 -1.5405 -0.2855
10861TIP3    H254075   0.308   2.420   3.855 -0.6853 -0.1509  0.4987
10862TIP3   OH254076   0.569   1.885  10.692 -0.0233  0.0106 -0.1840
10862TIP3    H154077   0.510   1.877  10.617  0.7136 -1.8016 -0.6141
10862TIP3    H254078   0.641   1.939  10.660  1.3864 -2.5464 -1.5674
10863TIP3   OH254079   4.054   6.707  11.797 -0.7354  0.2561 -0.1050
10863TIP3    H154080   4.044   6.794  11.757  0.0822 -0.0445 -1.0050
10863TIP3    H254081   3.964   6.677  11.809 -1.0282  0.5420 -1.3703
10864TIP3   OH254082   0.065   0.162   2.717 -0.2922  0.4425  0.1857
10864TIP3    H154083   0.143   0.200   2.677  0.1546 -0.6119  0.0015
10864TIP3    H254084   0.026   0.109   2.647  0.2552 -1.0682  0.9640
10865TIP3   OH254085   5.960   3.142   5.332 -0.0489 -0.0052 -0.2389
10865TIP3    H154086   5.988   3.224   5.290 -1.6039 -0.1638 -1.6981
10865TIP3    H254087   6.025   3.078   5.305 -0.4641  0.1195 -1.6529
10866TIP3   OH254088   3.846   5.691   3.025  0.5293  0.1537  0.0876
10866TIP3    H154089   3.814   5.656   3.108  1.0564 -0.4184  0.0569
10866TIP3    H254090   3.924   5.742   3.049 -0.3455  1.4923  0.1571
10867TIP3   OH254091   4.325   4.822   3.751  0.4318  0.4570 -0.2633
10867TIP3    H154092   4.362   4.810   3.663  1.8215  0.9370  0.2265
10867TIP3    H254093   4.252   4.883   3.738  0.7127  0.6398 -1.0642
10868TIP3   OH254094   2.971   4.153  13.999 -0.4323  0.4231  0.0166
10868TIP3    H154095   2.891   4.151  14.052 -0.2284  1.1319  0.3684
10868TIP3    H254096   3.017   4.232  14.028  0.6589 -0.2573  0.2061
10869TIP3   OH254097   1.260   0.624  10.695  0.1747  0.5152  0.0516
10869TIP3    H154098   1.259   0.719  10.710 -0.9230  0.5191  0.0330
10869TIP3    H254099   1.284   0.615  10.603 -1.1642  0.8672 -0.3653
10870TIP3   OH254100   6.828   3.504  14.939 -0.1844 -0.2292 -0.2541
10870TIP3    H154101   6.858   3.541  15.022 -0.3402 -0.8370  0.0808
10870TIP3    H254102   6.734   3.488  14.952  0.2221 -2.4389  0.2717
10871TIP3   OH254103   1.961   5.284  11.708  0.2696  0.0507  0.5724
10871TIP3    H154104   1.953   5.232  11.628  1.3411  0.0501  0.4469
10871TIP3    H254105   1.874   5.280  11.749  0.1102 -1.1225  0.1411
10872TIP3   OH254106   1.002   0.493  14.214  0.3518  0.3142  0.2802
10872TIP3    H154107   1.017   0.567  14.273 -0.8685 -0.2086  1.2745
10872TIP3    H254108   0.950   0.529  14.143 -0.6311  0.3450  0.9906
10873TIP3   OH254109   4.092   6.212  13.137 -0.0129  0.3325 -0.6731
10873TIP3    H154110   4.025   6.157  13.095 -1.3471  1.7421 -0.5039
10873TIP3    H254111   4.104   6.286  13.077  1.0172  0.3627 -0.4483
10874TIP3   OH254112   3.466   0.607   5.172  0.7640  0.5393  0.0256
10874TIP3    H154113   3.408   0.570   5.238 -0.7492  1.6737 -0.6258
10874TIP3    H254114   3.554   0.579   5.199  0.1973  0.9043  2.4602
10875TIP3   OH254115   1.686   2.738   3.553  0.5030  0.1907  0.2859
10875TIP3    H154116   1.684   2.642   3.553  0.7475  0.1718  1.4834
10875TIP3    H254117   1.598   2.764   3.528 -0.2402 -0.3812  2.1111
10876TIP3   OH254118   5.776   0.099  13.800 -0.6597  0.4103 -0.4490
10876TIP3    H154119   5.767   0.177  13.854 -1.1723 -0.5620  0.9309
10876TIP3    H254120   5.755   0.027  13.859  0.4413 -0.8285 -1.5023
10877TIP3   OH254121   5.817   1.534  11.361 -0.1812  0.0124  0.5394
10877TIP3    H154122   5.908   1.509  11.342 -0.3232  0.6270 -1.1293
10877TIP3    H254123   5.825   1.615  11.412  0.2494  1.0703 -1.1170
10878TIP3   OH254124   1.184   4.433   5.701  0.2177 -0.1311 -0.2977
10878TIP3    H154125   1.127   4.372   5.749  0.1207 -1.2708 -1.7775
10878TIP3    H254126   1.263   4.440   5.754 -0.6663  0.2292  1.0071
10879TIP3   OH254127   1.962   5.043  12.795  0.0284 -0.0616  0.5319
10879TIP3    H154128   2.034   4.983  12.773 -0.5054 -0.1782 -1.0264
10879TIP3    H254129   1.997   5.097  12.866  1.4639 -0.4733  0.1857
10880TIP3   OH254130   2.143   4.543   3.556 -0.0338  0.8034  0.7296
10880TIP3    H154131   2.147   4.628   3.600  0.9643  0.2977  1.6827
10880TIP3    H254132   2.201   4.552   3.481 -0.4654  1.1659  0.4328
10881TIP3   OH254133   2.512   2.248   5.564 -0.1963  0.6106  0.3524
10881TIP3    H154134   2.598   2.237   5.605 -0.4495  0.6578  0.9149
10881TIP3    H254135   2.474   2.325   5.608 -1.0021 -0.1143  0.9629
10882TIP3   OH254136   1.771   3.572  13.513  0.0752  0.0589  0.3711
10882TIP3    H154137   1.677   3.587  13.517 -0.2308 -1.8198  4.0406
10882TIP3    H254138   1.780   3.477  13.506  1.7663  0.2582 -0.7689
10883TIP3   OH254139   4.305   5.253   1.516 -0.1769  0.3212  0.0826
10883TIP3    H154140   4.221   5.222   1.483 -0.5488  0.4134  0.9132
10883TIP3    H254141   4.291   5.346   1.534  0.8085  0.9223 -2.0017
10884TIP3   OH254142   2.829   0.995   3.747 -0.7607 -0.5690 -0.4083
10884TIP3    H154143   2.919   1.011   3.720 -0.0154  0.0243  2.1601
10884TIP3    H254144   2.824   0.901   3.762 -0.0639 -0.4338  0.8677
10885TIP3   OH254145   4.216   3.244   2.225  0.0150  0.2622 -0.0882
10885TIP3    H154146   4.129   3.267   2.192 -0.0048 -0.8454 -0.8772
10885TIP3    H254147   4.273   3.314   2.195 -0.4239  0.4438 -0.5046
10886TIP3   OH254148   2.068   3.536  16.622 -0.3765  0.0420  0.2332
10886TIP3    H154149   2.078   3.513  16.714 -0.6288 -2.1674 -0.2282
10886TIP3    H254150   2.003   3.607  16.622  1.4142  1.8076  1.8734
10887TIP3   OH254151   1.881   5.932  11.206 -0.1122 -0.2626 -0.3910
10887TIP3    H154152   1.900   5.839  11.199  1.2893 -0.0795  0.5924
10887TIP3    H254153   1.944   5.965  11.270 -1.2718  1.1662  0.0743
10888TIP3   OH254154   2.092   5.551   4.481 -0.0745  0.1220 -0.0687
10888TIP3    H154155   2.008   5.596   4.477 -0.7287 -0.9879  0.6539
10888TIP3    H254156   2.070   5.462   4.510  1.1304 -0.7788 -1.7452
10889TIP3   OH254157   1.498   2.163  13.031 -0.1281  0.5471  0.4242
10889TIP3    H154158   1.502   2.069  13.048  1.8860  0.3764 -0.6692
10889TIP3    H254159   1.422   2.173  12.974  0.1684 -0.5727 -0.2114
10890TIP3   OH254160   0.859   1.827   1.654  0.3004 -0.0088  0.3472
10890TIP3    H154161   0.777   1.866   1.625  0.1846 -0.3116  0.2637
10890TIP3    H254162   0.874   1.863   1.741  0.7001  0.9801 -0.1239
10891TIP3   OH254163   4.461   4.641  15.082  0.5850  0.3390 -0.4139
10891TIP3    H154164   4.422   4.727  15.099 -0.2638  0.1484 -1.2916
10891TIP3    H254165   4.492   4.612  15.167  0.4709  1.3202 -0.0208
10892TIP3   OH254166   0.799   5.282   2.907 -0.0629 -0.2174  0.0283
10892TIP3    H154167   0.735   5.276   2.837 -0.1444 -0.7881  0.1448
10892TIP3    H254168   0.768   5.221   2.974  1.3101 -1.5621 -0.4929
10893TIP3   OH254169   3.732   5.441   3.422  0.2900  0.1135  0.1649
10893TIP3    H154170   3.816   5.398   3.405  0.6216  0.1594  1.5539
10893TIP3    H254171   3.668   5.370   3.418  0.1556  0.2751 -2.2260
10894TIP3   OH254172   4.491   0.072  10.773  0.2315  0.1414  0.3365
10894TIP3    H154173   4.498   0.152  10.722  0.3762 -0.9734 -1.4952
10894TIP3    H254174   4.471   0.004  10.708 -0.4353 -1.2194  1.8958
10895TIP3   OH254175   0.886   2.434   1.422 -0.7276  0.3212 -0.1464
10895TIP3    H154176   0.956   2.493   1.395 -0.7831 -0.1030 -1.2807
10895TIP3    H254177   0.808   2.490   1.427  0.0986  1.4168  3.8631
10896TIP3   OH254178   0.164   2.473  15.554  0.4752 -0.0358  0.1297
10896TIP3    H154179   0.212   2.458  15.635  1.9579  0.4950 -0.6198
10896TIP3    H254180   0.218   2.432  15.486 -1.5404 -1.9343 -0.4318
10897TIP3   OH254181   6.764   0.635  16.402 -0.1947  0.3777 -0.2497
10897TIP3    H154182   6.782   0.669  16.490 -0.2049 -3.4537  1.4253
10897TIP3    H254183   6.683   0.585  16.412 -0.4181  0.1631 -2.5804
10898TIP3   OH254184   0.995   2.161   0.393  0.2811  0.3980 -0.0391
10898TIP3    H154185   1.015   2.243   0.440 -0.0723  2.0697 -2.6087
10898TIP3    H254186   0.911   2.133   0.429  0.7130  0.7744  1.3404
10899TIP3   OH254187   3.736   6.116   5.010 -0.3489 -0.1655  0.2064
10899TIP3    H154188   3.824   6.106   5.046  0.0778 -0.7982 -0.9581
10899TIP3    H254189   3.680   6.126   5.087  0.4652 -1.9116  1.0845
10900TIP3   OH254190   4.445   6.851  16.373  0.2414 -0.2526 -0.8222
10900TIP3    H154191   4.350   6.860  16.375  0.3256  0.6490 -0.3827
10900TIP3    H254192   4.461   6.778  16.314 -0.6850  0.4363 -1.9749
10901TIP3   OH254193   0.248   5.437   5.736 -0.3238 -0.7046 -0.4375
10901TIP3    H154194   0.273   5.528   5.719  0.8499 -0.9023  0.1717
10901TIP3    H254195   0.329   5.388   5.728 -0.9528 -1.7208 -0.7932
10902TIP3   OH254196   1.533   2.997   5.296  0.8824 -0.4368  0.2485
10902TIP3    H154197   1.507   2.915   5.253 -0.0741  0.4575 -0.9063
10902TIP3    H254198   1.496   3.066   5.242  0.0729  0.7487  2.2313
10903TIP3   OH254199   1.042   0.738   6.030  0.3118 -0.0843  0.0839
10903TIP3    H154200   1.026   0.819   6.078  0.2741 -0.5286  0.8423
10903TIP3    H254201   0.985   0.674   6.073 -0.5483 -0.2615 -1.2546
10904TIP3   OH254202   1.122   3.198  11.742  0.5203  0.2293  0.4206
10904TIP3    H154203   1.138   3.104  11.751  0.6931  0.3265  1.2579
10904TIP3    H254204   1.111   3.229  11.833  0.7545  1.0624  0.1710
10905TIP3   OH254205   4.851   0.138  12.112 -0.5938 -0.0400  0.0029
10905TIP3    H154206   4.866   0.081  12.037 -0.6439 -0.0406 -0.0069
10905TIP3    H254207   4.871   0.226  12.079  2.3540 -0.3064  0.8174
10906TIP3   OH254208   5.967   1.125  12.665  0.3378  0.0871 -0.2151
10906TIP3    H154209   6.036   1.104  12.602  0.8836  0.5787  0.2117
10906TIP3    H254210   6.011   1.175  12.734 -0.4094  0.2618  0.1497
10907TIP3   OH254211   4.184   6.126   4.221  0.1094 -0.1525 -0.2377
10907TIP3    H154212   4.152   6.049   4.269  0.5068  0.9747  1.9906
10907TIP3    H254213   4.247   6.091   4.159  2.0701 -1.5110  2.3085
10908TIP3   OH254214   4.795   0.067  16.823 -0.2997  0.0842 -0.4115
10908TIP3    H154215   4.878   0.022  16.840 -0.3209  0.4808  0.8803
10908TIP3    H254216   4.757   0.020  16.750  1.3552  0.2780 -1.4620
10909TIP3   OH254217   6.737   2.604   5.342  0.0971 -0.0088 -0.3257
10909TIP3    H154218   6.764   2.523   5.386 -0.0645  0.8829  1.5379
10909TIP3    H254219   6.817   2.655   5.335  0.1472 -0.2055 -1.2359
10910TIP3   OH254220   6.617   5.384   4.891  0.2195 -0.2899 -0.6561
10910TIP3    H154221   6.670   5.392   4.970  0.0300  1.6129 -0.6741
10910TIP3    H254222   6.671   5.421   4.821 -0.4385  0.0192 -1.0099
10911TIP3   OH254223   2.497   2.829  10.636 -0.5569  0.0391 -0.1083
10911TIP3    H154224   2.493   2.796  10.546 -0.1636 -0.5933  0.1036
10911TIP3    H254225   2.511   2.924  10.627 -0.5362 -0.0218 -0.7096
10912TIP3   OH254226   3.331   4.308   2.661 -0.2352  0.5796  0.4546
10912TIP3    H154227   3.376   4.226   2.681  0.0600  0.3446 -1.0579
10912TIP3    H254228   3.257   4.310   2.721  0.2177 -0.3925  1.0724
10913TIP3   OH254229   4.176   2.129   2.830  0.0834  0.2061 -0.4135
10913TIP3    H154230   4.175   2.181   2.910 -0.2364  0.9103 -0.8632
10913TIP3    H254231   4.084   2.110   2.812  0.2453 -1.5309  0.3685
10914TIP3   OH254232   2.749   4.876  10.757 -0.5220 -0.0600  0.1126
10914TIP3    H154233   2.774   4.861  10.848 -0.1247  5.0269  1.1645
10914TIP3    H254234   2.654   4.881  10.758 -0.4618  1.5420  0.6863
10915TIP3   OH254235   5.860   4.509   5.505 -0.0651  0.2348  0.4543
10915TIP3    H154236   5.856   4.604   5.505 -1.7976  0.2132 -1.0167
10915TIP3    H254237   5.831   4.483   5.417 -2.8778 -1.6888  1.7834
10916TIP3   OH254238   4.941   2.597   0.605 -0.2898 -0.1607  0.2611
10916TIP3    H154239   4.889   2.629   0.531 -0.8902  0.3816  0.9135
10916TIP3    H254240   5.030   2.629   0.587 -0.2187 -0.8041 -0.6783
10917TIP3   OH254241   6.428   6.480  12.706 -0.0811  0.7624 -0.4761
10917TIP3    H154242   6.363   6.410  12.706  0.5456  0.0995 -2.9579
10917TIP3    H254243   6.496   6.449  12.766 -0.0024 -0.6095 -1.2284
10918TIP3   OH254244   2.888   0.804   2.371 -0.2341 -0.3074  0.5052
10918TIP3    H154245   2.857   0.754   2.447 -0.4426 -0.5662  0.2538
10918TIP3    H254246   2.977   0.771   2.356  0.4116  0.8498  1.5851
10919TIP3   OH254247   1.969   6.430   4.811  0.3953  0.4459 -0.3974
10919TIP3    H154248   1.958   6.403   4.902  0.8973 -0.2943 -0.5391
10919TIP3    H254249   2.048   6.384   4.783  0.7452  1.3589 -0.9511
10920TIP3   OH254250   6.390   2.095   5.058  0.8085  0.2907  0.2076
10920TIP3    H154251   6.442   2.081   5.137 -0.6808 -2.0241  0.8799
10920TIP3    H254252   6.440   2.053   4.988  0.5190 -0.7680  0.6126
10921TIP3   OH254253   2.000   2.232   2.552 -0.0645  0.3789  0.0937
10921TIP3    H154254   1.995   2.327   2.539 -1.8045  0.2431 -0.5189
10921TIP3    H254255   1.951   2.195   2.478  0.7197 -1.0085  0.2346
10922TIP3   OH254256   3.141   2.343  14.082  0.0491 -0.1015  0.2186
10922TIP3    H154257   3.190   2.390  14.014 -0.9225  0.4682 -0.1067
10922TIP3    H254258   3.097   2.272  14.036  0.1209 -0.2721  0.4116
10923TIP3   OH254259   4.406   6.419  13.804  0.2662 -0.0862 -0.1655
10923TIP3    H154260   4.458   6.339  13.805 -1.1106 -1.0249  0.0091
10923TIP3    H254261   4.442   6.473  13.874 -1.7002 -2.5847  3.0890
10924TIP3   OH254262   1.951   6.300  15.704  0.1159  0.0281 -0.2566
10924TIP3    H154263   1.953   6.215  15.749  2.5437 -0.3239 -0.8769
10924TIP3    H254264   1.916   6.361  15.768 -0.5160 -1.2235  0.6256
10925TIP3   OH254265   3.529   4.202   3.944  0.2911  0.2440  0.0655
10925TIP3    H154266   3.559   4.150   4.019  0.5867  0.4478  0.0890
10925TIP3    H254267   3.482   4.139   3.889 -0.5962  0.2406  0.7884
10926TIP3   OH254268   3.845   5.560  15.766 -0.0635 -0.1034  0.2866
10926TIP3    H154269   3.760   5.546  15.724 -1.1714 -1.3275  2.7087
10926TIP3    H254270   3.907   5.510  15.713 -1.5145 -2.2439  0.4677
10927TIP3   OH254271   5.861   5.520   6.162 -0.0806  0.1869 -0.0904
10927TIP3    H154272   5.817   5.603   6.180  0.8892  0.5610  0.6359
10927TIP3    H254273   5.799   5.453   6.192 -0.4459  0.6717  0.2522
10928TIP3   OH254274   1.566   2.945   6.080 -0.1173 -0.2758 -0.0509
10928TIP3    H154275   1.596   3.035   6.077  0.4273 -0.3665  1.6849
10928TIP3    H254276   1.481   2.946   6.035 -1.4902  1.6916  2.3641
10929TIP3   OH254277   1.531   3.185  10.392  0.7937 -0.4705  0.9208
10929TIP3    H154278   1.446   3.206  10.353  1.3321  1.1100  0.5128
10929TIP3    H254279   1.577   3.137  10.323  0.0771 -1.7883  1.3241
10930TIP3   OH254280   2.084   5.397   4.206  0.1332 -0.3647 -0.1969
10930TIP3    H154281   2.172   5.399   4.244 -0.1449 -1.3048  0.5330
10930TIP3    H254282   2.091   5.335   4.134 -0.0361 -0.7994  0.1560
10931TIP3   OH254283   6.562   3.086  14.897  0.4313 -0.3120 -0.2180
10931TIP3    H154284   6.486   3.144  14.894  0.4982 -0.2194 -0.1113
10931TIP3    H254285   6.530   3.004  14.860  0.5095 -0.0120 -0.9668
10932TIP3   OH254286   3.487   2.502   2.672 -0.5665  0.4783  0.1579
10932TIP3    H154287   3.466   2.556   2.749  2.0641  0.1639  1.2077
10932TIP3    H254288   3.463   2.413   2.698 -0.5497  0.5072  0.2771
10933TIP3   OH254289   2.487   4.272   5.634 -0.0482  0.4835  0.2958
10933TIP3    H154290   2.418   4.209   5.616  1.6990 -0.8944 -2.1017
10933TIP3    H254291   2.507   4.259   5.727 -2.2814  0.2565  0.8065
10934TIP3   OH254292   3.760   2.016  12.341 -0.0750 -0.4035  0.7708
10934TIP3    H154293   3.753   2.049  12.430 -1.2803 -2.8027  1.6647
10934TIP3    H254294   3.674   1.978  12.322  0.1371  0.0613 -1.4464
10935TIP3   OH254295   3.619   0.798  12.882  0.1421 -0.1034 -0.2279
10935TIP3    H154296   3.561   0.723  12.876 -0.9476  0.6876  0.2159
10935TIP3    H254297   3.657   0.806  12.794 -0.3374 -0.6897 -0.4934
10936TIP3   OH254298   1.180   4.982   2.010  0.4634 -0.3128 -0.3546
10936TIP3    H154299   1.128   4.981   2.090  0.4223  1.3975 -0.3232
10936TIP3    H254300   1.257   5.033   2.033 -0.1421  1.2954 -1.7244
10937TIP3   OH254301   0.659   4.506  11.070 -0.3445  0.1109  0.6057
10937TIP3    H154302   0.641   4.430  11.125  2.0225  0.0824  1.4226
10937TIP3    H254303   0.704   4.568  11.127  0.5374  0.8373 -0.8060
10938TIP3   OH254304   1.185   3.257   4.028  0.1103  0.3688  0.7860
10938TIP3    H154305   1.090   3.261   4.035  0.1854  0.3004  2.0334
10938TIP3    H254306   1.212   3.348   4.017 -0.2052  0.2385 -1.8112
10939TIP3   OH254307   5.475   3.042  15.785 -0.3471 -0.6734 -0.6315
10939TIP3    H154308   5.433   3.125  15.764 -0.9471 -1.4602 -2.8069
10939TIP3    H254309   5.407   2.976  15.769  0.8498 -1.7604 -1.4741
10940TIP3   OH254310   0.620   0.538  14.559  1.1343  0.0515  0.3425
10940TIP3    H154311   0.710   0.518  14.586  1.1679 -0.4485 -0.1185
10940TIP3    H254312   0.564   0.486  14.616  1.1779 -0.4588 -0.0801
10941TIP3   OH254313   3.733   5.053  11.701  0.2259 -0.3107  0.2823
10941TIP3    H154314   3.756   5.144  11.682 -1.1552 -0.1046 -0.6047
10941TIP3    H254315   3.777   5.033  11.783  1.8501  0.6320 -0.3284
10942TIP3   OH254316   0.035   3.621  10.528 -0.2662  0.3327 -0.4778
10942TIP3    H154317  -0.027   3.556  10.496  0.9290  0.0988 -2.4195
10942TIP3    H254318   0.078   3.655  10.450  2.4538  0.0860  0.7806
10943TIP3   OH254319   6.094   0.965   1.974 -0.1201  0.1335  0.5941
10943TIP3    H154320   6.054   0.903   1.912  0.4443 -1.2009  1.5018
10943TIP3    H254321   6.024   0.985   2.036 -0.0496 -0.3592  0.8397
10944TIP3   OH254322   3.272   6.200   5.493 -0.5403 -0.4343  0.4519
10944TIP3    H154323   3.230   6.120   5.461  0.8809 -1.0386  0.0398
10944TIP3    H254324   3.325   6.231   5.420 -0.9943  0.8490  0.6417
10945TIP3   OH254325   2.216   2.884  14.422  0.1760  0.5632  0.3229
10945TIP3    H154326   2.136   2.855  14.378  1.2088 -0.4313 -0.9873
10945TIP3    H254327   2.185   2.931  14.499 -1.6782  0.8936 -0.5687
10946TIP3   OH254328   6.533   0.105  15.531 -0.2506  0.3400 -0.0921
10946TIP3    H154329   6.571   0.118  15.444 -0.3605  1.2366 -0.0112
10946TIP3    H254330   6.455   0.052  15.515 -0.1683  0.3394 -0.5178
10947TIP3   OH254331   0.556   2.968  16.816 -0.2735 -0.2344 -0.6147
10947TIP3    H154332   0.651   2.959  16.823 -0.0623  1.6949 -0.3964
10947TIP3    H254333   0.522   2.881  16.837  1.4541 -1.1650 -1.4327
10948TIP3   OH254334   5.658   4.403  16.749 -0.0043 -0.0122 -0.2670
10948TIP3    H154335   5.668   4.310  16.731 -0.0618  0.2418 -1.7751
10948TIP3    H254336   5.746   4.439  16.740 -0.2204  0.3073 -1.3185
10949TIP3   OH254337   4.534   0.306  12.695  0.1236  0.1768  0.0848
10949TIP3    H154338   4.604   0.353  12.741 -0.0898 -1.1424  1.8606
10949TIP3    H254339   4.475   0.277  12.764 -0.5028 -1.4698 -1.0723
10950TIP3   OH254340   1.887   6.013   1.078 -0.1335  0.0150  0.3398
10950TIP3    H154341   1.889   6.041   1.169  0.1923  1.5866 -0.1057
10950TIP3    H254342   1.875   5.918   1.081 -0.2481  0.0616  1.9991
10951TIP3   OH254343   1.763   0.984   5.462  0.1273  0.0012  0.1907
10951TIP3    H154344   1.735   1.074   5.481  0.1322  0.2868 -1.0428
10951TIP3    H254345   1.737   0.934   5.538 -1.8273  0.6554 -0.0002
10952TIP3   OH254346   2.196   6.429   0.216  0.4648 -0.0415 -0.6092
10952TIP3    H154347   2.156   6.379   0.287  1.1072 -0.1607 -0.3158
10952TIP3    H254348   2.290   6.415   0.228  0.6162  0.6370 -0.9717
10953TIP3   OH254349   5.988   6.575   0.282 -0.0347  0.0866  0.2610
10953TIP3    H154350   6.075   6.584   0.244 -1.1176  1.5751 -2.0396
10953TIP3    H254351   5.954   6.493   0.246 -1.1279  1.5780 -2.3833
10954TIP3   OH254352   4.875   0.278   3.898  0.8402  0.6941  0.4268
10954TIP3    H154353   4.905   0.357   3.944 -0.0927  0.7810  0.8945
10954TIP3    H254354   4.786   0.298   3.870  0.7191 -0.0661  0.2440
10955TIP3   OH254355   5.514   3.865  12.205 -0.0521  0.2865  0.0283
10955TIP3    H154356   5.462   3.791  12.175  2.1178 -1.2839 -0.0797
10955TIP3    H254357   5.515   3.858  12.300  0.6510 -0.2110 -0.0086
10956TIP3   OH254358   2.353   1.779  11.721 -0.2583  0.2216  0.0530
10956TIP3    H154359   2.423   1.714  11.723 -0.7867 -0.5001 -2.0882
10956TIP3    H254360   2.384   1.850  11.778  0.0959 -2.0549  2.8955
10957TIP3   OH254361   6.017   4.230  11.676 -0.4829 -0.1210  0.6024
10957TIP3    H154362   6.004   4.279  11.757 -0.0247 -1.5585  1.5834
10957TIP3    H254363   6.083   4.279  11.628 -1.4757  1.2840  0.6170
10958TIP3   OH254364   3.940   6.351   4.783  0.2741  0.5013 -0.6273
10958TIP3    H154365   3.913   6.289   4.715  0.4070  1.3493 -1.4603
10958TIP3    H254366   3.905   6.435   4.755  2.0620  1.2620 -0.7098
10959TIP3   OH254367   6.723   6.834  16.006  0.3649 -0.6496  0.1410
10959TIP3    H154368   6.788   6.845  16.076  0.4771 -2.8369  0.4440
10959TIP3    H254369   6.765   6.874  15.929  0.9062  0.3654  0.9297
10960TIP3   OH254370   1.131   6.152   1.845  0.3156  0.2505 -0.0580
10960TIP3    H154371   1.224   6.170   1.832  0.3833  0.0055  0.0891
10960TIP3    H254372   1.109   6.084   1.782  0.7193 -1.1631  1.2754
10961TIP3   OH254373   5.440   6.373   2.296 -0.2764  0.4413 -0.1593
10961TIP3    H154374   5.410   6.353   2.385  0.8755 -0.0277  0.1361
10961TIP3    H254375   5.532   6.395   2.306 -0.0040 -0.1019 -1.3073
10962TIP3   OH254376   6.353   5.688  15.699 -0.0529  0.0351 -0.1987
10962TIP3    H154377   6.424   5.697  15.763  0.0691  0.1207 -0.3459
10962TIP3    H254378   6.278   5.657  15.751  0.0251  0.1721 -0.0017
10963TIP3   OH254379   0.990   4.880   1.837  0.3784 -0.0320 -0.0106
10963TIP3    H154380   1.041   4.934   1.898 -0.9707  0.3179  0.8563
10963TIP3    H254381   1.050   4.810   1.811  1.2017  0.1832  1.2203
10964TIP3   OH254382   3.799   2.586   4.951 -0.3646  0.0344  0.4430
10964TIP3    H154383   3.729   2.650   4.965 -0.6954 -0.3754  0.6961
10964TIP3    H254384   3.759   2.502   4.973  0.3464 -0.1506  1.0613
10965TIP3   OH254385   3.787   3.199  16.192  0.5159  0.3393 -0.3576
10965TIP3    H154386   3.732   3.122  16.207 -1.2517  1.3624 -1.1679
10965TIP3    H254387   3.872   3.164  16.168 -1.0852 -1.5160 -4.1061
10966TIP3   OH254388   3.140   6.501   3.311  0.0383 -0.0410 -0.2942
10966TIP3    H154389   3.057   6.506   3.263 -0.5441 -0.1172  0.6791
10966TIP3    H254390   3.126   6.556   3.388 -0.0564 -2.1534  1.2575
10967TIP3   OH254391   1.312   2.771  12.358 -0.3943 -0.3450 -0.1783
10967TIP3    H154392   1.260   2.716  12.300 -2.2074 -0.3541  1.3546
10967TIP3    H254393   1.273   2.858  12.351  0.6679  0.1272 -0.4746
10968TIP3   OH254394   2.804   3.624   1.062  0.3262 -0.2054 -0.0097
10968TIP3    H154395   2.837   3.574   1.136 -0.0866  0.9143  0.9666
10968TIP3    H254396   2.861   3.701   1.058 -1.9321  1.6814  1.6026
10969TIP3   OH254397   2.727   5.158  12.928 -0.3946  0.4368  1.0005
10969TIP3    H154398   2.657   5.189  12.985  0.1226  0.6983  1.4970
10969TIP3    H254399   2.708   5.197  12.843 -0.8608  0.4939  1.1309
10970TIP3   OH254400   1.199   5.371   3.368 -0.3682 -0.1472 -0.0478
10970TIP3    H154401   1.286   5.399   3.396  0.5831 -3.7004  1.0661
10970TIP3    H254402   1.144   5.383   3.446 -0.3583  0.1238 -0.0829
10971TIP3   OH254403   5.539   3.793   4.903 -0.2836  0.1514  0.7305
10971TIP3    H154404   5.624   3.758   4.875 -0.1500  0.0421  1.2710
10971TIP3    H254405   5.553   3.822   4.993 -0.9873 -0.4583  1.0471
10972TIP3   OH254406   1.238   3.915  16.216 -0.0671 -0.3545 -0.2046
10972TIP3    H154407   1.160   3.969  16.228  0.0729  0.0916 -1.2250
10972TIP3    H254408   1.219   3.835  16.265  0.1678  1.0121  2.2934
10973TIP3   OH254409   2.439   3.188  11.496 -0.2841 -0.4450  0.6661
10973TIP3    H154410   2.443   3.110  11.441  0.2905 -0.5461  0.8432
10973TIP3    H254411   2.360   3.234  11.467  1.1173  0.6475 -1.8206
10974TIP3   OH254412   6.193   6.239   5.213 -0.3873  0.5258  0.1198
10974TIP3    H154413   6.145   6.239   5.130  1.2632  1.5184 -0.8961
10974TIP3    H254414   6.174   6.324   5.252  0.4867  0.9173 -0.2791
10975TIP3   OH254415   3.706   5.745   4.180  0.5882  0.1334  0.0427
10975TIP3    H154416   3.711   5.653   4.203 -1.2802  0.1159  0.5313
10975TIP3    H254417   3.713   5.747   4.085 -0.2541 -0.6079 -0.0430
10976TIP3   OH254418   2.612   2.117   2.161  0.4069 -0.0606 -0.2757
10976TIP3    H154419   2.552   2.107   2.086 -0.1244  0.1341  0.1138
10976TIP3    H254420   2.570   2.183   2.216  2.7365  2.8831 -1.7604
10977TIP3   OH254421   5.275   3.083  15.022  0.0375  0.0673 -0.0960
10977TIP3    H154422   5.192   3.101  14.977  1.1567  0.7550 -2.0042
10977TIP3    H254423   5.305   3.001  14.983  1.0727  0.7245 -0.7115
10978TIP3   OH254424   3.197   1.883   4.442 -1.0331  0.3564 -0.1076
10978TIP3    H154425   3.249   1.960   4.418 -1.6118  0.3243 -1.5794
10978TIP3    H254426   3.138   1.914   4.510  0.3504  0.5907  1.0341
10979TIP3   OH254427   4.568   4.232  11.548 -0.0987 -0.1034  0.0618
10979TIP3    H154428   4.522   4.167  11.603  1.6977 -2.3394 -0.9018
10979TIP3    H254429   4.629   4.275  11.608  1.6067 -2.2907  0.0548
10980TIP3   OH254430   4.522   1.621  14.068 -0.3162 -0.2476  0.0426
10980TIP3    H154431   4.593   1.676  14.099  0.3109 -1.9089  1.7788
10980TIP3    H254432   4.559   1.573  13.994  0.5703 -1.4167  1.2017
10981TIP3   OH254433   2.060   6.263  15.261  0.4687 -0.2880  0.0156
10981TIP3    H154434   2.132   6.327  15.259 -0.0664  0.3124 -1.4574
10981TIP3    H254435   1.995   6.302  15.319  0.8192 -0.2632  0.4004
10982TIP3   OH254436   3.969   1.979  10.865  0.5053  0.5493 -0.2606
10982TIP3    H154437   3.921   1.975  10.948  1.2136  1.5680  0.2251
10982TIP3    H254438   4.061   1.988  10.890  0.6070  2.5003 -1.0870
10983TIP3   OH254439   4.264   4.636  12.886  0.2497  0.0418 -0.4223
10983TIP3    H154440   4.339   4.598  12.841  0.0908 -0.9227  0.1020
10983TIP3    H254441   4.273   4.606  12.977  0.6300  2.0234  0.2476
10984TIP3   OH254442   5.850   0.839  13.894 -0.0198  0.0231  0.5240
10984TIP3    H154443   5.893   0.753  13.891 -0.6639 -0.2995  0.4344
10984TIP3    H254444   5.890   0.887  13.822  0.2661 -0.2382  0.5032
10985TIP3   OH254445   0.240   1.244  13.136 -0.0245 -0.0388  0.8057
10985TIP3    H154446   0.273   1.177  13.196 -1.4396 -1.5531 -0.0639
10985TIP3    H254447   0.314   1.304  13.125  1.5827 -1.9366  0.8834
10986TIP3   OH254448   5.038   2.215  11.058  0.2937 -0.3897 -0.5043
10986TIP3    H154449   5.111   2.156  11.039  0.3248 -0.2517 -0.8256
10986TIP3    H254450   5.078   2.301  11.071  0.4280 -0.7296  1.6528
10987TIP3   OH254451   0.855   4.447  13.297  0.2789 -0.0388 -0.2313
10987TIP3    H154452   0.900   4.389  13.236  0.3474 -0.2997  0.0673
10987TIP3    H254453   0.822   4.390  13.366 -1.6085 -0.0235 -1.0835
10988TIP3   OH254454   0.630   0.675   5.897 -0.2085  0.2623 -0.4353
10988TIP3    H154455   0.641   0.601   5.956  0.8361  0.1859 -0.6929
10988TIP3    H254456   0.654   0.752   5.949 -0.1599  0.2903 -0.4978
10989TIP3   OH254457   5.283   2.443  13.808 -0.5187  0.4548  0.0640
10989TIP3    H154458   5.194   2.479  13.804  0.3051  2.7524  0.7805
10989TIP3    H254459   5.314   2.464  13.896  0.8357 -0.0403 -0.2637
10990TIP3   OH254460   4.312   4.377   3.599  0.1082  0.0138  0.0221
10990TIP3    H154461   4.227   4.416   3.583  0.7552  0.7827 -1.8999
10990TIP3    H254462   4.297   4.312   3.668 -1.7563  0.9625  0.5681
10991TIP3   OH254463   4.682   2.676  12.945  0.1943 -0.0870 -0.5835
10991TIP3    H154464   4.753   2.738  12.928  0.4252 -0.4808 -1.0873
10991TIP3    H254465   4.630   2.676  12.865 -0.7006  0.6076 -0.0169
10992TIP3   OH254466   0.103   0.997   2.595  0.1288  0.3307  0.5846
10992TIP3    H154467   0.111   0.905   2.620  0.3897 -0.1317 -1.0737
10992TIP3    H254468   0.044   1.034   2.660 -0.3897 -1.1333  0.9950
10993TIP3   OH254469   1.542   5.290   2.771  0.3459  0.5426  0.4560
10993TIP3    H154470   1.597   5.310   2.846 -0.0621 -1.4964  1.3774
10993TIP3    H254471   1.490   5.214   2.799  0.0937 -0.2098 -1.8372
10994TIP3   OH254472   3.092   5.116  10.871 -0.5516  0.3647  0.1136
10994TIP3    H154473   3.005   5.075  10.871 -0.9736  1.1899  1.2808
10994TIP3    H254474   3.076   5.207  10.846  0.0222  0.4555  0.0531
10995TIP3   OH254475   3.940   3.446  12.545 -0.2420  0.3313  0.3461
10995TIP3    H154476   3.979   3.469  12.629 -0.9104  0.4737  0.6229
10995TIP3    H254477   3.985   3.365  12.519  0.9531  1.0391  0.1526
10996TIP3   OH254478   0.385   4.986   3.351 -0.2011  0.2067 -0.8456
10996TIP3    H154479   0.427   5.072   3.352  3.8010 -1.5505 -0.9781
10996TIP3    H254480   0.349   4.976   3.439 -0.2775  1.7419 -0.6696
10997TIP3   OH254481   0.819   4.389  10.813  0.1703 -0.3076 -0.9124
10997TIP3    H154482   0.800   4.407  10.905 -0.0833  3.7908 -1.6196
10997TIP3    H254483   0.907   4.351  10.814  0.3747  0.1032  0.9891
10998TIP3   OH254484   2.225   4.991   5.054 -0.2604  0.1633  0.0263
10998TIP3    H154485   2.296   4.973   5.117 -1.6802 -0.3915  1.5253
10998TIP3    H254486   2.260   5.060   4.999  1.5375 -0.2284  0.5988
10999TIP3   OH254487   4.731   3.637  11.166  0.0019  0.3931 -0.2867
10999TIP3    H154488   4.755   3.605  11.079  1.3335 -0.3654  0.3305
10999TIP3    H254489   4.804   3.693  11.192  1.0112 -1.5878  1.4445
11000TIP3   OH254490   4.941   5.186  15.781 -0.9733  0.2415 -0.0487
11000TIP3    H154491   4.926   5.270  15.826 -0.2669 -0.8836  2.4703
11000TIP3    H254492   5.023   5.153  15.819 -1.1060 -1.4884 -1.1673
11001TIP3   OH254493   1.240   2.242   1.510 -0.3550 -0.3408 -0.0112
11001TIP3    H154494   1.283   2.193   1.581 -1.2330  0.4027  1.0670
11001TIP3    H254495   1.259   2.191   1.431  0.8076 -1.0930  0.7208
11002TIP3   OH254496   4.887   5.719  12.909 -0.0138  0.3135  0.2151
11002TIP3    H154497   4.844   5.633  12.904 -0.0634  0.3631 -0.2354
11002TIP3    H254498   4.976   5.703  12.878 -0.6808  0.8695 -2.1163
11003TIP3   OH254499   0.166   3.847  16.041  0.2320  0.3005 -0.1472
11003TIP3    H154500   0.176   3.869  15.948  0.9026  0.6469 -0.0054
11003TIP3    H254501   0.087   3.794  16.045  0.1286  0.3817 -0.9020
11004TIP3   OH254502   1.584   0.547   1.631  0.0515  0.4275  0.3253
11004TIP3    H154503   1.553   0.635   1.607 -1.2041  0.4042  1.6910
11004TIP3    H254504   1.614   0.557   1.721  1.3341 -0.2331 -0.0098
11005TIP3   OH254505   4.297   6.584   0.640  0.0194 -0.3281  0.2740
11005TIP3    H154506   4.386   6.583   0.602 -0.6613 -0.4850 -1.4163
11005TIP3    H254507   4.298   6.657   0.702  1.1418  0.0863 -0.2044
11006TIP3   OH254508   0.354   6.183  16.155 -0.6278  0.5983 -1.2165
11006TIP3    H154509   0.434   6.171  16.205 -0.9897  1.7980 -0.2913
11006TIP3    H254510   0.319   6.094  16.144  1.5427 -0.1414 -2.9643
11007TIP3   OH254511   0.134   1.772   3.474 -0.1467  0.5820 -0.1282
11007TIP3    H154512   0.217   1.751   3.517  0.3573  1.7451 -0.4662
11007TIP3    H254513   0.070   1.772   3.545  0.2928  0.4657  0.2814
11008TIP3   OH254514   6.508   3.282   0.518 -0.3584  0.0625  0.1045
11008TIP3    H154515   6.601   3.272   0.537 -0.0614  0.7848 -0.8653
11008TIP3    H254516   6.479   3.354   0.574 -0.5204 -0.6550  0.9564
11009TIP3   OH254517   3.448   4.866  14.562  0.2501  0.1768 -0.1403
11009TIP3    H154518   3.366   4.818  14.572  1.5786 -2.1241  0.3887
11009TIP3    H254519   3.466   4.863  14.468  0.0257  0.1857 -0.1835
11010TIP3   OH254520   4.454   3.752   2.668 -0.1827 -0.3433  0.2565
11010TIP3    H154521   4.540   3.757   2.709 -0.0358  0.1193 -0.0981
11010TIP3    H254522   4.454   3.822   2.602 -0.8800 -0.2463  0.3470
11011TIP3   OH254523   2.686   1.109  15.159  0.3646 -0.4580 -0.2534
11011TIP3    H154524   2.629   1.077  15.228  0.6961 -0.1513  0.1660
11011TIP3    H254525   2.774   1.108  15.197  0.6311 -0.8264 -0.8583
11012TIP3   OH254526   1.253   4.204   2.536 -0.3304 -0.1288 -0.6436
11012TIP3    H154527   1.204   4.170   2.461 -0.1467  0.5854 -1.1003
11012TIP3    H254528   1.327   4.250   2.497 -0.5782  0.7960 -0.0475
11013TIP3   OH254529   5.978   5.739  14.103  0.7808  0.3681  0.0167
11013TIP3    H154530   5.982   5.754  14.197  0.1178  1.6666 -0.1437
11013TIP3    H254531   5.885   5.746  14.081  0.7907 -0.9706 -0.5933
11014TIP3   OH254532   3.514   2.238   4.756  0.1557 -0.0107  0.0253
11014TIP3    H154533   3.566   2.235   4.836  0.6253  2.3615 -0.1096
11014TIP3    H254534   3.495   2.147   4.735 -2.1591 -0.7149  4.1792
11015TIP3   OH254535   1.113   3.099  12.579 -0.2318 -0.3347  0.6058
11015TIP3    H154536   1.109   3.182  12.532  0.6980 -0.1961  0.7564
11015TIP3    H254537   1.079   3.119  12.666  0.4404  0.0162  0.7973
11016TIP3   OH254538   5.501   4.855  12.521  0.5716  0.6534  0.0747
11016TIP3    H154539   5.523   4.838  12.429  0.7317  0.4796  0.1438
11016TIP3    H254540   5.583   4.882  12.561  0.7435 -0.3103  0.4062
11017TIP3   OH254541   5.722   6.006  13.823 -0.4573 -1.2351 -0.5053
11017TIP3    H154542   5.652   6.064  13.856  0.6123  0.0702 -0.4396
11017TIP3    H254543   5.800   6.033  13.871  0.3135 -1.9716 -1.3119
11018TIP3   OH254544   1.997   0.713   1.490  0.4891 -0.0888 -0.3929
11018TIP3    H154545   2.050   0.654   1.544  1.1218 -0.5623 -1.4840
11018TIP3    H254546   2.061   0.764   1.440  0.0124 -1.6378 -2.7747
11019TIP3   OH254547   2.517   5.124  13.719  0.7200 -0.0009  0.3499
11019TIP3    H154548   2.576   5.051  13.735 -0.1574 -0.6209  0.8804
11019TIP3    H254549   2.472   5.137  13.803  0.6043  0.9098  0.1608
11020TIP3   OH254550   3.963   5.686   4.446  0.6024 -0.2148  0.4451
11020TIP3    H154551   3.922   5.632   4.379  0.7016  0.1517  0.0813
11020TIP3    H254552   4.042   5.638   4.471  1.1374  0.1440 -0.4739
11021TIP3   OH254553   1.415   0.681   4.009 -0.0307 -0.1057  0.1768
11021TIP3    H154554   1.408   0.588   3.988  1.2863 -0.0815 -0.4667
11021TIP3    H254555   1.375   0.726   3.934 -0.6971 -0.1451  0.5031
11022TIP3   OH254556   2.340   1.249   3.505 -0.7714  0.0169 -0.1125
11022TIP3    H154557   2.399   1.298   3.561  0.9692 -1.4156 -0.6123
11022TIP3    H254558   2.287   1.196   3.564 -0.9388  0.6433  0.2991
11023TIP3   OH254559   2.537   6.846   2.993 -0.2462 -0.4697 -1.2487
11023TIP3    H154560   2.457   6.896   3.007 -0.7382 -1.3550 -0.8288
11023TIP3    H254561   2.589   6.901   2.934 -0.0979  1.2214  0.3592
11024TIP3   OH254562   3.372   0.153   0.217  0.2118  0.0589 -0.0295
11024TIP3    H154563   3.352   0.212   0.144 -0.8110  0.4075  0.5087
11024TIP3    H254564   3.457   0.116   0.195 -0.0111  0.2592 -1.3403
11025TIP3   OH254565   4.143   2.523  11.308 -0.6088  0.4050  0.0027
11025TIP3    H154566   4.107   2.443  11.271 -0.5888 -0.0562  0.9621
11025TIP3    H254567   4.108   2.528  11.397  0.4883  0.7119  0.4489
11026TIP3   OH254568   2.571   5.840  12.098 -0.1035  0.5607 -0.0794
11026TIP3    H154569   2.534   5.880  12.019 -1.9363 -0.1063  0.3876
11026TIP3    H254570   2.496   5.797  12.140  1.3928 -1.7124  0.4318
11027TIP3   OH254571   0.314   2.952  13.894  0.2297  0.0398 -0.6753
11027TIP3    H154572   0.223   2.924  13.886 -0.4286  0.9183  2.5144
11027TIP3    H254573   0.311   3.047  13.882  0.4824  0.2384  0.6679
11028TIP3   OH254574   5.338   1.978   1.390  0.0800 -0.0802  0.2254
11028TIP3    H154575   5.423   1.980   1.433  0.4303 -0.2860 -0.4477
11028TIP3    H254576   5.279   2.023   1.451  1.1105  2.0887 -0.2846
11029TIP3   OH254577   3.011   5.166  14.581 -0.1752  0.3808  0.2635
11029TIP3    H154578   3.031   5.112  14.658  1.0379  2.4478  1.4921
11029TIP3    H254579   3.089   5.220  14.568 -1.2204  1.6768 -1.0246
11030TIP3   OH254580   1.743   0.016  11.403  0.2985  0.1285 -0.2807
11030TIP3    H154581   1.662   0.040  11.358  0.4064  0.9009 -0.0843
11030TIP3    H254582   1.808   0.078  11.371  0.6665 -0.0908  0.0262
11031TIP3   OH254583   3.612   5.974   0.378 -0.2845  0.1006 -0.3194
11031TIP3    H154584   3.618   6.009   0.467  0.1996  0.2952 -0.4274
11031TIP3    H254585   3.527   5.931   0.376 -0.1836 -0.1482  0.3249
11032TIP3   OH254586   5.485   0.297  15.932 -0.4199  0.6196 -0.1995
11032TIP3    H154587   5.560   0.283  15.988 -0.0163  0.6320 -0.7296
11032TIP3    H254588   5.418   0.237  15.964 -0.2925  0.8258  0.4644
11033TIP3   OH254589   1.667   5.931  14.592  0.1808 -0.4929  0.1427
11033TIP3    H154590   1.573   5.936  14.574  0.2590 -2.2920 -1.0183
11033TIP3    H254591   1.678   5.847  14.637  1.2855 -0.5187 -0.1494
11034TIP3   OH254592   0.713   2.207   2.368  0.0120 -0.2904 -0.1964
11034TIP3    H154593   0.707   2.212   2.464  0.2323 -2.1655 -0.0561
11034TIP3    H254594   0.622   2.215   2.338  0.0351  1.4226  0.0592
11035TIP3   OH254595   1.695   4.615  12.020 -0.3805 -0.2009  0.3270
11035TIP3    H154596   1.695   4.666  12.100 -0.0139 -2.3628  1.7973
11035TIP3    H254597   1.748   4.666  11.959 -0.6118  1.4724  1.4470
11036TIP3   OH254598   0.378   2.124  13.161 -0.4404 -0.1598  0.1455
11036TIP3    H154599   0.440   2.183  13.117 -0.6192 -0.1204 -0.0510
11036TIP3    H254600   0.389   2.144  13.254  1.7282 -1.9413  0.3706
11037TIP3   OH254601   1.812   4.810  13.418  0.5152  0.5673  0.1723
11037TIP3    H154602   1.744   4.874  13.394 -0.6601 -0.7876 -0.3183
11037TIP3    H254603   1.875   4.815  13.346  1.0248  1.9413  0.6950
11038TIP3   OH254604   2.760   3.729  13.019  0.3495 -0.7363 -0.0936
11038TIP3    H154605   2.819   3.700  13.088 -0.2966 -0.1183  0.7451
11038TIP3    H254606   2.770   3.664  12.949  1.3063 -1.1504  0.4141
11039TIP3   OH254607   0.464   3.134   3.512  0.3027  0.3555  0.2341
11039TIP3    H154608   0.557   3.139   3.532  0.0948 -1.5094  1.9785
11039TIP3    H254609   0.422   3.188   3.579  0.0900  1.3311 -0.6486
11040TIP3   OH254610   6.087   1.729  17.068 -0.1364  0.2066  0.1956
11040TIP3    H154611   6.129   1.678  17.136  1.1503  1.6995  0.5944
11040TIP3    H254612   6.003   1.686  17.053  0.8348 -1.9224  0.5441
11041TIP3   OH254613   2.891   3.332   1.282 -0.3194  0.0076 -0.3119
11041TIP3    H154614   2.847   3.291   1.356  1.5592 -0.5808  0.5131
11041TIP3    H254615   2.956   3.268   1.253 -0.4175  0.5821 -1.9308
11042TIP3   OH254616   5.883   6.795  15.364 -0.0903  0.1281  0.3082
11042TIP3    H154617   5.847   6.747  15.438 -0.8423  0.7395  0.3458
11042TIP3    H254618   5.835   6.761  15.288  1.5135 -1.3775 -0.1018
11043TIP3   OH254619   0.920   1.320   4.564 -0.0032 -0.3856  0.7496
11043TIP3    H154620   1.002   1.283   4.532  0.9445  1.4546  0.9176
11043TIP3    H254621   0.856   1.299   4.496  1.0830 -0.0481 -0.4127
11044TIP3   OH254622   1.552   3.380  16.782 -0.6524 -0.4479 -0.4067
11044TIP3    H154623   1.617   3.435  16.825 -0.2903 -0.2926 -1.1543
11044TIP3    H254624   1.476   3.383  16.841 -0.0162 -0.5801  0.4360
11045TIP3   OH254625   4.471   0.555   2.026 -0.0368  0.0373  0.7481
11045TIP3    H154626   4.561   0.564   2.059  0.1620  0.9503  0.0166
11045TIP3    H254627   4.478   0.572   1.932 -1.0363  0.5918  0.7565
11046TIP3   OH254628   4.009   1.564   2.486 -0.4838  0.0963  0.4023
11046TIP3    H154629   4.067   1.496   2.452  2.2925  1.3900  2.1737
11046TIP3    H254630   3.986   1.616   2.408  0.0261 -0.9681 -0.4928
11047TIP3   OH254631   3.180   5.838   2.006 -0.1673  0.5455  0.0833
11047TIP3    H154632   3.163   5.850   1.912 -2.2855 -0.6695  0.2311
11047TIP3    H254633   3.107   5.883   2.049  1.3989  2.1090  1.2583
11048TIP3   OH254634   0.501   4.921   4.593 -0.2252 -0.0149 -0.1957
11048TIP3    H154635   0.565   4.876   4.538  0.7632 -1.0038  1.6610
11048TIP3    H254636   0.477   4.857   4.659 -1.9095  0.8971  0.1268
11049TIP3   OH254637   6.263   5.887   3.346 -0.3834 -0.2832 -0.1515
11049TIP3    H154638   6.355   5.882   3.371  0.1534  1.5240 -1.5239
11049TIP3    H254639   6.218   5.910   3.427  0.4913 -0.2985  0.3546
11050TIP3   OH254640   3.530   1.716   1.277 -0.2837 -0.3078 -0.1386
11050TIP3    H154641   3.454   1.698   1.332 -0.1844  0.5198  0.2824
11050TIP3    H254642   3.601   1.667   1.319  0.1153  1.4276  1.3440
11051TIP3   OH254643   3.849   3.353   4.588  0.8677 -0.3358 -0.0114
11051TIP3    H154644   3.870   3.280   4.647 -1.6359 -2.0351 -1.0740
11051TIP3    H254645   3.811   3.312   4.511 -1.8950  2.0984 -0.1346
11052TIP3   OH254646   5.986   3.352   6.066  0.5364 -0.4263  0.2147
11052TIP3    H154647   6.001   3.416   6.135 -2.5300  1.4231 -0.6279
11052TIP3    H254648   5.992   3.267   6.110 -2.4577  0.6762  3.1853
11053TIP3   OH254649   5.616   0.331   2.513 -0.0381 -0.2261  0.2287
11053TIP3    H154650   5.677   0.262   2.539  0.5948 -0.4159 -1.5866
11053TIP3    H254651   5.613   0.391   2.588 -0.3604 -2.0333  1.7293
11054TIP3   OH254652   5.826   4.549   4.346 -0.1678  0.5915  0.4842
11054TIP3    H154653   5.863   4.510   4.267 -0.0785 -0.2670  0.9422
11054TIP3    H254654   5.836   4.644   4.334 -0.4564  0.4838 -0.6774
11055TIP3   OH254655   3.629   1.435   3.751  0.0777 -0.4817 -0.0530
11055TIP3    H154656   3.553   1.425   3.693 -1.8595 -1.2368  2.4362
11055TIP3    H254657   3.671   1.349   3.750  1.1967  0.0294 -1.6945
11056TIP3   OH254658   1.121   0.865   1.643 -0.4561  0.1799 -0.2788
11056TIP3    H154659   1.086   0.954   1.633 -0.5330  0.2196  0.3083
11056TIP3    H254660   1.046   0.808   1.628 -0.6462  0.2484  0.3751
11057TIP3   OH254661   4.018   0.850  15.131  0.2471 -0.2804  0.0341
11057TIP3    H154662   4.005   0.944  15.144  2.5230  0.2723 -1.2067
11057TIP3    H254663   4.109   0.842  15.104 -0.1257 -2.7801 -0.7159
11058TIP3   OH254664   1.634   2.841   2.011 -0.2077 -0.5005  0.0020
11058TIP3    H154665   1.632   2.837   1.916 -1.5569 -1.5586  0.0387
11058TIP3    H254666   1.561   2.786   2.039  1.2204 -1.6492  1.6911
11059TIP3   OH254667   5.473   5.363  16.452 -0.1608 -0.1944 -0.1583
11059TIP3    H154668   5.381   5.348  16.431 -0.3148  0.4258  0.0652
11059TIP3    H254669   5.509   5.275  16.467 -0.2652 -0.6066 -2.0237
11060TIP3   OH254670   1.274   0.077  12.532  0.3745  0.5059 -0.4206
11060TIP3    H154671   1.246   0.102  12.620 -0.5593 -2.3226  0.1958
11060TIP3    H254672   1.228   0.138  12.473 -0.7458  1.0444  0.9596
11061TIP3   OH254673   5.833   1.756  11.567  0.0812  0.2090  0.1412
11061TIP3    H154674   5.914   1.804  11.582  0.8410 -1.4538  1.7677
11061TIP3    H254675   5.797   1.742  11.654 -1.6143  0.3047 -0.5059
11062TIP3   OH254676   4.820   1.032  13.272  0.0538  0.7234 -0.1217
11062TIP3    H154677   4.916   1.022  13.275  0.3573  3.2371  0.5198
11062TIP3    H254678   4.789   0.950  13.234  2.5028  0.0305 -0.8080
11063TIP3   OH254679   3.336   2.658   5.196 -0.5556  0.9663 -0.2508
11063TIP3    H154680   3.374   2.726   5.141  0.2375  1.0585  0.4018
11063TIP3    H254681   3.410   2.607   5.228 -1.0615  0.4343  0.1077
11064TIP3   OH254682   1.293   4.520  13.693 -0.0913 -0.0316  0.8013
11064TIP3    H154683   1.349   4.501  13.769  1.2404  0.4201 -0.0209
11064TIP3    H254684   1.340   4.480  13.619  0.1469  1.9761 -0.1948
11065TIP3   OH254685   3.792   1.412   1.777  0.1238  0.2837  0.1151
11065TIP3    H154686   3.723   1.461   1.823  1.0083 -0.0646  1.8951
11065TIP3    H254687   3.866   1.412   1.838  0.6830 -1.9243 -0.4605
11066TIP3   OH254688   1.986   3.774  11.457  0.3428 -0.0446 -0.3840
11066TIP3    H154689   2.010   3.721  11.533 -0.7396 -0.3978 -0.2677
11066TIP3    H254690   1.908   3.822  11.486 -0.4964 -0.7009 -1.4730
11067TIP3   OH254691   1.247   3.709  11.127  0.1600  0.3876  0.5475
11067TIP3    H154692   1.191   3.663  11.065  1.4500 -0.4768 -0.0068
11067TIP3    H254693   1.278   3.640  11.187  4.1830 -0.1331 -1.8015
11068TIP3   OH254694   5.218   4.028  12.355 -0.3771  0.5512  0.3663
11068TIP3    H154695   5.169   4.095  12.403 -0.4796  0.3173  0.5865
11068TIP3    H254696   5.157   3.999  12.287  0.2818  1.9583 -0.8943
11069TIP3   OH254697   3.739   1.132   4.925 -0.0659  0.1218  0.0376
11069TIP3    H154698   3.709   1.105   4.838 -0.3298 -1.8279  0.6769
11069TIP3    H254699   3.711   1.223   4.933 -0.3996  0.2105 -1.7468
11070TIP3   OH254700   1.178   4.554   5.070  0.0765 -0.0018  0.2710
11070TIP3    H154701   1.085   4.572   5.053  0.3453 -0.1461 -1.5500
11070TIP3    H254702   1.224   4.602   5.002  1.2805 -0.7598  0.5261
11071TIP3   OH254703   5.796   1.653  10.387  0.7078  0.3977  0.0825
11071TIP3    H154704   5.792   1.748  10.391 -0.6971  0.3949 -0.6815
11071TIP3    H254705   5.833   1.634  10.301  0.2007  0.2553 -0.1074
11072TIP3   OH254706   4.757   6.236   4.875  0.4556  0.6326  0.3601
11072TIP3    H154707   4.766   6.144   4.899 -0.8718  0.7382  1.3481
11072TIP3    H254708   4.773   6.237   4.780 -0.2405 -0.7325  0.1959
11073TIP3   OH254709   4.890   6.185   3.590 -0.3189  0.3117  0.0424
11073TIP3    H154710   4.934   6.250   3.534 -1.6545  0.5107 -0.8357
11073TIP3    H254711   4.798   6.209   3.585 -1.0793 -2.4967 -1.5007
11074TIP3   OH254712   2.365   0.303  12.184  0.3937  0.3225 -0.4670
11074TIP3    H154713   2.275   0.270  12.187  0.5667 -0.0908  0.7226
11074TIP3    H254714   2.357   0.397  12.200  0.2050  0.1975  0.2065
11075TIP3   OH254715   4.260   6.060   6.082 -0.4259  0.1760 -0.0818
11075TIP3    H154716   4.296   6.147   6.097  0.5695 -0.2531  0.1131
11075TIP3    H254717   4.173   6.063   6.122 -0.8222  1.3713 -0.9574
11076TIP3   OH254718   5.539   2.289  15.109 -0.0894  0.0875  0.5326
11076TIP3    H154719   5.583   2.280  15.025  0.1006 -0.4270  0.6870
11076TIP3    H254720   5.451   2.321  15.086  0.0043  0.0758  0.1509
11077TIP3   OH254721   4.807   3.139  13.777  0.5852  0.3588 -0.5544
11077TIP3    H154722   4.847   3.112  13.695 -0.7670 -0.6362 -0.9197
11077TIP3    H254723   4.853   3.089  13.844 -1.5086 -2.6699 -1.1680
11078TIP3   OH254724   2.370   4.719   5.266  0.1618 -0.1989 -0.3772
11078TIP3    H154725   2.465   4.708   5.259  0.2260 -2.0191  2.1895
11078TIP3    H254726   2.359   4.792   5.326  0.0700 -2.1277  2.0824
11079TIP3   OH254727   4.858   6.495  15.368 -0.2086  0.3907 -0.0558
11079TIP3    H154728   4.878   6.405  15.396  0.3862  0.9736  1.5426
11079TIP3    H254729   4.941   6.541  15.375 -0.7526  1.3438  0.3613
11080TIP3   OH254730   0.302   2.621  16.177  0.4504 -0.1147 -0.5687
11080TIP3    H154731   0.326   2.664  16.259  1.2611  1.1943 -1.4708
11080TIP3    H254732   0.286   2.530  16.202  1.2581  0.1346  0.9426
11081TIP3   OH254733   2.895   4.356  15.840  0.4263  0.6790 -0.0763
11081TIP3    H154734   2.989   4.354  15.821  0.4467 -1.6772 -0.0931
11081TIP3    H254735   2.857   4.298  15.773 -0.7190 -0.2647  1.3420
11082TIP3   OH254736   4.527   6.830   5.777 -0.4190  0.0393  0.1597
11082TIP3    H154737   4.538   6.797   5.688  1.0692  0.1914  0.2630
11082TIP3    H254738   4.435   6.856   5.782 -0.4467  0.3148 -1.4254
11083TIP3   OH254739   5.561   0.172   0.216  0.0777 -0.2983  0.1579
11083TIP3    H154740   5.566   0.125   0.133 -0.9095 -0.0833 -0.0298
11083TIP3    H254741   5.476   0.148   0.253  0.3559 -0.1200  0.9460
11084TIP3   OH254742   0.121   3.933   0.234 -0.2658 -0.3409  0.5400
11084TIP3    H154743   0.120   3.906   0.326 -0.3678  1.7578  1.1940
11084TIP3    H254744   0.074   3.863   0.189  1.6872 -2.5576  1.6964
11085TIP3   OH254745   3.115   3.783  16.934 -0.3437 -0.3352 -0.0111
11085TIP3    H154746   3.098   3.821  16.848 -2.2912 -0.7015  0.1696
11085TIP3    H254747   3.074   3.696  16.931  2.2933 -1.7046  0.2436
11086TIP3   OH254748   2.673   2.913  13.281 -0.0297 -0.1612  0.1613
11086TIP3    H154749   2.707   2.979  13.219 -1.0259 -0.3319 -0.5919
11086TIP3    H254750   2.681   2.955  13.367 -0.2406  0.7719 -0.2613
11087TIP3   OH254751   1.382   3.582   5.541 -0.3680  0.0568 -0.4441
11087TIP3    H154752   1.349   3.651   5.598  1.0736  0.7676 -0.4070
11087TIP3    H254753   1.305   3.549   5.495 -1.3111  0.5835  0.7189
11088TIP3   OH254754   2.885   6.561  14.573 -0.2605 -0.3672  0.5436
11088TIP3    H154755   2.822   6.624  14.538 -0.2747 -0.7695 -0.1745
11088TIP3    H254756   2.876   6.568  14.668  0.1615  1.1529  0.4993
11089TIP3   OH254757   0.138   6.840  11.272 -0.2158 -0.3646 -0.0395
11089TIP3    H154758   0.211   6.841  11.334 -0.3778 -0.2747  0.1493
11089TIP3    H254759   0.078   6.774  11.307  0.2148 -1.1353 -0.7046
11090TIP3   OH254760   4.026   0.189  12.183 -0.2611 -0.3119 -0.2032
11090TIP3    H154761   4.069   0.104  12.184 -0.9316 -0.6798  1.6094
11090TIP3    H254762   3.961   0.184  12.253 -0.6267  1.5344 -0.3519
11091TIP3   OH254763   4.216   3.413  11.956 -0.2321  0.0558  0.3155
11091TIP3    H154764   4.199   3.419  11.862 -0.3149  0.9453  0.3767
11091TIP3    H254765   4.131   3.395  11.996 -0.1854 -0.3870  0.2165
11092TIP3   OH254766   1.517   2.875   1.736  0.1830 -0.2962 -0.3950
11092TIP3    H154767   1.566   2.880   1.654 -1.3509  0.3097 -1.2914
11092TIP3    H254768   1.442   2.820   1.716 -0.6690  0.5613  0.3495
11093TIP3   OH254769   1.600   3.533   3.035  0.0746 -0.3896  0.4386
11093TIP3    H154770   1.531   3.589   2.999 -0.7671  0.1832  2.7776
11093TIP3    H254771   1.674   3.544   2.975 -0.4156  2.4050  0.2417
11094TIP3   OH254772   1.303   2.980  17.057  0.3119  0.0826  0.2501
11094TIP3    H154773   1.339   2.941  17.136  1.4994 -0.0479 -0.3311
11094TIP3    H254774   1.270   2.906  17.006 -0.3237  0.1532  0.5525
11095TIP3   OH254775   2.582   6.452  11.081 -0.1706 -0.9159 -0.4904
11095TIP3    H154776   2.642   6.500  11.025  0.0403 -1.5207 -0.7935
11095TIP3    H254777   2.532   6.520  11.126 -0.4548 -0.4200 -1.5252
11096TIP3   OH254778   0.100   0.439  12.962  0.1526  0.1083  0.7186
11096TIP3    H154779   0.106   0.366  12.900  2.2370 -1.3751  2.5343
11096TIP3    H254780   0.170   0.498  12.934 -0.0893  0.3428  0.5998
11097TIP3   OH254781   6.575   6.337  15.068  0.1735 -0.1317  0.4018
11097TIP3    H154782   6.523   6.385  15.133  1.5468  1.5510  0.3401
11097TIP3    H254783   6.577   6.395  14.992  0.7471 -0.9208 -0.2012
11098TIP3   OH254784   2.456   3.051  12.838  0.2442 -0.0664  0.3255
11098TIP3    H154785   2.440   2.981  12.774  0.5833  0.0034  0.1629
11098TIP3    H254786   2.544   3.033  12.871  1.2370  1.4902 -1.2815
11099TIP3   OH254787   6.744   4.023  16.401 -0.3169  0.3066  0.2627
11099TIP3    H154788   6.685   4.030  16.326 -0.2261  0.5978  0.2166
11099TIP3    H254789   6.716   3.944  16.446 -1.2926  0.8869  0.7115
11100TIP3   OH254790   1.272   1.955   0.734  0.3497 -0.6803 -0.3370
11100TIP3    H154791   1.342   1.999   0.686 -1.4111  0.1118 -2.3691
11100TIP3    H254792   1.294   1.862   0.730  0.8623 -0.5223 -1.7025
11101TIP3   OH254793   5.172   6.676   4.945 -0.1304 -0.2227  0.5775
11101TIP3    H154794   5.159   6.753   4.890  1.8644  1.1278  1.8566
11101TIP3    H254795   5.241   6.626   4.901 -0.3143 -0.4629  0.5607
11102TIP3   OH254796   6.296   1.636  11.911  0.3277 -0.3508 -0.2721
11102TIP3    H154797   6.362   1.704  11.908  1.8983 -1.8495 -1.6183
11102TIP3    H254798   6.290   1.612  12.004 -0.0060  1.3332  0.1626
11103TIP3   OH254799   4.733   0.190   1.115 -0.0111 -0.2031  0.1182
11103TIP3    H154800   4.700   0.107   1.150  0.2544 -0.1690  0.4537
11103TIP3    H254801   4.705   0.255   1.179 -0.0890 -0.0537 -0.0690
11104TIP3   OH254802   4.130   1.458   3.065  0.2192 -0.3181  0.0740
11104TIP3    H154803   4.204   1.472   3.125 -0.7152 -0.0913  1.2179
11104TIP3    H254804   4.170   1.455   2.978  1.5467  0.0554  0.6391
11105TIP3   OH254805   4.044   5.258   6.206  0.0690 -0.0254 -0.3224
11105TIP3    H154806   4.035   5.175   6.253 -0.5498 -0.3515 -1.0143
11105TIP3    H254807   4.126   5.250   6.157  1.6812  0.9800  1.9841
11106TIP3   OH254808   0.622   5.904   5.423  0.6057 -0.2682  0.3168
11106TIP3    H154809   0.583   5.820   5.397  1.0509 -0.9592  1.7575
11106TIP3    H254810   0.581   5.924   5.507  0.2545  1.1571 -0.1729
11107TIP3   OH254811   3.335   3.538   2.695  0.1289 -0.1178 -0.0388
11107TIP3    H154812   3.345   3.633   2.690  1.1985 -0.2387 -0.5308
11107TIP3    H254813   3.372   3.505   2.613 -0.4167 -0.9517  0.0340
11108TIP3   OH254814   2.292   1.722  16.464 -0.2255  0.4844  0.0841
11108TIP3    H154815   2.359   1.681  16.520  0.2871  0.3828 -0.5866
11108TIP3    H254816   2.209   1.698  16.505  0.1132 -0.1773  0.4108
11109TIP3   OH254817   0.778   3.930  16.083 -0.1137  0.0897  0.6782
11109TIP3    H154818   0.816   4.015  16.060 -0.1438  0.0188  0.3710
11109TIP3    H254819   0.690   3.931  16.046 -0.1744 -0.0116  0.8167
11110TIP3   OH254820   6.516   3.970  12.220 -0.1148  0.2839 -0.2373
11110TIP3    H154821   6.491   4.047  12.169  0.1375  1.0208  0.7306
11110TIP3    H254822   6.593   3.935  12.174 -0.7171  0.1217 -1.1460
11111TIP3   OH254823   0.070   6.431   2.074 -0.8766 -1.2495 -0.3736
11111TIP3    H154824  -0.023   6.436   2.095 -0.6509 -0.0988  0.3625
11111TIP3    H254825   0.097   6.344   2.104 -1.9402 -2.0366 -1.5928
11112TIP3   OH254826   3.845   5.441   1.244  0.2168 -0.4653 -0.3536
11112TIP3    H154827   3.795   5.360   1.235  1.8081 -1.6974  1.0975
11112TIP3    H254828   3.933   5.412   1.268  0.7680  1.7010  0.5360
11113TIP3   OH254829   1.681   0.597   1.099 -0.1854  0.5890  0.9807
11113TIP3    H154830   1.606   0.643   1.136 -1.0349 -2.1420  3.0242
11113TIP3    H254831   1.746   0.597   1.170  1.1693  1.5783 -0.2141
11114TIP3   OH254832   0.907   3.995  16.343  0.1445 -0.1440 -0.4940
11114TIP3    H154833   0.917   3.946  16.425  0.0762  1.1137  0.2865
11114TIP3    H254834   0.841   3.946  16.294  2.0424 -2.4156 -0.9955
11115TIP3   OH254835   6.069   3.853   0.155 -0.2018  0.0515 -0.0971
11115TIP3    H154836   6.134   3.877   0.221  0.1178 -1.6322  0.2725
11115TIP3    H254837   6.005   3.923   0.158  0.9896  1.1781  0.3632
11116TIP3   OH254838   1.880   0.993  11.647  0.2389  0.1428  0.3415
11116TIP3    H154839   1.809   1.052  11.623 -1.2846 -1.2694  1.1639
11116TIP3    H254840   1.897   1.011  11.739 -0.5167 -0.9061  0.7141
11117TIP3   OH254841   5.227   0.772  14.631  0.0571  0.0819 -0.2190
11117TIP3    H154842   5.275   0.696  14.664  0.6368  1.2636  1.8087
11117TIP3    H254843   5.146   0.774  14.683 -0.8944 -0.2355 -1.6214
11118TIP3   OH254844   3.145   3.670  14.870  0.0161  0.4543 -0.1767
11118TIP3    H154845   3.079   3.620  14.919 -0.4255  1.7383  0.5769
11118TIP3    H254846   3.134   3.641  14.779  0.0877 -1.1392  0.2874
11119TIP3   OH254847   2.367   5.008   3.398 -0.4157 -0.1383  0.0763
11119TIP3    H154848   2.350   5.000   3.305 -0.2881  2.0425 -0.1772
11119TIP3    H254849   2.461   4.990   3.407 -0.3555  0.0144 -0.2579
11120TIP3   OH254850   5.927   2.365  15.740 -0.2035  0.6159 -0.1613
11120TIP3    H154851   5.889   2.453  15.750 -0.5889  0.4808 -0.4328
11120TIP3    H254852   5.876   2.311  15.800 -0.7160  0.3504 -0.8270
11121TIP3   OH254853   5.922   0.321   1.210  0.1356  0.2210  0.5789
11121TIP3    H154854   5.842   0.298   1.162  1.2475 -0.9164 -0.7892
11121TIP3    H254855   5.967   0.238   1.223  3.0108  1.1398 -2.2029
11122TIP3   OH254856   4.334   5.570   5.314 -0.3598  0.0388 -0.3471
11122TIP3    H154857   4.427   5.551   5.306 -0.6582 -1.1403 -1.4469
11122TIP3    H254858   4.319   5.640   5.250 -0.1978  0.3555 -0.0398
11123TIP3   OH254859   1.680   4.695  10.474  0.0957 -0.2749  0.2378
11123TIP3    H154860   1.665   4.631  10.404  0.9931  0.3705 -0.5842
11123TIP3    H254861   1.730   4.765  10.431  1.0773 -0.0845  1.6495
11124TIP3   OH254862   5.496   6.391  15.329 -0.3455  0.4929 -0.2183
11124TIP3    H154863   5.403   6.387  15.348 -0.0741 -2.5313  1.0213
11124TIP3    H254864   5.537   6.333  15.394  2.3813  1.4391 -0.9218
11125TIP3   OH254865   2.397   3.669  15.169  0.5816 -0.4586  0.6024
11125TIP3    H154866   2.457   3.693  15.240  0.4744  2.4319 -0.1582
11125TIP3    H254867   2.314   3.650  15.213  0.3377  1.9208  1.2783
11126TIP3   OH254868   2.314   4.678  14.571 -0.6189  0.0363  0.4802
11126TIP3    H154869   2.257   4.669  14.494 -1.1447 -0.5122  0.9114
11126TIP3    H254870   2.257   4.654  14.644 -0.2638  1.0360  1.0900
11127TIP3   OH254871   3.233   3.674  14.334  0.7352  0.0454 -0.1209
11127TIP3    H154872   3.204   3.623  14.410  0.9602  1.1574  0.7367
11127TIP3    H254873   3.187   3.634  14.260  0.0735 -0.7088  0.6674
11128TIP3   OH254874   0.251   6.015   5.481  0.2083 -0.3788 -0.3482
11128TIP3    H154875   0.210   5.930   5.464  0.4662 -0.6766  0.4611
11128TIP3    H254876   0.337   5.993   5.516 -0.0809  0.2007  0.7705
11129TIP3   OH254877   6.111   6.542  11.809 -0.1309  0.4356  0.4074
11129TIP3    H154878   6.131   6.450  11.826 -0.3220  0.0901 -1.1026
11129TIP3    H254879   6.017   6.543  11.792 -0.9342  1.5217  4.0201
11130TIP3   OH254880   4.780   5.290   2.067 -0.2914 -0.6374  0.1860
11130TIP3    H154881   4.754   5.259   1.981 -2.5971  1.5482 -0.0028
11130TIP3    H254882   4.724   5.365   2.084  4.0102  2.7850  1.0948
11131TIP3   OH254883   0.333   3.852  16.290  0.1075 -0.6285 -0.3057
11131TIP3    H154884   0.399   3.922  16.289 -0.9173  0.3554 -0.7355
11131TIP3    H254885   0.284   3.864  16.209 -1.8370 -0.1415  0.8924
11132TIP3   OH254886   4.427   6.074   4.861  0.0303  0.1158 -0.2087
11132TIP3    H154887   4.413   6.059   4.768 -0.2847  1.2930 -0.3671
11132TIP3    H254888   4.368   6.146   4.883 -1.6548 -1.6472  1.4334
11133TIP3   OH254889   4.020   5.889   0.004  0.1158 -0.9055 -0.4223
11133TIP3    H154890   3.994   5.978   0.026  1.4192 -0.8688  1.1698
11133TIP3    H254891   4.072   5.898  -0.076  1.9038  0.0816  0.7766
11134TIP3   OH254892   2.428   0.923  14.799  0.4179  0.1727  0.2732
11134TIP3    H154893   2.341   0.901  14.768  0.0651  1.7967  0.0722
11134TIP3    H254894   2.487   0.893  14.730  0.1916 -2.2034  1.0080
11135TIP3   OH254895   6.658   4.589  10.418  0.0849  0.2330 -0.6953
11135TIP3    H154896   6.713   4.540  10.356 -0.9983 -1.0767 -0.6640
11135TIP3    H254897   6.649   4.531  10.493  0.7123  1.4812  0.3840
11136TIP3   OH254898   3.939   0.169  16.295  0.0481 -0.7150  0.3287
11136TIP3    H154899   3.910   0.201  16.381  1.4083  0.1419  0.4859
11136TIP3    H254900   3.957   0.248  16.244  0.2185 -1.2213 -0.4197
11137TIP3   OH254901   6.158   3.541  13.105 -0.1063  0.9986  0.3429
11137TIP3    H154902   6.239   3.593  13.099 -1.0409  2.4068 -0.6330
11137TIP3    H254903   6.131   3.528  13.015 -1.0085  0.6047  0.6623
11138TIP3   OH254904   6.437   3.209  12.068 -0.1657 -0.6853 -0.6044
11138TIP3    H154905   6.497   3.200  11.995  0.7686  0.7396 -0.0548
11138TIP3    H254906   6.373   3.275  12.040 -0.8431 -1.3982 -0.7742
11139TIP3   OH254907   3.980   5.590  14.197  0.0107  0.3603 -0.4206
11139TIP3    H154908   4.007   5.499  14.187 -0.8742  0.1944 -1.5186
11139TIP3    H254909   4.049   5.641  14.155  0.2146  0.1586 -0.3308
11140TIP3   OH254910   0.923   1.329   4.847  0.0569 -0.0662 -0.1079
11140TIP3    H154911   0.918   1.318   4.752  1.1946 -0.4604 -0.1334
11140TIP3    H254912   0.924   1.240   4.881 -0.1936  0.0747  0.2668
11141TIP3   OH254913   1.577   4.777   5.105 -0.7782  0.0757 -0.0864
11141TIP3    H154914   1.527   4.857   5.122 -1.2789 -0.5226  1.3941
11141TIP3    H254915   1.517   4.706   5.127  0.6134 -0.6620  1.4801
11142TIP3   OH254916   4.865   2.123   5.239 -0.0443 -0.3791 -0.5452
11142TIP3    H154917   4.818   2.101   5.320 -0.5635 -1.7587 -1.1774
11142TIP3    H254918   4.911   2.042   5.216  2.1957  0.7518 -0.2845
11143TIP3   OH254919   1.732   4.283   1.025  0.2720  0.1600 -0.1857
11143TIP3    H154920   1.661   4.299   0.963  1.8332 -0.8031 -2.3375
11143TIP3    H254921   1.795   4.353   1.010  0.5299  0.1042  0.5673
11144TIP3   OH254922   0.003   4.471   6.138 -0.5617  0.2473  0.1131
11144TIP3    H154923  -0.079   4.509   6.107 -0.5032  0.3819  0.1208
11144TIP3    H254924   0.057   4.547   6.160 -0.6784  0.1520  0.7400
11145TIP3   OH254925   3.572   4.493  15.072  0.0673  0.4344  0.0299
11145TIP3    H154926   3.647   4.539  15.033  0.5547  0.1642  0.6391
11145TIP3    H254927   3.558   4.537  15.156 -0.4266  0.4514 -0.0592
11146TIP3   OH254928   2.241   5.805   3.024 -0.3203 -0.4998 -0.0047
11146TIP3    H154929   2.169   5.867   3.037 -0.1227 -0.0675 -0.8971
11146TIP3    H254930   2.304   5.853   2.971  0.0186 -1.3291 -0.3663
11147TIP3   OH254931   6.070   1.446   3.647  0.1650  0.0194 -0.0739
11147TIP3    H154932   6.145   1.484   3.603 -0.5928  0.3402 -1.1368
11147TIP3    H254933   6.017   1.407   3.577 -1.3716  1.0635  0.4350
11148TIP3   OH254934   6.109   6.343  15.652  0.3960 -0.3190  0.1771
11148TIP3    H154935   6.019   6.335  15.618 -0.5110 -1.4962  2.6561
11148TIP3    H254936   6.119   6.437  15.669  0.3410  0.0871 -1.7541
11149TIP3   OH254937   3.029   2.037   2.739 -0.5026  0.9434  0.3559
11149TIP3    H154938   2.994   1.954   2.770 -1.4150  0.5571 -1.5298
11149TIP3    H254939   3.123   2.031   2.754 -0.3199 -1.1358 -1.1400
11150TIP3   OH254940   0.077   2.084   4.513  0.0190 -0.5850  0.0003
11150TIP3    H154941   0.086   2.046   4.600 -1.5120  1.1495  0.9975
11150TIP3    H254942  -0.004   2.046   4.478  0.8132 -1.5506 -0.8616
11151TIP3   OH254943   2.943   4.060  15.466 -0.3927  0.3025 -0.2484
11151TIP3    H154944   2.973   3.987  15.412  1.7719  0.6055  0.4437
11151TIP3    H254945   2.898   4.119  15.406  0.6007 -0.1079 -1.4182
11152TIP3   OH254946   6.193   2.138   1.881  0.0812 -0.4443 -0.2715
11152TIP3    H154947   6.197   2.148   1.976  0.7266 -0.6487 -0.2767
11152TIP3    H254948   6.234   2.218   1.846 -1.7554  0.4966 -0.4185
11153TIP3   OH254949   1.080   0.301  11.405 -0.5513  0.0540 -0.1050
11153TIP3    H154950   1.074   0.263  11.493 -1.8386 -0.2510 -0.3032
11153TIP3    H254951   1.015   0.371  11.405 -0.0516  0.5227 -0.5968
11154TIP3   OH254952   1.364   6.128   0.303 -0.5291  0.1489  0.2853
11154TIP3    H154953   1.406   6.152   0.221  0.3636  0.2917  0.7752
11154TIP3    H254954   1.274   6.160   0.295 -0.7145 -0.6399 -0.9933
11155TIP3   OH254955   2.055   5.203  13.524  0.0891  0.3139  0.1724
11155TIP3    H154956   2.028   5.185  13.434  0.0461  1.7786 -0.1421
11155TIP3    H254957   2.049   5.298  13.532  0.3725  0.2365  1.6423
11156TIP3   OH254958   4.549   0.786   3.707 -0.0454 -0.5044  0.0781
11156TIP3    H154959   4.465   0.743   3.697 -0.2368 -0.4765  1.4347
11156TIP3    H254960   4.613   0.721   3.679 -0.4212 -1.1235  0.6341
11157TIP3   OH254961   4.192   3.279   1.642  0.0713 -0.4039 -0.5070
11157TIP3    H154962   4.210   3.263   1.735 -3.4345 -1.5324  0.1093
11157TIP3    H254963   4.251   3.220   1.596 -0.4972 -2.4012  1.1905
11158TIP3   OH254964   2.387   1.527  11.433  0.0361 -0.1561 -0.3096
11158TIP3    H154965   2.399   1.433  11.422  2.5831 -0.0272  0.6909
11158TIP3    H254966   2.457   1.553  11.493 -1.3062  2.2050  0.3729
11159TIP3   OH254967   4.061   5.648   3.722 -0.4476  0.3647 -0.0113
11159TIP3    H154968   3.974   5.612   3.702 -1.3588  2.1016  0.5736
11159TIP3    H254969   4.105   5.579   3.772 -2.6983  0.5459  2.4448
11160TIP3   OH254970   3.161   1.517   1.160  0.3107 -0.3217  0.4434
11160TIP3    H154971   3.169   1.613   1.161 -3.8120  0.1899  0.6431
11160TIP3    H254972   3.198   1.489   1.244  1.5945  1.0132  0.3787
11161TIP3   OH254973   5.951   6.644   0.557  0.2391 -0.2210  0.2751
11161TIP3    H154974   6.046   6.651   0.569  0.0749  2.1159  0.5530
11161TIP3    H254975   5.938   6.652   0.463  0.3152 -0.6923  0.2217
11162TIP3   OH254976   1.010   2.316  11.872 -0.2885  0.0888 -0.0599
11162TIP3    H154977   1.058   2.287  11.949 -0.9810 -0.4767  0.1650
11162TIP3    H254978   0.993   2.237  11.822  2.1598  0.6681 -2.0173
11163TIP3   OH254979   0.120   4.182   1.672 -0.2058 -0.3577  0.4557
11163TIP3    H154980   0.125   4.156   1.580 -2.9739  0.0417  0.1097
11163TIP3    H254981   0.175   4.260   1.678  0.6836 -0.8718 -0.6454
11164TIP3   OH254982   5.722   1.305  11.275 -0.1906  0.4777  0.1038
11164TIP3    H154983   5.745   1.387  11.320  0.8154 -0.4026  1.2557
11164TIP3    H254984   5.691   1.247  11.344  1.7425 -1.0296 -0.1918
11165TIP3   OH254985   2.282   5.052  16.734 -0.1831 -0.5053 -0.6746
11165TIP3    H154986   2.359   5.057  16.790 -0.1384  1.5246 -0.8254
11165TIP3    H254987   2.243   4.967  16.754  1.5128 -1.1431  0.1476
11166TIP3   OH254988   4.513   4.011  16.106  0.1801  0.1386  0.1475
11166TIP3    H154989   4.486   4.035  16.017  0.6762 -0.5442 -0.2048
11166TIP3    H254990   4.493   4.088  16.159 -1.0136  0.2077 -0.3666
11167TIP3   OH254991   1.960   2.357   2.942  0.2733 -0.5537 -0.1432
11167TIP3    H154992   1.997   2.271   2.960  0.2381 -0.4359  0.5204
11167TIP3    H254993   1.885   2.340   2.885 -0.2358 -1.0361  0.6650
11168TIP3   OH254994   6.167   1.710   1.670  0.2224  0.4925  0.2928
11168TIP3    H154995   6.230   1.765   1.625 -1.2908  1.8977 -0.2140
11168TIP3    H254996   6.138   1.763   1.744 -1.6394  0.6444 -0.4908
11169TIP3   OH254997   2.680   0.351  16.823  0.0704 -0.4186  0.1509
11169TIP3    H154998   2.635   0.418  16.874  0.5565 -0.2862  0.4202
11169TIP3    H254999   2.740   0.310  16.885  0.5889 -0.3350 -0.2822
11170TIP3   OH255000   4.112   4.271   0.703  0.0208 -0.0658 -0.1424
11170TIP3    H155001   4.061   4.298   0.779 -0.4649 -1.0032 -0.1161
11170TIP3    H255002   4.068   4.312   0.629  0.0719  0.2790  0.0187
11171TIP3   OH255003   0.759   4.469  12.149  0.7238  0.8051  0.0729
11171TIP3    H155004   0.786   4.387  12.108  0.8278 -0.2145  2.0557
11171TIP3    H255005   0.748   4.530  12.076  1.1201 -0.8236 -1.4149
11172TIP3   OH255006   1.600   4.997  10.680  0.0770 -0.3608  0.2037
11172TIP3    H155007   1.615   4.986  10.586  0.0427  0.2293  0.1232
11172TIP3    H255008   1.661   5.066  10.706  0.0883 -0.5216  0.6175
11173TIP3   OH255009   1.141   3.642   2.448 -0.2582  0.4686  0.4861
11173TIP3    H155010   1.152   3.594   2.530 -1.0238  0.1751  0.4174
11173TIP3    H255011   1.134   3.734   2.475 -0.7107  0.3527  0.7611
11174TIP3   OH255012   6.286   0.758   3.713  0.1074 -0.4130 -0.5353
11174TIP3    H155013   6.263   0.819   3.784  1.3195 -0.8797  0.2824
11174TIP3    H255014   6.245   0.796   3.635 -0.3760  0.6675  0.2182
11175TIP3   OH255015   3.572   6.070  14.464 -0.1420 -0.2081  0.2756
11175TIP3    H155016   3.557   6.119  14.383 -2.8457 -0.5401  0.4770
11175TIP3    H255017   3.650   6.109  14.502 -1.3427  3.0006 -0.2721
11176TIP3   OH255018   5.777   3.784  12.157 -0.2910  0.1383  0.2555
11176TIP3    H155019   5.718   3.725  12.109 -1.1951  1.2918 -0.0847
11176TIP3    H255020   5.723   3.821  12.226  0.8011 -0.9209  1.7521
11177TIP3   OH255021   2.080   2.736  12.117  0.1807 -0.2992  0.3026
11177TIP3    H155022   2.099   2.692  12.199  1.7130  1.6488  1.0785
11177TIP3    H255023   2.133   2.816  12.120 -1.9646  1.2974 -1.2642
11178TIP3   OH255024   2.319   0.851  11.086  0.4838  0.1066 -0.4357
11178TIP3    H155025   2.277   0.866  11.171 -1.3535  1.2372 -1.4807
11178TIP3    H255026   2.384   0.921  11.079  1.3521 -0.5832  0.4301
11179TIP3   OH255027   2.914   6.608   5.792 -0.8300 -0.1875 -0.4721
11179TIP3    H155028   2.981   6.633   5.728 -0.5909 -0.1781 -0.2220
11179TIP3    H255029   2.846   6.674   5.782  0.2164  1.1716  0.8359
11180TIP3   OH255030   1.914   5.731   1.465 -0.1464  0.5476 -0.1232
11180TIP3    H155031   1.999   5.773   1.469 -0.3186  0.8904 -0.0353
11180TIP3    H255032   1.916   5.680   1.384  0.9876 -1.2989  0.9847
11181TIP3   OH255033   3.192   5.628  14.747 -0.2429  0.2571  0.3822
11181TIP3    H155034   3.134   5.676  14.689 -0.9630 -0.2183  0.6999
11181TIP3    H255035   3.280   5.646  14.713 -0.6983 -1.1376 -1.7234
11182TIP3   OH255036   5.259   3.896   2.987 -0.1120  0.0953 -0.4171
11182TIP3    H155037   5.261   3.983   2.948 -0.1907  0.5318  0.5378
11182TIP3    H255038   5.186   3.898   3.049  1.2582  0.0935  1.2620
11183TIP3   OH255039   3.141   5.321  15.076  0.6840 -0.0275  0.0477
11183TIP3    H155040   3.053   5.334  15.042 -0.3962 -2.2831  1.6990
11183TIP3    H255041   3.138   5.357  15.165  2.4597  2.7550 -0.8701
11184TIP3   OH255042   0.945   1.171  12.080  0.3465  0.4588  0.5269
11184TIP3    H155043   0.939   1.200  12.171  1.7426 -0.6106  0.9917
11184TIP3    H255044   0.948   1.252  12.030 -2.2732  1.0895  1.2329
11185TIP3   OH255045   5.531   1.888   4.576  0.0107  0.5054 -0.0141
11185TIP3    H155046   5.437   1.908   4.575  0.0597  0.7354 -0.8287
11185TIP3    H255047   5.543   1.827   4.504  0.2020 -0.9595  1.2205
11186TIP3   OH255048   1.851   3.808  12.278  0.3307  0.1216 -0.1233
11186TIP3    H155049   1.897   3.891  12.286  0.2923  0.0480  1.1199
11186TIP3    H255050   1.871   3.762  12.360 -0.7674 -0.5065 -0.1892
11187TIP3   OH255051   0.147   5.079  15.623 -0.3849 -0.1654 -0.3832
11187TIP3    H155052   0.170   4.995  15.583 -0.3147 -0.2399 -0.1881
11187TIP3    H255053   0.129   5.137  15.549 -0.4804 -0.3658 -0.5166
11188TIP3   OH255054   6.593   3.908  10.616  0.0255  0.0519 -0.5108
11188TIP3    H155055   6.515   3.914  10.671  0.4431  0.4967  0.0431
11188TIP3    H255056   6.559   3.889  10.528 -0.6578 -0.4288 -0.1488
11189TIP3   OH255057   3.387   3.505   5.701  0.2029  0.0260 -0.3430
11189TIP3    H155058   3.303   3.528   5.742  0.5059  0.1983  0.1946
11189TIP3    H255059   3.393   3.411   5.712  0.9266  0.2189  1.3180
11190TIP3   OH255060   2.132   4.726   5.381  0.1230 -0.1256 -0.5287
11190TIP3    H155061   2.098   4.816   5.381 -0.9835 -0.5263 -1.1726
11190TIP3    H255062   2.214   4.732   5.333  1.0022  0.8495  0.9847
11191TIP3   OH255063   4.698   1.677   5.460 -0.1303  0.0531  0.3033
11191TIP3    H155064   4.643   1.688   5.537 -2.0397 -0.3432 -0.9264
11191TIP3    H255065   4.759   1.607   5.482 -0.2484  0.3539  1.6302
11192TIP3   OH255066   5.100   5.077   0.300 -0.0782  0.4640 -0.0336
11192TIP3    H155067   5.153   5.154   0.278  0.5967  0.4589  1.4563
11192TIP3    H255068   5.011   5.111   0.308  0.1849  1.0681  0.4324
11193TIP3   OH255069   5.659   1.429  10.468  0.2507 -0.3388  0.1942
11193TIP3    H155070   5.708   1.502  10.429  1.0286 -0.0832  1.5568
11193TIP3    H255071   5.572   1.464  10.483 -0.4868 -0.8306 -2.3714
11194TIP3   OH255072   0.197   3.172   4.041  0.1373  0.6367 -0.1339
11194TIP3    H155073   0.160   3.139   4.124 -1.2028  0.3799 -0.8072
11194TIP3    H255074   0.145   3.129   3.973 -0.2535  2.5075 -1.0833
11195TIP3   OH255075   1.335   3.105   5.451 -0.0380  1.0146 -0.2709
11195TIP3    H155076   1.295   3.130   5.368 -1.2601  0.1976  0.0389
11195TIP3    H255077   1.426   3.087   5.430  0.4683  3.8571 -0.8221
11196TIP3   OH255078   1.946   6.035  15.801  0.1191  0.4981  0.7103
11196TIP3    H155079   1.955   6.024  15.895 -0.5412 -1.2322  0.5987
11196TIP3    H255080   1.910   5.952  15.770  0.1504  1.0978 -1.0455
11197TIP3   OH255081   5.675   5.119  16.141  0.1417  0.0948 -0.2528
11197TIP3    H155082   5.708   5.203  16.175 -0.1148  0.5147 -1.0172
11197TIP3    H255083   5.713   5.113  16.054  1.4845 -1.3781  0.3839
11198TIP3   OH255084   3.275   2.874  16.982 -0.3368  0.5506  0.1507
11198TIP3    H155085   3.180   2.865  16.984 -0.3013 -0.1751 -0.8929
11198TIP3    H255086   3.292   2.956  17.028 -1.2705 -0.6481  2.8266
11199TIP3   OH255087   4.921   6.146   4.105 -0.4539 -0.1549  0.1800
11199TIP3    H155088   4.876   6.159   4.021 -1.3965  1.1193  0.8565
11199TIP3    H255089   4.855   6.105   4.161  0.6690 -2.6041 -0.1281
11200TIP3   OH255090   4.842   3.944   0.371 -0.4183  0.0428 -0.0295
11200TIP3    H155091   4.894   4.000   0.313 -1.3646  1.9562  0.8913
11200TIP3    H255092   4.755   3.983   0.370 -0.6120 -0.2392  2.1879
11201TIP3   OH255093   1.845   1.772   2.271 -0.3846 -0.3948 -0.4861
11201TIP3    H155094   1.751   1.751   2.276 -1.0391  1.1656 -3.4814
11201TIP3    H255095   1.850   1.864   2.297 -0.4406  0.7081 -3.7989
11202TIP3   OH255096   1.349   5.572  14.504 -0.0835 -0.1730  0.1023
11202TIP3    H155097   1.317   5.639  14.565 -3.0197 -0.0107 -1.4414
11202TIP3    H255098   1.379   5.622  14.428  0.0547 -0.5405 -0.0867
11203TIP3   OH255099   4.082   0.851  10.687 -0.3334  0.3798 -0.2070
11203TIP3    H155100   4.018   0.904  10.639  0.5977  1.4124 -0.3608
11203TIP3    H255101   4.029   0.794  10.743 -1.4032  0.4143 -1.1455
11204TIP3   OH255102   4.968   0.814  14.758 -0.0884 -0.3554  0.4585
11204TIP3    H155103   4.995   0.799  14.849 -1.9223 -1.7730  0.8403
11204TIP3    H255104   4.890   0.869  14.766  1.4259  2.0661 -0.4879
11205TIP3   OH255105   5.079   3.286  11.828 -0.1390 -0.3277  0.9081
11205TIP3    H155106   5.065   3.223  11.758 -0.0625  0.8630 -0.2305
11205TIP3    H255107   4.991   3.303  11.862 -0.5721  1.0141 -0.7026
11206TIP3   OH255108   0.312   0.476  16.998  0.0837  0.3545 -0.4931
11206TIP3    H155109   0.377   0.438  16.939 -1.1742  0.0388 -1.7035
11206TIP3    H255110   0.336   0.443  17.085  2.9537  2.1257 -0.4718
11207TIP3   OH255111   6.353   5.143  12.823 -0.5238  0.5661  0.0305
11207TIP3    H155112   6.297   5.085  12.875  0.2047 -0.1911 -0.0120
11207TIP3    H255113   6.396   5.199  12.888  1.4048 -1.2605  0.4375
11208TIP3   OH255114   1.190   6.228  16.412 -0.0798 -0.1593 -0.3736
11208TIP3    H155115   1.178   6.160  16.345 -2.1470  0.1623 -0.3839
11208TIP3    H255116   1.218   6.305  16.363 -0.5763 -0.2078 -0.7378
11209TIP3   OH255117   4.054   6.051  10.947 -0.2767  0.4658 -0.4424
11209TIP3    H155118   4.079   6.133  10.904  1.8327  0.1145  0.0125
11209TIP3    H255119   4.135   6.001  10.952 -0.9916 -0.6095  1.5697
11210TIP3   OH255120   2.214   4.806   3.539  0.2204 -0.9867 -0.4708
11210TIP3    H155121   2.224   4.847   3.624 -1.7342 -0.0903 -0.6182
11210TIP3    H255122   2.217   4.879   3.477 -0.4387 -1.3805 -0.9776
11211TIP3   OH255123   1.931   6.384   1.263 -0.0796 -0.1787 -0.7746
11211TIP3    H155124   1.906   6.476   1.267  1.3302  0.1968  0.0687
11211TIP3    H255125   1.941   6.357   1.354 -2.3581 -1.7445 -0.9092
11212TIP3   OH255126   0.070   0.515   0.885  0.3326 -0.3974 -0.2287
11212TIP3    H155127   0.092   0.422   0.884  1.2035 -0.2149 -1.3478
11212TIP3    H255128   0.153   0.559   0.864 -0.6568  0.4492 -2.8730
11213TIP3   OH255129   2.172   0.850  14.720  0.2319 -0.7204 -0.4857
11213TIP3    H155130   2.119   0.842  14.799 -0.0558 -0.5374 -0.6591
11213TIP3    H255131   2.147   0.775  14.666 -0.2253 -0.3507 -0.7890
11214TIP3   OH255132   0.721   1.282  14.055  0.7807  0.3282  0.0965
11214TIP3    H155133   0.704   1.320  14.141  0.7860  0.7712 -0.0908
11214TIP3    H255134   0.637   1.289  14.009  0.9639  0.7750 -0.1817
11215TIP3   OH255135   0.411   3.552  13.515 -0.2854 -0.5212  0.6598
11215TIP3    H155136   0.367   3.612  13.455 -0.4847 -0.8499  0.4753
11215TIP3    H255137   0.487   3.520  13.466 -1.0512 -1.6420  0.1556
11216TIP3   OH255138   4.001   0.573   0.620  0.5984 -0.0935  0.0639
11216TIP3    H155139   3.922   0.626   0.634 -0.5110 -1.7090  0.1605
11216TIP3    H255140   3.973   0.504   0.560  1.9131 -0.7767  0.2013
11217TIP3   OH255141   4.419   2.696   0.906 -0.5289 -0.1999 -0.0199
11217TIP3    H155142   4.339   2.674   0.953 -0.5464  0.5397  0.3052
11217TIP3    H255143   4.389   2.739   0.826 -0.4716 -0.6508 -0.2918
11218TIP3   OH255144   5.623   0.981   0.425  0.1801 -0.1225  0.3112
11218TIP3    H155145   5.640   0.891   0.398 -0.6360  0.3165 -1.8794
11218TIP3    H255146   5.707   1.026   0.412  0.9935 -0.7752  2.7336
11219TIP3   OH255147   5.756   0.331   0.976  0.0015  0.0920  0.1700
11219TIP3    H155148   5.775   0.346   0.884 -0.3756 -1.2468 -0.1432
11219TIP3    H255149   5.660   0.335   0.981  0.0396  0.6107  0.5958
11220TIP3   OH255150   2.724   2.127   5.323 -0.0329 -0.0132  0.3154
11220TIP3    H155151   2.816   2.145   5.337 -0.2342  0.6846  0.7908
11220TIP3    H255152   2.723   2.050   5.266  0.8408  0.6045 -0.5540
11221TIP3   OH255153   6.274   4.945   1.610 -0.5423 -0.5872  0.0202
11221TIP3    H155154   6.225   4.991   1.678 -2.7434 -3.4589  0.5766
11221TIP3    H255155   6.335   4.889   1.659  0.9922  0.5167 -0.5723
11222TIP3   OH255156   6.186   0.567   2.966  0.1128 -0.1531 -0.1383
11222TIP3    H155157   6.135   0.591   2.888 -1.0799 -1.4469  0.1985
11222TIP3    H255158   6.277   0.573   2.937 -0.2191  1.4268 -0.9998
11223TIP3   OH255159   0.036   6.522  15.239  0.6725  0.2925 -0.3389
11223TIP3    H155160   0.093   6.445  15.242  1.0285  0.4669 -1.8445
11223TIP3    H255161  -0.036   6.500  15.299 -1.5127 -3.1608 -3.7196
11224TIP3   OH255162   2.897   2.266   4.504  0.2132 -0.1039 -0.3910
11224TIP3    H155163   2.967   2.331   4.511  0.0301  0.0206  0.4297
11224TIP3    H255164   2.818   2.313   4.529  0.4213 -1.2147  2.8040
11225TIP3   OH255165   3.479   3.438  13.744 -0.0211  0.0283 -0.0979
11225TIP3    H155166   3.564   3.463  13.708  0.1910  0.2542  0.5451
11225TIP3    H255167   3.465   3.349  13.713  0.9867 -0.4329  0.7206
11226TIP3   OH255168   4.882   4.164   3.290  0.2664 -0.1055 -0.4539
11226TIP3    H155169   4.963   4.153   3.339  1.2984 -0.5019 -2.1828
11226TIP3    H255170   4.872   4.259   3.282 -0.9294  0.0630  2.0419
11227TIP3   OH255171   4.266   6.701  16.765 -0.2421  0.1704 -0.2684
11227TIP3    H155172   4.347   6.699  16.714  0.8505  1.3116  1.3049
11227TIP3    H255173   4.288   6.656  16.847 -1.1873  0.5300  0.1962
11228TIP3   OH255174   0.819   3.462  15.731 -0.1533 -1.1184  0.4456
11228TIP3    H155175   0.779   3.507  15.805 -0.4439 -0.0978 -0.3155
11228TIP3    H255176   0.896   3.514  15.709 -0.3758 -1.1007 -0.3158
11229TIP3   OH255177   1.194   3.525   3.995  0.3982 -0.1843  0.1573
11229TIP3    H155178   1.204   3.523   4.090 -0.0447  1.7890  0.2847
11229TIP3    H255179   1.275   3.563   3.963 -0.4241  1.5144 -0.0185
11230TIP3   OH255180   0.048   1.910   0.903 -0.4171  0.0267 -0.4926
11230TIP3    H155181   0.110   1.982   0.916 -0.4042 -0.3197  1.7952
11230TIP3    H255182   0.103   1.832   0.897 -0.5301 -0.0343 -0.7378
11231TIP3   OH255183   5.774   6.127  14.225 -0.7264 -0.1126  0.1166
11231TIP3    H155184   5.817   6.056  14.273 -2.0148 -1.7979 -1.0798
11231TIP3    H255185   5.730   6.178  14.292  1.3717  0.4538  1.1551
11232TIP3   OH255186   0.099   3.574   2.763  0.3778  0.0999  0.2596
11232TIP3    H155187   0.005   3.586   2.751  0.6369  0.8272 -1.3930
11232TIP3    H255188   0.128   3.532   2.682  1.2852 -1.4449  1.3346
11233TIP3   OH255189   6.403   0.831   4.518  0.0282  0.1325 -0.3131
11233TIP3    H155190   6.409   0.743   4.555 -0.8229  0.2340  0.0840
11233TIP3    H255191   6.443   0.887   4.584  3.1295 -0.2112 -1.7259
11234TIP3   OH255192   1.397   5.690   4.909 -0.5541  0.0733  0.9623
11234TIP3    H155193   1.400   5.594   4.908  1.8202  0.0876 -0.3730
11234TIP3    H255194   1.303   5.711   4.914 -1.3784 -2.3536 -1.6492
11235TIP3   OH255195   2.780   0.342  13.047 -0.1547  0.2971  0.0386
11235TIP3    H155196   2.718   0.278  13.081  1.9480 -2.5375 -1.1212
11235TIP3    H255197   2.807   0.393  13.123  0.4839 -2.3444  1.6911
11236TIP3   OH255198   5.450   6.742  14.089 -0.7066 -0.1566  0.0612
11236TIP3    H155199   5.381   6.777  14.032 -0.2678  0.0630 -0.3443
11236TIP3    H255200   5.426   6.771  14.177 -0.0868  1.6179 -0.3164
11237TIP3   OH255201   2.882   6.590  11.548 -0.2383  0.7069  0.3424
11237TIP3    H155202   2.801   6.606  11.597 -0.1401 -0.3244  0.8564
11237TIP3    H255203   2.857   6.601  11.456 -1.1471 -0.3011  0.4476
11238TIP3   OH255204   1.204   2.424   2.357 -0.6585  0.0127 -0.2211
11238TIP3    H155205   1.299   2.426   2.352 -0.5785 -0.5706  0.8012
11238TIP3    H255206   1.185   2.414   2.450 -1.7379  0.9026 -0.3331
11239TIP3   OH255207   0.213   1.055  10.670  0.0947  0.4558 -0.1528
11239TIP3    H155208   0.168   0.972  10.686  0.9071  0.3269  1.7034
11239TIP3    H255209   0.147   1.109  10.627 -0.8396 -0.7506 -0.3017
11240TIP3   OH255210   5.911   0.016   5.433  0.7201  0.0727 -0.1225
11240TIP3    H155211   5.999   0.045   5.454  0.4181  0.6673  0.3570
11240TIP3    H255212   5.867   0.094   5.400  0.3631 -0.2104 -0.3347
11241TIP3   OH255213   5.513   2.453  10.702  0.2798  0.3286  0.2439
11241TIP3    H155214   5.493   2.547  10.704  0.8192  0.5034 -1.2911
11241TIP3    H255215   5.557   2.440  10.619 -0.6016 -1.4657  0.0184
11242TIP3   OH255216   1.760   1.693  14.018  0.7523 -0.9783  0.2471
11242TIP3    H155217   1.818   1.711  14.092 -1.5017  1.5615  1.5867
11242TIP3    H255218   1.766   1.771  13.964 -0.3349 -1.2790 -0.3254
11243TIP3   OH255219   2.783   4.309   5.560  0.2883 -0.4612 -0.3630
11243TIP3    H155220   2.847   4.237   5.558  0.6737 -0.1219 -0.6238
11243TIP3    H255221   2.708   4.274   5.606 -0.6096 -1.9277 -2.7494
11244TIP3   OH255222   5.591   5.290   3.280  0.8063 -0.2648  0.3648
11244TIP3    H155223   5.681   5.321   3.273  0.9482 -0.9916 -2.3789
11244TIP3    H255224   5.577   5.240   3.199 -1.3475 -2.1058  1.7609
11245TIP3   OH255225   1.104   6.763   3.141  0.0955 -0.1551 -0.2668
11245TIP3    H155226   1.128   6.847   3.179  0.2751  0.4025 -1.5646
11245TIP3    H255227   1.016   6.746   3.175  0.5430 -0.0676  0.9887
11246TIP3   OH255228   6.825   3.125  14.904  0.2961 -0.8540 -0.4192
11246TIP3    H155229   6.732   3.103  14.894 -0.0124  0.2698 -0.2051
11246TIP3    H255230   6.829   3.172  14.988  1.2788 -2.0223  0.2178
11247TIP3   OH255231   0.465   4.147  10.789  0.1384  0.0576 -0.0136
11247TIP3    H155232   0.404   4.084  10.828 -0.2665 -1.3509 -2.6592
11247TIP3    H255233   0.409   4.211  10.745  0.5794  1.2824  1.1424
11248TIP3   OH255234   6.344   6.396   3.899  0.0174 -0.1512  0.2594
11248TIP3    H155235   6.381   6.465   3.955 -0.9355 -0.6317  1.5187
11248TIP3    H255236   6.322   6.325   3.960  2.3900 -2.2684 -1.1370
11249TIP3   OH255237   0.060   4.251  12.999 -0.1685 -0.4987  0.3808
11249TIP3    H155238   0.138   4.289  13.039  0.1580 -0.7572 -0.0041
11249TIP3    H255239  -0.006   4.320  13.005  0.7057  0.5354 -1.2434
11250TIP3   OH255240   2.310   6.605  11.627 -0.3998  0.2266  0.1664
11250TIP3    H155241   2.277   6.523  11.591  2.0684  0.2567 -2.5140
11250TIP3    H255242   2.287   6.602  11.720 -1.2992 -2.9864 -0.0586
11251TIP3   OH255243   6.315   2.824  16.134  0.2041 -0.0346  0.4600
11251TIP3    H155244   6.370   2.746  16.126  0.3500  0.1843 -0.7602
11251TIP3    H255245   6.225   2.790  16.129  0.2537  0.0185 -2.0829
11252TIP3   OH255246   1.843   0.253  12.507  0.2627  0.3130 -0.3259
11252TIP3    H155247   1.801   0.168  12.522  0.4645  0.1764 -0.5314
11252TIP3    H255248   1.811   0.308  12.578  2.0427 -0.6215  1.2703
11253TIP3   OH255249   3.441   1.364   2.969  0.2404 -0.2045  0.4893
11253TIP3    H155250   3.529   1.390   2.994  0.1525  1.1051 -0.4570
11253TIP3    H255251   3.453   1.299   2.901  0.4602 -2.4687  2.5581
11254TIP3   OH255252   4.466   1.345   1.694  0.6724  0.0655  1.0868
11254TIP3    H155253   4.434   1.330   1.605  2.6915  0.4977  0.2373
11254TIP3    H255254   4.403   1.407   1.732 -0.1889 -0.0925 -0.0304
11255TIP3   OH255255   1.593   4.358  11.976 -0.9364 -0.2779 -0.4695
11255TIP3    H155256   1.642   4.437  12.001  1.6070 -1.6129 -0.8985
11255TIP3    H255257   1.620   4.292  12.040 -0.2349 -1.6958 -2.1396
11256TIP3   OH255258   2.548   2.800   0.573 -0.1571  0.2776  0.0464
11256TIP3    H155259   2.577   2.719   0.616  1.2360  0.8050  0.1713
11256TIP3    H255260   2.469   2.775   0.525 -0.6938 -0.7541  1.4198
11257TIP3   OH255261   1.805   1.820  10.468  0.3384 -0.0617  0.3117
11257TIP3    H155262   1.833   1.827  10.377  1.1333  0.0222  0.5523
11257TIP3    H255263   1.877   1.859  10.518 -0.7438  1.2567  0.8919
11258TIP3   OH255264   5.309   1.254   1.081  0.0187  0.6484 -0.2895
11258TIP3    H155265   5.309   1.319   1.012  0.0551 -0.0373 -0.9522
11258TIP3    H255266   5.348   1.176   1.041 -1.6113 -0.3331 -0.0791
11259TIP3   OH255267   5.860   3.169  11.608 -0.3928  0.1640  0.5268
11259TIP3    H155268   5.867   3.089  11.557 -0.3840  1.3217 -1.3819
11259TIP3    H255269   5.796   3.222  11.561  0.2811  1.6500  1.2110
11260TIP3   OH255270   0.870   4.570  16.941 -0.1498 -0.0150 -0.9608
11260TIP3    H155271   0.861   4.665  16.938  2.5432  0.4363  1.0964
11260TIP3    H255272   0.788   4.539  16.981 -1.4638  1.2853 -2.5507
11261TIP3   OH255273   6.551   0.051  14.526  0.0987  0.8033 -0.8621
11261TIP3    H155274   6.573   0.013  14.441 -1.7120 -0.4480 -0.8452
11261TIP3    H255275   6.457   0.036  14.535  0.5269 -1.0478  2.2544
11262TIP3   OH255276   0.172   0.478  12.494 -0.0563 -0.2200 -0.0339
11262TIP3    H155277   0.179   0.386  12.522  0.7617 -0.7672 -1.8611
11262TIP3    H255278   0.187   0.529  12.574  2.4629 -1.6670  0.5502
11263TIP3   OH255279   5.235   0.882  15.412 -0.2466 -0.3532  0.2213
11263TIP3    H155280   5.152   0.837  15.398 -0.3631  0.4457 -2.1197
11263TIP3    H255281   5.229   0.916  15.501 -3.2470  1.2288 -0.4316
11264TIP3   OH255282   0.639   6.837   0.598  0.3363 -0.0500  0.8982
11264TIP3    H155283   0.697   6.761   0.603  0.3092 -0.3765 -2.0764
11264TIP3    H255284   0.552   6.800   0.580  0.4503  0.6182 -1.3137
11265TIP3   OH255285   4.667   3.235   0.351  0.2292  0.1464 -0.5057
11265TIP3    H155286   4.685   3.159   0.406  0.2180 -0.0677 -0.7919
11265TIP3    H255287   4.573   3.250   0.359  0.0487 -0.5200 -1.2653
11266TIP3   OH255288   0.484   4.419   0.499 -0.4157 -0.1211  0.1428
11266TIP3    H155289   0.478   4.491   0.437 -0.1732 -0.6156 -0.4640
11266TIP3    H255290   0.576   4.417   0.527 -0.4784 -0.0303  0.3589
11267TIP3   OH255291   5.893   5.522   5.260  0.2762 -0.2681 -0.0524
11267TIP3    H155292   5.819   5.467   5.282 -0.0169  0.1469  0.0158
11267TIP3    H255293   5.970   5.470   5.282  0.0058 -0.0070  1.6198
11268TIP3   OH255294   1.649   0.910   1.326  0.0540 -0.3116  0.2090
11268TIP3    H155295   1.569   0.899   1.275 -0.1426  0.2483  0.3838
11268TIP3    H255296   1.720   0.905   1.262  0.0365 -2.7534  0.2769
11269TIP3   OH255297   1.214   2.134   3.494 -0.2722 -0.2578 -0.3737
11269TIP3    H155298   1.218   2.197   3.422 -0.0045 -0.0641 -0.1914
11269TIP3    H255299   1.237   2.184   3.572  0.7645 -0.7462 -0.3408
11270TIP3   OH255300   4.120   1.469  10.677 -0.0689 -0.0720  0.2903
11270TIP3    H155301   4.126   1.561  10.703 -1.3499  0.5605 -1.4333
11270TIP3    H255302   4.190   1.458  10.612  0.4066 -0.4858  0.8530
11271TIP3   OH255303   0.371   1.498  13.131  0.2509  0.1483 -0.1714
11271TIP3    H155304   0.309   1.560  13.092 -1.1405 -1.5137 -0.7504
11271TIP3    H255305   0.344   1.491  13.223  0.5131  0.5258 -0.0660
11272TIP3   OH255306   4.841   4.656   3.192  0.2740 -0.1939  0.7802
11272TIP3    H155307   4.810   4.676   3.103  1.2642  2.5361  0.9478
11272TIP3    H255308   4.761   4.651   3.245 -0.2001  3.3683  0.6099
11273TIP3   OH255309   2.792   3.183   4.282  0.4429  0.6685  0.0692
11273TIP3    H155310   2.820   3.128   4.356  1.0381  0.2049 -0.4846
11273TIP3    H255311   2.721   3.236   4.317 -0.7401 -1.0424  0.4131
11274TIP3   OH255312   6.810   5.609   4.363 -0.5522  0.0985 -0.1291
11274TIP3    H155313   6.806   5.579   4.273  2.9134  0.4316 -0.5142
11274TIP3    H255314   6.817   5.530   4.415  0.4848 -0.0187 -0.4372
11275TIP3   OH255315   5.743   4.799   1.158 -0.3308 -0.8114  0.5623
11275TIP3    H155316   5.709   4.793   1.247 -1.2143 -0.6255  0.2428
11275TIP3    H255317   5.673   4.764   1.103 -0.6140  0.9325 -0.2423
11276TIP3   OH255318   4.942   5.341   5.818  0.0006 -0.3739 -0.1783
11276TIP3    H155319   4.990   5.299   5.747  1.1137  0.0901  0.2706
11276TIP3    H255320   4.867   5.283   5.835  1.2544 -1.9671  0.1413
11277TIP3   OH255321   4.320   1.482   3.802 -0.3625  0.4030  0.1810
11277TIP3    H155322   4.398   1.519   3.843  0.1664  1.1529 -1.4357
11277TIP3    H255323   4.283   1.425   3.870  1.1849  0.5656  1.2282
11278TIP3   OH255324   4.377   2.626  16.667 -0.2696 -0.1097 -0.4713
11278TIP3    H155325   4.338   2.614  16.753 -1.6061  1.9794 -0.7133
11278TIP3    H255326   4.307   2.605  16.606  0.0856  0.2359 -1.0087
11279TIP3   OH255327   5.119   6.516  13.785  0.1836  0.5723  0.1283
11279TIP3    H155328   5.094   6.475  13.702  0.4695 -1.1389  0.8488
11279TIP3    H255329   5.045   6.573  13.806 -2.3471 -2.6892  1.1030
11280TIP3   OH255330   5.943   3.057  14.010 -0.4796  0.3045 -0.0517
11280TIP3    H155331   6.002   2.987  14.040 -0.3922  0.5724  0.4080
11280TIP3    H255332   5.868   3.051  14.069 -2.1966 -1.7639 -2.2244
11281TIP3   OH255333   2.827   3.182  12.280  0.8234 -0.1527 -0.2977
11281TIP3    H155334   2.874   3.101  12.302  1.3193  0.1476 -0.2312
11281TIP3    H255335   2.778   3.160  12.201  0.9527 -0.5216 -0.2797
11282TIP3   OH255336   4.440   2.299  14.374  0.2122  0.0192  0.1931
11282TIP3    H155337   4.464   2.302  14.282  0.6100 -0.9830  0.2542
11282TIP3    H255338   4.481   2.377  14.412 -0.6407  0.8926 -0.6183
11283TIP3   OH255339   6.236   1.480   2.798  0.0335  0.2954 -0.5048
11283TIP3    H155340   6.274   1.400   2.762  0.6086  1.5488 -2.9334
11283TIP3    H255341   6.144   1.477   2.772  0.0864  0.4695 -0.7176
11284TIP3   OH255342   1.592   0.135   4.447  0.2831  0.7048  0.1321
11284TIP3    H155343   1.558   0.114   4.534  0.0427 -0.7324 -0.2878
11284TIP3    H255344   1.586   0.053   4.398 -1.2873  1.9096 -1.8193
11285TIP3   OH255345   1.008   2.890   1.870  0.2375  0.6249 -0.0229
11285TIP3    H155346   1.077   2.826   1.853  1.3368  1.5886  0.6272
11285TIP3    H255347   1.037   2.969   1.825 -1.3226  0.5796 -1.1944
11286TIP3   OH255348   4.657   1.501   1.557 -0.5500  0.7588  0.5406
11286TIP3    H155349   4.637   1.530   1.647 -1.8287 -0.4197  0.6689
11286TIP3    H255350   4.649   1.406   1.560  2.6083  0.3727 -0.0926
11287TIP3   OH255351   3.732   4.677  15.852  0.0768  0.3426 -0.4798
11287TIP3    H155352   3.717   4.640  15.939  0.7930 -0.5763 -0.7286
11287TIP3    H255353   3.802   4.741  15.865 -1.5560  2.1154  0.0572
11288TIP3   OH255354   3.271   6.461  15.807  0.1147  0.1362  0.1437
11288TIP3    H155355   3.258   6.404  15.883 -2.4067 -0.6168 -0.7502
11288TIP3    H255356   3.295   6.402  15.736 -2.2164  0.1260 -0.7193
11289TIP3   OH255357   6.232   5.048   5.362  0.1533  0.2002  0.2318
11289TIP3    H155358   6.149   5.001   5.379  0.7361  0.0138  3.1220
11289TIP3    H255359   6.281   4.989   5.306 -0.1427 -1.6009  1.7433
11290TIP3   OH255360   5.059   0.393  15.288 -0.1306 -0.0785  0.0068
11290TIP3    H155361   5.051   0.382  15.193  2.1966  5.0623 -1.1937
11290TIP3    H255362   5.153   0.384  15.304 -0.4167 -0.2387  1.7044
11291TIP3   OH255363   6.284   6.094  14.555  0.3006  0.3309 -0.4145
11291TIP3    H155364   6.233   6.166  14.517 -0.3520 -0.4408 -1.0137
11291TIP3    H255365   6.356   6.081  14.493 -0.5398 -0.6624 -1.1925
11292TIP3   OH255366   6.146   0.675  15.084 -0.6215 -0.6303 -0.9087
11292TIP3    H155367   6.200   0.719  15.150 -2.0971 -0.3994  0.1939
11292TIP3    H255368   6.208   0.650  15.015  0.4630  2.2300 -1.1043
11293TIP3   OH255369   1.434   4.723  12.527  0.3282 -0.5314  0.5182
11293TIP3    H155370   1.341   4.725  12.506  0.2467  1.3391  0.9010
11293TIP3    H255371   1.467   4.809  12.499  1.8261 -0.9480  0.9022
11294TIP3   OH255372   1.153   4.954   0.618 -0.2289 -0.0876 -0.1341
11294TIP3    H155373   1.127   4.933   0.529 -0.6807 -1.4966  0.2974
11294TIP3    H255374   1.145   5.049   0.624 -2.7371 -0.1827 -0.8454
11295TIP3   OH255375   0.974   1.242  10.386 -0.7698 -0.0523  0.5945
11295TIP3    H155376   0.896   1.226  10.439 -1.1191  1.3507  0.5476
11295TIP3    H255377   1.041   1.268  10.449 -0.5660 -0.4519  0.5483
11296TIP3   OH255378   5.628   5.332   0.445 -0.1762 -1.0565 -0.1828
11296TIP3    H155379   5.625   5.340   0.540 -0.4928  1.2284 -0.3282
11296TIP3    H255380   5.647   5.239   0.429  1.8328 -1.1450  2.1222
11297TIP3   OH255381   3.389   0.249  12.402  0.0377 -0.1510 -0.0700
11297TIP3    H155382   3.380   0.192  12.325 -2.3858 -0.0630  0.0648
11297TIP3    H255383   3.302   0.251  12.440  0.3551  2.5833  0.7171
11298TIP3   OH255384   4.559   4.641   6.078  0.2096  0.2338 -0.6600
11298TIP3    H155385   4.608   4.567   6.112 -1.7038 -1.9805 -2.3710
11298TIP3    H255386   4.617   4.682   6.014  0.7898 -0.6356 -0.7007
11299TIP3   OH255387   0.889   1.744   6.284  0.0066 -0.0782  0.4566
11299TIP3    H155388   0.966   1.718   6.233  0.7097  0.0234  1.4504
11299TIP3    H255389   0.836   1.665   6.290 -0.9354  0.2810 -1.8232
11300TIP3   OH255390   4.020   0.633   1.209 -0.3200 -0.2914 -0.0935
11300TIP3    H155391   4.037   0.711   1.157 -1.4584  1.7053  2.2782
11300TIP3    H255392   3.925   0.633   1.220 -0.3019 -1.8686  0.1909
11301TIP3   OH255393   4.580   0.326  11.230  0.1647  0.0757 -0.2474
11301TIP3    H155394   4.493   0.350  11.198  0.4048 -0.8956 -1.6891
11301TIP3    H255395   4.636   0.399  11.204 -0.4998  1.6909  2.4373
11302TIP3   OH255396   0.717   1.779  13.671 -0.2714  0.2609  0.1482
11302TIP3    H155397   0.806   1.773  13.637 -1.1296 -1.1908 -2.1289
11302TIP3    H255398   0.725   1.824  13.755  2.6324 -0.2574  0.2211
11303TIP3   OH255399   5.399   1.733  16.666 -0.0080  0.0397 -0.1605
11303TIP3    H155400   5.343   1.782  16.605 -2.7242 -2.2851  0.2149
11303TIP3    H255401   5.339   1.670  16.706  2.5299 -1.1633  1.9887
11304TIP3   OH255402   4.605   4.534  16.173 -0.2499  0.3139 -0.5227
11304TIP3    H155403   4.688   4.558  16.133  0.0173  1.1360  0.4735
11304TIP3    H255404   4.539   4.553  16.106  0.3122  0.2867 -1.0854
11305TIP3   OH255405   2.384   1.233  10.950 -0.7203 -0.6262 -0.4501
11305TIP3    H155406   2.369   1.170  10.880  0.6058 -0.8840 -0.5133
11305TIP3    H255407   2.419   1.311  10.906  1.0472 -1.1289 -0.0047
11306TIP3   OH255408   2.843   2.190  15.142  0.4381  0.2900  0.3559
11306TIP3    H155409   2.806   2.226  15.223  0.4403  0.3073  0.3495
11306TIP3    H255410   2.815   2.098  15.142 -0.4774  0.5492 -0.1438
11307TIP3   OH255411   6.422   2.757  15.873 -0.1871  0.5034 -0.0563
11307TIP3    H155412   6.502   2.732  15.826  0.0434 -1.0891  1.1076
11307TIP3    H255413   6.452   2.818  15.941 -0.0936  0.5686 -0.1557
11308TIP3   OH255414   4.935   4.216   6.360 -0.4724 -0.3954  0.0967
11308TIP3    H155415   4.906   4.260   6.439 -2.3319 -0.3027 -0.5977
11308TIP3    H255416   4.857   4.173   6.325 -0.0457  0.5964 -2.3390
11309TIP3   OH255417   4.220   1.961   5.538 -0.2633 -0.5450  0.0845
11309TIP3    H155418   4.135   1.929   5.569 -0.9023 -0.1346 -1.1815
11309TIP3    H255419   4.199   2.039   5.487  0.9664  0.0585  0.4539
11310TIP3   OH255420   3.004   3.037  11.303  0.0312  0.2632  0.4725
11310TIP3    H155421   3.040   3.126  11.298 -0.5301  0.5277  0.9870
11310TIP3    H255422   2.947   3.030  11.227 -0.7096  0.7072  0.9808
11311TIP3   OH255423   1.481   1.509  15.864  0.2498  0.7555 -0.4167
11311TIP3    H155424   1.535   1.561  15.806  1.0616 -0.6284 -0.9617
11311TIP3    H255425   1.408   1.479  15.810  0.6867 -0.0340 -0.5981
11312TIP3   OH255426   1.998   6.078   5.869 -0.3335 -0.3501  0.2888
11312TIP3    H155427   2.034   6.144   5.809  1.2888 -2.1937 -0.8545
11312TIP3    H255428   2.065   6.011   5.875 -1.4107 -1.3237  2.4427
11313TIP3   OH255429   4.335   0.437   4.918  0.3351 -0.0583  0.2500
11313TIP3    H155430   4.328   0.457   4.824  0.9197 -3.1539 -0.5756
11313TIP3    H255431   4.246   0.416   4.945  0.4620 -1.2340 -0.1951
11314TIP3   OH255432   2.294   4.139   0.153 -0.3363 -0.7708  0.1160
11314TIP3    H155433   2.216   4.152   0.098  0.5844 -0.8106 -1.2597
11314TIP3    H255434   2.316   4.226   0.184  0.3032 -0.3903 -1.2934
11315TIP3   OH255435   4.052   2.944   3.214 -0.4204 -0.0060  0.2162
11315TIP3    H155436   4.133   2.986   3.243 -0.9674  0.2139  1.5411
11315TIP3    H255437   4.001   3.015   3.175 -0.8685  0.3559  1.4087
11316TIP3   OH255438   1.140   5.272  14.808  0.2294 -0.3007 -0.1446
11316TIP3    H155439   1.137   5.265  14.903  0.4657 -1.7536 -0.2208
11316TIP3    H255440   1.081   5.344  14.787  0.4593  0.2879  1.1131
11317TIP3   OH255441   4.225   1.432  14.893 -0.2679  0.2545 -0.5144
11317TIP3    H155442   4.137   1.467  14.888 -0.3765  0.8871  3.1444
11317TIP3    H255443   4.279   1.505  14.922  0.8443 -0.8868  0.4397
11318TIP3   OH255444   5.411   3.056  15.259 -0.5764  0.0819 -0.0727
11318TIP3    H155445   5.461   3.131  15.292 -0.5562  0.3131 -0.6135
11318TIP3    H255446   5.376   3.086  15.175  0.9868 -1.1442 -1.2090
11319TIP3   OH255447   3.580   0.927   1.656  0.1114  0.5407 -0.1018
11319TIP3    H155448   3.503   0.933   1.711  0.1603  0.0267  0.0298
11319TIP3    H255449   3.619   1.014   1.658 -0.4015  0.7703 -0.0798
11320TIP3   OH255450   5.409   3.348  13.176  0.2725  0.0773  0.3303
11320TIP3    H155451   5.427   3.285  13.107  1.5422  0.6505  0.1107
11320TIP3    H255452   5.336   3.310  13.225 -0.7497 -0.2863 -1.3852
11321TIP3   OH255453   1.210   6.546  12.126  0.1250  0.0168  0.2403
11321TIP3    H155454   1.211   6.616  12.191 -0.4328  0.8941 -0.6699
11321TIP3    H255455   1.298   6.509  12.129 -0.3364 -1.0346  2.6122
11322TIP3   OH255456   2.260   4.773  16.751  0.1363 -0.2508  0.2680
11322TIP3    H155457   2.269   4.692  16.801  0.2961  0.7092  1.8594
11322TIP3    H255458   2.335   4.773  16.691  1.9447  0.1472  2.3987
11323TIP3   OH255459   2.464   6.123   5.146  0.1847  0.2776  0.0934
11323TIP3    H155460   2.371   6.143   5.140  0.5161  1.8408 -0.3868
11323TIP3    H255461   2.475   6.088   5.235 -0.9574 -0.6145 -0.0958
11324TIP3   OH255462   2.642   1.886  12.596  0.0855 -0.5115  0.6076
11324TIP3    H155463   2.626   1.978  12.620 -2.1882 -0.1240 -1.8449
11324TIP3    H255464   2.555   1.852  12.574  1.1778 -2.4825 -1.0149
11325TIP3   OH255465   1.147   0.658   4.782  0.0689  0.0358  0.1178
11325TIP3    H155466   1.210   0.728   4.762  2.0349 -1.4576  0.8153
11325TIP3    H255467   1.075   0.703   4.827  0.8866  1.7209 -0.1786
11326TIP3   OH255468   5.516   1.386  12.755 -0.0831 -0.0077 -0.5780
11326TIP3    H155469   5.537   1.294  12.742  1.3868  0.3695 -1.1890
11326TIP3    H255470   5.448   1.405  12.691 -0.6907 -0.7593 -0.1626
11327TIP3   OH255471   0.283   4.479   3.238  0.5785  0.0392  0.5289
11327TIP3    H155472   0.320   4.433   3.163  1.0609 -0.1731  0.8935
11327TIP3    H255473   0.239   4.411   3.289  0.9310  0.0442  0.8486
11328TIP3   OH255474   3.359   4.184  15.646 -0.4386 -0.0856 -0.3790
11328TIP3    H155475   3.385   4.271  15.615 -1.4855 -0.1187 -1.4084
11328TIP3    H255476   3.263   4.186  15.644 -0.5092 -0.8118  0.9134
11329TIP3   OH255477   6.797   3.282  14.139  0.2002  0.6863  0.1553
11329TIP3    H155478   6.825   3.373  14.124  0.1520  0.7768  0.5911
11329TIP3    H255479   6.816   3.267  14.231 -0.7158  0.5807  0.3381
11330TIP3   OH255480   0.413   4.182   6.689  0.0687  0.2214 -0.2323
11330TIP3    H155481   0.485   4.131   6.726  0.8502  0.4947 -1.3298
11330TIP3    H255482   0.391   4.136   6.608 -0.1258  0.8743 -0.5542
11331TIP3   OH255483   3.475   6.086  17.097  0.6466 -0.1386  0.2052
11331TIP3    H155484   3.454   5.996  17.071  0.8594  0.2247 -1.3284
11331TIP3    H255485   3.523   6.122  17.022 -0.5540  1.6685  0.2379
11332TIP3   OH255486   6.089   6.793   0.848  0.0663  0.8303  0.3012
11332TIP3    H155487   6.178   6.826   0.856  0.1574  0.5056  0.6583
11332TIP3    H255488   6.046   6.854   0.788  0.9422  0.1103 -1.0936
11333TIP3   OH255489   4.802   6.426   0.820 -0.2968  0.0755 -0.2076
11333TIP3    H155490   4.870   6.492   0.829 -0.2942 -0.0404  0.8495
11333TIP3    H255491   4.821   6.363   0.890 -2.1153  0.6237  0.8383
11334TIP3   OH255492   5.782   0.870  13.009 -0.6482  0.5686  0.0190
11334TIP3    H155493   5.861   0.830  12.973 -0.2017  0.2492  1.3022
11334TIP3    H255494   5.783   0.960  12.974  1.2898  1.1606  1.4328
11335TIP3   OH255495   1.646   4.020   5.183 -0.0656  0.4075 -0.6437
11335TIP3    H155496   1.679   3.932   5.167 -0.8426 -0.1728  0.7892
11335TIP3    H255497   1.579   4.009   5.250  0.4642  2.1961  0.2496
11336TIP3   OH255498   3.367   0.567   1.226 -0.1257 -0.4757 -0.0710
11336TIP3    H155499   3.317   0.638   1.185  1.2670 -0.0873 -1.2016
11336TIP3    H255500   3.422   0.534   1.155  3.0199  0.7615  1.6185
11337TIP3   OH255501   4.232   1.585  12.502 -0.1147  0.2177  0.0971
11337TIP3    H155502   4.178   1.507  12.489 -0.0365  0.3809 -1.3730
11337TIP3    H255503   4.242   1.592  12.597 -1.4999 -0.6130  0.3228
11338TIP3   OH255504   0.147   6.689   1.579 -0.4848 -0.2948  0.3463
11338TIP3    H155505   0.200   6.621   1.536  0.5270  0.6144  0.0898
11338TIP3    H255506   0.121   6.649   1.662  1.3969 -0.4898  0.9058
11339TIP3   OH255507   5.087   1.867  14.775 -0.3905  0.2601 -0.0306
11339TIP3    H155508   5.041   1.808  14.715 -0.1778 -1.1666  1.1481
11339TIP3    H255509   5.017   1.913  14.822 -0.5763  0.0418 -0.0955
11340TIP3   OH255510   6.722   1.081  16.516  0.5325  0.4056 -0.0114
11340TIP3    H155511   6.783   1.020  16.474 -0.2822 -0.0502 -0.5435
11340TIP3    H255512   6.754   1.168  16.491 -0.5596  0.1470 -2.5225
11341TIP3   OH255513   1.052   2.018   4.339 -0.3475 -0.0945  0.2447
11341TIP3    H155514   1.023   2.083   4.404  3.4910  1.1451  1.0057
11341TIP3    H255515   1.037   1.934   4.382  0.2221  0.6020  1.9316
11342TIP3   OH255516   4.021   1.350  11.245  0.2049 -0.1167 -0.3586
11342TIP3    H155517   3.938   1.357  11.293  0.2590 -1.4845 -0.0407
11342TIP3    H255518   4.058   1.266  11.271  1.7801  0.5260 -0.3931
11343TIP3   OH255519   3.305   5.984  12.424  0.3484 -0.0280  0.6333
11343TIP3    H155520   3.277   5.988  12.516  0.7647  1.0898  0.7240
11343TIP3    H255521   3.261   5.906  12.389 -2.5423  1.3720  0.8762
11344TIP3   OH255522   5.532   0.933   5.826  0.2103 -0.3763 -0.0446
11344TIP3    H155523   5.603   0.992   5.853  0.8779 -0.6688 -1.1093
11344TIP3    H255524   5.453   0.986   5.836  0.7796  0.6452 -0.7723
11345TIP3   OH255525   3.509   0.914  11.042 -0.5782  0.0265  0.8724
11345TIP3    H155526   3.519   0.991  10.986  3.9976  0.1717  1.5178
11345TIP3    H255527   3.587   0.862  11.026 -0.7362 -1.6595  4.5371
11346TIP3   OH255528   2.314   0.568  11.533 -0.3226  0.0496 -0.5709
11346TIP3    H155529   2.338   0.505  11.601 -2.2478  1.9866  2.1051
11346TIP3    H255530   2.384   0.633  11.535 -1.7159  1.6086  1.7343
11347TIP3   OH255531   0.246   4.714  13.663  0.2906 -0.2516  1.0520
11347TIP3    H155532   0.292   4.776  13.720  2.2381 -0.9737  0.3499
11347TIP3    H255533   0.235   4.636  13.717  2.6937 -1.1576  0.3281
11348TIP3   OH255534   2.808   2.889   5.149 -0.3491 -0.0721  0.3371
11348TIP3    H155535   2.903   2.897   5.145 -0.2333 -1.4996 -0.1001
11348TIP3    H255536   2.778   2.978   5.171  1.1059  0.2568  1.1461
11349TIP3   OH255537   3.929   1.755  16.140  0.1612  0.9047  0.1018
11349TIP3    H155538   3.877   1.819  16.188  0.0895  0.3455  0.7777
11349TIP3    H255539   3.868   1.684  16.119  0.5247  0.4903  0.4317
11350TIP3   OH255540   3.090   1.528   0.270  0.1547 -0.4411  0.1650
11350TIP3    H155541   3.180   1.505   0.245 -0.0840 -2.0463  0.6221
11350TIP3    H255542   3.099   1.585   0.346  0.8025 -0.9879  0.5124
11351TIP3   OH255543   1.021   4.273   5.865 -0.1247 -0.3910 -0.3045
11351TIP3    H155544   1.001   4.293   5.957  1.2892  0.0449 -0.0649
11351TIP3    H255545   1.096   4.213   5.870 -0.1866 -0.5429 -1.1653
11352TIP3   OH255546   0.621   5.297  11.884  0.0692 -0.2107 -0.0110
11352TIP3    H155547   0.626   5.392  11.887  2.2522 -0.3095  2.1536
11352TIP3    H255548   0.532   5.277  11.914 -0.6272  1.1150 -1.0814
11353TIP3   OH255549   2.760   2.219   4.906  0.1793  0.0794  0.3708
11353TIP3    H155550   2.770   2.201   4.813 -1.3270 -1.2213  0.4168
11353TIP3    H255551   2.719   2.306   4.909 -0.8081 -0.3410 -0.2562
11354TIP3   OH255552   4.726   0.592   2.448 -0.2037 -0.2790  0.4717
11354TIP3    H155553   4.704   0.654   2.518  1.9336  1.8625 -0.6525
11354TIP3    H255554   4.814   0.562   2.470  1.1422  1.5649 -1.9449
11355TIP3   OH255555   2.754   2.928   2.808 -0.2580  0.5354 -0.6232
11355TIP3    H155556   2.671   2.968   2.834 -0.4260  0.8176 -1.5601
11355TIP3    H255557   2.821   2.983   2.849 -0.5248  0.1893  0.2988
11356TIP3   OH255558   1.628   5.053  13.524  0.0881  0.1422  0.4153
11356TIP3    H155559   1.551   5.103  13.552 -1.4447 -2.2249  0.6758
11356TIP3    H255560   1.665   5.105  13.453 -1.5471  1.5291  0.4970
11357TIP3   OH255561   3.270   1.017  13.565  0.5055  0.0643  0.3969
11357TIP3    H155562   3.182   1.032  13.529  1.8205 -1.2483 -3.9893
11357TIP3    H255563   3.270   0.924  13.588  0.0312  0.6520  2.9944
11358TIP3   OH255564   5.607   4.317   2.864 -0.3898 -0.3251  0.0017
11358TIP3    H155565   5.689   4.342   2.907  0.4029 -0.9687 -1.0933
11358TIP3    H255566   5.595   4.381   2.795 -1.2253  0.2146  0.6297
11359TIP3   OH255567   5.161   3.012  16.331  0.0027 -0.0074 -0.0549
11359TIP3    H155568   5.153   2.956  16.407 -1.1206  1.4659  0.9613
11359TIP3    H255569   5.207   3.090  16.363  2.0138 -0.4642 -1.5465
11360TIP3   OH255570   2.710   4.976   2.986  0.4335  0.0382 -0.2630
11360TIP3    H155571   2.793   4.984   2.939  0.4537  0.8335 -0.1116
11360TIP3    H255572   2.668   5.061   2.975  1.1927  0.8932  2.5333
11361TIP3   OH255573   0.444   3.169  13.050  0.3436 -0.7276  0.4174
11361TIP3    H155574   0.411   3.180  12.960  0.2057 -2.3629  0.2300
11361TIP3    H255575   0.537   3.190  13.044  0.7928 -2.7261 -0.5959
11362TIP3   OH255576   3.254   4.266   6.284  0.2745 -0.0688 -0.1343
11362TIP3    H155577   3.189   4.281   6.353  1.3764  3.7165  0.2916
11362TIP3    H255578   3.329   4.228   6.329 -0.8979 -2.8753 -0.3483
11363TIP3   OH255579   0.006   0.659   5.417 -0.2157 -0.2649  0.4210
11363TIP3    H155580   0.083   0.636   5.365 -0.5139  1.1366 -0.6927
11363TIP3    H255581  -0.006   0.585   5.476  0.3372 -1.7587 -1.2592
11364TIP3   OH255582   1.185   5.583   5.973 -0.0632  0.0113  0.0025
11364TIP3    H155583   1.243   5.586   6.049 -1.1857 -0.0678  0.9032
11364TIP3    H255584   1.223   5.645   5.911  0.5563  0.5326  0.8747
11365TIP3   OH255585   3.914   1.311  14.395  0.0480 -0.4424  0.5746
11365TIP3    H155586   3.899   1.373  14.467  2.4752 -0.1193  0.8863
11365TIP3    H255587   4.009   1.304  14.389 -0.0945 -0.9669 -2.2081
11366TIP3   OH255588   1.302   6.492   0.660 -0.3765 -0.5241  0.7902
11366TIP3    H155589   1.332   6.436   0.588 -0.6502  0.2829  0.0170
11366TIP3    H255590   1.383   6.524   0.700 -0.2127 -0.6510  0.5671
11367TIP3   OH255591   0.351   0.048  11.028  0.1891 -0.4386 -0.0618
11367TIP3    H155592   0.279   0.074  11.086 -0.7219 -0.9748 -0.9216
11367TIP3    H255593   0.430   0.066  11.079 -0.4667  1.6512  0.3266
11368TIP3   OH255594   1.248   4.796   4.920 -0.7125 -0.2207  0.1923
11368TIP3    H155595   1.248   4.843   5.003 -1.4433 -0.0457  0.1002
11368TIP3    H255596   1.257   4.864   4.853 -0.8952 -0.2879  0.0972
11369TIP3   OH255597   1.563   4.302  12.822 -0.3407  0.2006 -0.0339
11369TIP3    H155598   1.599   4.344  12.900  0.7628  0.7410 -0.8155
11369TIP3    H255599   1.563   4.370  12.755 -1.1764 -0.2849 -0.5596
11370TIP3   OH255600   1.212   2.744   2.329  0.3878 -0.6986  0.3308
11370TIP3    H155601   1.148   2.760   2.260  1.0757 -0.7756 -0.3395
11370TIP3    H255602   1.179   2.791   2.405  0.3783  0.6274 -0.4728
11371TIP3   OH255603   0.862   5.925   6.015 -0.2307 -0.1534 -0.3796
11371TIP3    H155604   0.952   5.952   6.032 -0.6470  1.1117 -0.0806
11371TIP3    H255605   0.818   5.934   6.099 -0.8518  0.1586 -0.7326
11372TIP3   OH255606   0.208   0.311   3.124  0.5198  0.1624 -0.2788
11372TIP3    H155607   0.225   0.218   3.107  0.6275 -0.0372  0.8193
11372TIP3    H255608   0.132   0.311   3.182 -0.9322  0.8889 -2.0989
11373TIP3   OH255609   3.144   5.846  16.669 -0.0345 -0.0519  0.5827
11373TIP3    H155610   3.106   5.855  16.756  1.7776 -1.8527  1.6601
11373TIP3    H255611   3.127   5.755  16.645  1.1262 -0.1149 -0.0842
11374TIP3   OH255612   0.658   0.108   0.344  0.0454 -0.2327  0.3868
11374TIP3    H155613   0.650   0.066   0.430  0.9360  0.7981  1.0017
11374TIP3    H255614   0.751   0.103   0.323 -0.3385 -1.7806 -1.2416
11375TIP3   OH255615   2.788   2.942  16.558  0.1606  0.2732 -0.0677
11375TIP3    H155616   2.710   2.975  16.602 -0.4281  0.6576 -1.3404
11375TIP3    H255617   2.781   2.847  16.564 -1.9588  0.1464 -2.5945
11376TIP3   OH255618   6.336   4.568   5.859 -0.1201 -0.0950 -0.3793
11376TIP3    H155619   6.310   4.494   5.803  3.4901 -1.4764 -0.4740
11376TIP3    H255620   6.273   4.567   5.931 -0.1609 -3.4068 -0.3133
11377TIP3   OH255621   1.882   4.006   2.689 -0.4250 -0.0675 -0.0052
11377TIP3    H155622   1.842   3.935   2.640 -1.6517  0.2832  0.4507
11377TIP3    H255623   1.879   4.081   2.629  1.4605 -0.5134 -0.7306
11378TIP3   OH255624   4.897   1.619  14.860  0.4203  0.1117  0.7612
11378TIP3    H155625   4.826   1.658  14.912 -0.6614 -0.4828 -0.2309
11378TIP3    H255626   4.867   1.531  14.841  1.0041  0.1612 -0.4802
11379TIP3   OH255627   6.184   4.361  12.836 -0.3508  0.5785  0.2181
11379TIP3    H155628   6.119   4.304  12.795 -0.6430 -0.7656  2.3995
11379TIP3    H255629   6.219   4.414  12.764  0.9980 -3.2877 -2.2791
11380TIP3   OH255630   1.944   2.075   5.676  0.2505  0.2441 -0.0042
11380TIP3    H155631   1.914   2.160   5.705  2.8868  0.5006  2.3976
11380TIP3    H255632   1.936   2.018   5.753  0.6522 -1.0910 -0.8970
11381TIP3   OH255633   4.222   5.142   2.037 -0.4405  0.1014 -0.1300
11381TIP3    H155634   4.220   5.073   1.971 -0.2582 -0.2944  0.2708
11381TIP3    H255635   4.274   5.212   1.997  0.7745 -0.6481  0.0837
11382TIP3   OH255636   3.680   3.472   2.874  0.2028  0.3535 -0.4932
11382TIP3    H155637   3.637   3.547   2.915 -2.0144 -1.8065  1.4610
11382TIP3    H255638   3.614   3.435   2.816  1.6960  0.5465 -2.4354
11383TIP3   OH255639   5.974   1.168  12.242  0.5497  0.4018  0.3742
11383TIP3    H155640   6.041   1.211  12.294  3.0600 -1.8820 -0.7215
11383TIP3    H255641   5.986   1.202  12.153 -0.3173  0.5813  0.3166
11384TIP3   OH255642   1.002   4.871  11.102 -0.3236 -0.2551 -0.3895
11384TIP3    H155643   0.945   4.817  11.048  0.2157 -0.8789 -0.3481
11384TIP3    H255644   0.948   4.946  11.128 -1.3342 -1.1633  0.2027
11385TIP3   OH255645   4.730   0.313   1.896  0.2459 -0.2731  0.4472
11385TIP3    H155646   4.729   0.391   1.841  0.8749 -0.2978  0.3877
11385TIP3    H255647   4.793   0.334   1.965 -0.1685 -0.4292  0.8796
11386TIP3   OH255648   6.351   5.967   2.295 -0.0809  0.3765  0.1650
11386TIP3    H155649   6.373   5.997   2.384 -1.8921  1.2678  0.3592
11386TIP3    H255650   6.297   5.890   2.309  0.8963 -0.3970 -0.2309
11387TIP3   OH255651   1.017   5.190   4.039  0.4292 -0.5280  0.0420
11387TIP3    H155652   1.067   5.266   4.009  2.8469 -0.7975  2.9173
11387TIP3    H255653   1.071   5.152   4.108 -2.9168 -2.0146  2.0980
11388TIP3   OH255654   4.024   4.743  14.125 -0.3242 -0.5280 -0.3422
11388TIP3    H155655   3.964   4.804  14.083  0.5567  0.6705  0.0720
11388TIP3    H255656   4.071   4.796  14.189  0.6513 -1.5874 -0.1434
11389TIP3   OH255657   1.851   6.654  15.682 -0.3302  0.1448 -0.4449
11389TIP3    H155658   1.881   6.697  15.762  1.1839 -0.7959 -0.4753
11389TIP3    H255659   1.897   6.698  15.611  1.2665 -1.4561 -0.4715
11390TIP3   OH255660   4.317   5.796   6.229 -0.2433  0.8036  0.3127
11390TIP3    H155661   4.369   5.834   6.159 -0.0650  0.2105  0.1116
11390TIP3    H255662   4.226   5.804   6.199 -0.2020  1.0024  0.2422
11391TIP3   OH255663   5.158   2.297  13.434  0.0747 -0.2758  0.1934
11391TIP3    H155664   5.195   2.374  13.477 -0.7239 -0.0302  0.4684
11391TIP3    H255665   5.153   2.321  13.341 -2.3211  0.9416  0.5645
11392TIP3   OH255666   6.553   3.254  12.309 -0.2993 -0.7536  0.0864
11392TIP3    H155667   6.603   3.178  12.340  0.7498 -0.4908 -0.8837
11392TIP3    H255668   6.523   3.230  12.222  0.2963  0.0386 -0.3544
11393TIP3   OH255669   5.209   6.285  12.347 -0.3509 -0.0170 -0.0868
11393TIP3    H155670   5.114   6.277  12.334 -0.4830  0.5106  0.5311
11393TIP3    H255671   5.221   6.373  12.381  0.3491 -0.1425 -0.0056
11394TIP3   OH255672   6.747   2.690  16.191  0.6083 -0.0549  0.5736
11394TIP3    H155673   6.751   2.642  16.274 -0.5691 -1.2192 -0.0001
11394TIP3    H255674   6.781   2.777  16.212 -0.4282 -0.0473  2.4803
11395TIP3   OH255675   1.852   5.080  14.339 -0.1171  0.0816  0.0570
11395TIP3    H155676   1.872   5.028  14.418 -0.7953  1.8276  1.4495
11395TIP3    H255677   1.927   5.137  14.327  0.7880 -1.3757 -1.6893
11396TIP3   OH255678   0.486   4.730  15.571 -0.6179 -0.3053  0.4908
11396TIP3    H155679   0.562   4.786  15.586 -2.2472  3.0882 -2.3623
11396TIP3    H255680   0.497   4.698  15.481 -2.7768  0.8979 -0.2796
11397TIP3   OH255681   6.805   6.293   1.506 -0.5178  0.1571 -0.0223
11397TIP3    H155682   6.834   6.225   1.445 -0.7310  1.7141 -1.9552
11397TIP3    H255683   6.786   6.368   1.450 -1.2328  1.5022  1.9476
11398TIP3   OH255684   1.094   5.779  12.735 -0.6277 -0.4456  0.2540
11398TIP3    H155685   1.098   5.745  12.646  1.2841  2.2227 -0.8067
11398TIP3    H255686   1.006   5.817  12.742 -0.2128  0.9318 -1.2351
11399TIP3   OH255687   5.092   6.020   1.079 -0.7952 -0.1504  0.0670
11399TIP3    H155688   5.185   6.040   1.084 -0.8759  0.3157 -0.2402
11399TIP3    H255689   5.072   6.020   0.986 -1.3579  1.0250  0.1628
11400TIP3   OH255690   0.916   5.625  16.800  0.0083  0.8730 -0.2186
11400TIP3    H155691   0.992   5.578  16.764 -0.8994 -1.5690  0.8083
11400TIP3    H255692   0.954   5.690  16.859  1.3489  0.2558 -0.3550
11401TIP3   OH255693   4.219   4.359   0.311 -0.6151  0.4970  0.1470
11401TIP3    H155694   4.265   4.282   0.277 -0.3270  0.1119  1.3666
11401TIP3    H255695   4.135   4.324   0.342 -1.7333  1.1689 -1.9409
11402TIP3   OH255696   5.894   4.416   4.059  0.8946 -0.2008  0.6327
11402TIP3    H155697   5.922   4.332   4.094  2.3964 -0.1711 -0.4275
11402TIP3    H255698   5.873   4.398   3.967 -1.0518  0.1316  0.9569
11403TIP3   OH255699   2.908   0.664  12.228  0.1390  0.2622  0.2663
11403TIP3    H155700   2.898   0.637  12.136 -2.6464  3.3176 -0.5674
11403TIP3    H255701   2.830   0.629  12.271  1.6343 -1.4963  1.6628
11404TIP3   OH255702   5.495   6.234   5.441 -0.7054 -0.2800 -0.0968
11404TIP3    H155703   5.505   6.326   5.469 -1.4402  0.2450 -1.4965
11404TIP3    H255704   5.401   6.220   5.438 -0.6003 -1.5110  1.3467
11405TIP3   OH255705   2.955   4.086   2.893 -0.0727  0.0153  0.2044
11405TIP3    H155706   2.982   4.077   2.802 -0.8286 -0.1787 -0.0094
11405TIP3    H255707   3.025   4.135   2.935 -0.2207  1.0563 -0.7301
11406TIP3   OH255708   3.708   3.210   3.616  0.4507 -0.1635 -0.1025
11406TIP3    H155709   3.651   3.192   3.541 -0.4579 -2.5539  1.0284
11406TIP3    H255710   3.648   3.244   3.683  1.3436  2.4839 -0.5727
11407TIP3   OH255711   4.988   0.570   4.638 -0.2526 -0.3056 -0.9151
11407TIP3    H155712   4.931   0.640   4.672  1.9829  1.1374  0.0600
11407TIP3    H255713   5.018   0.602   4.553 -0.0234 -0.5362 -0.9212
11408TIP3   OH255714   5.586   4.282  12.237 -0.6236 -0.3765 -0.1868
11408TIP3    H155715   5.579   4.360  12.292 -0.1224  0.0268 -0.6817
11408TIP3    H255716   5.664   4.297  12.183  0.3089 -1.8181  0.6625
11409TIP3   OH255717   4.061   1.800   4.323  0.0431 -0.2402  0.0715
11409TIP3    H155718   4.120   1.771   4.393 -0.5020 -0.1789  0.5612
11409TIP3    H255719   4.120   1.824   4.251  0.7894  1.9822  1.3178
11410TIP3   OH255720   0.536   0.126  16.263  0.3470 -0.4705  0.1821
11410TIP3    H155721   0.509   0.071  16.336 -1.2114  1.0424  0.8294
11410TIP3    H255722   0.458   0.134  16.208  1.1416 -0.5834 -0.9989
11411TIP3   OH255723   0.352   4.348   3.010  0.0845 -0.4797  0.1885
11411TIP3    H155724   0.405   4.335   2.932 -0.4407 -0.3484 -0.1982
11411TIP3    H255725   0.265   4.318   2.985 -0.0666 -0.5226  0.7530
11412TIP3   OH255726   1.445   2.508   0.704  0.1154 -0.7655 -0.1729
11412TIP3    H155727   1.483   2.495   0.617  2.5034  1.1381  0.4711
11412TIP3    H255728   1.479   2.593   0.732 -1.8993 -0.5735  2.0019
11413TIP3   OH255729   1.372   3.563   0.444 -0.0744 -0.4052 -0.0322
11413TIP3    H155730   1.446   3.588   0.500 -0.0638 -0.6965  0.0849
11413TIP3    H255731   1.363   3.636   0.383  0.3872 -0.4215 -0.1241
11414TIP3   OH255732   3.255   1.219   0.041 -0.3474 -0.7258 -0.0564
11414TIP3    H155733   3.308   1.142   0.061  1.7173  0.3327 -1.0501
11414TIP3    H255734   3.305   1.292   0.078 -1.6910  0.2486 -0.0974
11415TIP3   OH255735   1.200   5.855   2.766  0.1525  0.5247  0.1323
11415TIP3    H155736   1.275   5.903   2.730  0.9172 -1.1445 -0.5707
11415TIP3    H255737   1.225   5.835   2.856  0.4879  0.1196 -0.0483
11416TIP3   OH255738   3.013   4.354   6.160 -0.0796 -0.1932 -0.2624
11416TIP3    H155739   2.977   4.299   6.229 -1.7234 -0.8670 -1.5774
11416TIP3    H255740   3.075   4.412   6.204  0.2700 -1.7925  1.4663
11417TIP3   OH255741   3.025   6.744  16.223  0.0823 -0.2823 -0.0955
11417TIP3    H155742   3.073   6.776  16.146 -0.8460  1.1408 -0.1134
11417TIP3    H255743   2.973   6.819  16.251 -0.1014 -0.9886  1.5327
11418TIP3   OH255744   5.155   2.800  13.218  0.2202  0.2238  0.7729
11418TIP3    H155745   5.092   2.813  13.289  1.5694  0.8364  1.9001
11418TIP3    H255746   5.113   2.736  13.160 -1.4956  0.7316  1.3911
11419TIP3   OH255747   5.725   4.448  15.123  0.0128  0.9094  0.2218
11419TIP3    H155748   5.707   4.539  15.143 -1.1733  1.0754 -1.4255
11419TIP3    H255749   5.727   4.404  15.208 -3.0373  1.8465  0.8883
11420TIP3   OH255750   3.870   0.931   4.611 -0.3390  0.0223  0.3199
11420TIP3    H155751   3.861   0.880   4.692  0.0026 -1.1109 -0.3189
11420TIP3    H255752   3.957   0.907   4.578 -0.5968  0.2369 -0.5332
11421TIP3   OH255753   0.832   5.351  16.681 -0.1981  0.2761 -0.4775
11421TIP3    H155754   0.786   5.429  16.714  1.3834  0.5428  1.2430
11421TIP3    H255755   0.899   5.333  16.747 -0.8049 -2.8556 -0.5699
11422TIP3   OH255756   4.202   4.732  13.198  0.1443 -0.3747 -0.1138
11422TIP3    H155757   4.134   4.713  13.262  0.6648 -0.0744  0.5416
11422TIP3    H255758   4.269   4.665  13.214  0.2571 -0.3239 -0.3761
11423TIP3   OH255759   2.085   6.690   1.410 -0.2008 -0.2503 -0.0714
11423TIP3    H155760   2.148   6.658   1.346 -0.5441 -1.6210  0.2475
11423TIP3    H255761   2.090   6.628   1.482 -1.0463  0.2969  0.4789
11424TIP3   OH255762   0.006   1.490   1.623 -0.0181 -0.3060  0.4186
11424TIP3    H155763   0.101   1.501   1.624  0.1624 -1.5780  0.0365
11424TIP3    H255764  -0.017   1.495   1.530 -0.2656 -0.4217  0.4741
11425TIP3   OH255765   3.504   0.720  13.498  0.0237 -0.0177  0.6592
11425TIP3    H155766   3.429   0.672  13.462 -0.3383 -1.6896  3.2950
11425TIP3    H255767   3.554   0.653  13.546  0.6195  1.8541  2.8381
11426TIP3   OH255768   1.574   5.735  15.818  0.1783  0.2584  0.3145
11426TIP3    H155769   1.630   5.660  15.801 -1.0538 -0.6509  0.0975
11426TIP3    H255770   1.543   5.723  15.908 -2.7722 -1.4644 -0.7909
11427TIP3   OH255771   0.549   3.222  13.307 -0.4664  0.1287 -0.0373
11427TIP3    H155772   0.619   3.203  13.244 -0.8972 -0.4228 -0.3593
11427TIP3    H255773   0.468   3.214  13.256 -0.8828 -1.2591  0.7850
11428TIP3   OH255774   5.251   2.073  14.662  0.2950  0.0011  0.5781
11428TIP3    H155775   5.218   1.985  14.682 -0.9689  0.6512  1.4475
11428TIP3    H255776   5.226   2.126  14.737  0.6041  1.2317 -0.1612
11429TIP3   OH255777   6.479   0.040  15.986 -0.2749  0.7950  0.1499
11429TIP3    H155778   6.568   0.005  15.994 -0.7449 -0.1654  1.4730
11429TIP3    H255779   6.483   0.098  15.910  1.1750 -0.1696 -0.5514
11430TIP3   OH255780   4.658   5.008  13.651  0.4900 -0.1688 -0.4516
11430TIP3    H155781   4.630   4.972  13.567 -0.4275  0.3159 -0.3594
11430TIP3    H255782   4.750   5.032  13.637  1.1560 -2.4785 -0.5344
11431TIP3   OH255783   5.175   1.277  14.806 -0.5027  0.1838  0.1437
11431TIP3    H155784   5.174   1.235  14.892 -0.1875  0.3232  0.2170
11431TIP3    H255785   5.097   1.244  14.762 -0.1445 -0.6526  0.1198
11432TIP3   OH255786   1.276   5.825  16.969 -0.0172  0.8394 -0.6491
11432TIP3    H155787   1.316   5.842  17.055 -1.3256 -0.3733  0.2520
11432TIP3    H255788   1.326   5.750  16.935 -1.1239 -0.3669  0.2644
11433TIP3   OH255789   3.635   1.784  16.610 -0.2501  0.6738 -0.9773
11433TIP3    H155790   3.719   1.750  16.579 -1.0605 -1.4668 -1.0278
11433TIP3    H255791   3.634   1.762  16.703 -1.0837 -0.1414 -1.1584
11434TIP3   OH255792   0.029   2.339  14.180 -0.0352  0.6872  0.4321
11434TIP3    H155793   0.101   2.348  14.243  1.9284 -0.9664 -1.4165
11434TIP3    H255794   0.059   2.387  14.103 -1.3042  0.6472 -0.1037
11435TIP3   OH255795   2.996   0.891  17.111 -0.2558 -0.5282 -0.1815
11435TIP3    H155796   2.914   0.882  17.159 -0.6561 -0.1389 -0.7858
11435TIP3    H255797   3.050   0.818  17.142  0.1306  0.6363  2.0975
11436TIP3   OH255798   6.618   3.118   4.330  0.7485 -0.0259 -0.0038
11436TIP3    H155799   6.621   3.168   4.412 -1.0347  0.6876 -0.3258
11436TIP3    H255800   6.621   3.026   4.359  1.1668  0.2286  0.7926
11437TIP3   OH255801   5.240   1.045   6.502  0.3897  0.5458  0.0075
11437TIP3    H155802   5.266   0.959   6.535  0.2003 -0.6111 -2.6109
11437TIP3    H255803   5.323   1.087   6.480  0.4302  0.5916  0.2389
11438TIP3   OH255804   0.053   5.149  14.274  0.5765 -0.2010  0.4564
11438TIP3    H155805   0.127   5.092  14.294  1.8026  1.2222  0.1029
11438TIP3    H255806   0.009   5.105  14.201  0.5998 -1.4448  1.1553
11439TIP3   OH255807   0.445   1.301   4.914  0.2754  0.7074 -0.1210
11439TIP3    H155808   0.403   1.320   4.998  0.3054  1.9402 -0.3681
11439TIP3    H255809   0.484   1.385   4.887  1.6211 -0.0489 -0.6084
11440TIP3   OH255810   0.097   3.311   2.886 -0.3070  0.8698 -0.1708
11440TIP3    H155811   0.100   3.386   2.828 -2.9580  1.2130  0.0111
11440TIP3    H255812   0.005   3.304   2.912  0.1342 -1.4732  1.0831
11441TIP3   OH255813   2.380   5.774  12.473  0.0036  0.3799  0.8716
11441TIP3    H155814   2.425   5.778  12.558  0.4132  0.1589  0.6725
11441TIP3    H255815   2.288   5.786  12.494 -0.1854 -1.8296  1.6243
11442TIP3   OH255816   5.788   4.929  12.986  0.1606 -0.0150  0.6042
11442TIP3    H155817   5.878   4.895  12.981 -0.2162 -0.9169 -0.4472
11442TIP3    H255818   5.760   4.935  12.895 -1.2739 -0.9276  0.9610
11443TIP3   OH255819   0.995   1.919  12.811 -0.5530  0.3916 -0.5167
11443TIP3    H155820   0.937   1.863  12.862 -2.1140  0.9982 -1.5589
11443TIP3    H255821   0.991   2.004  12.854  0.7451  0.0916  0.2587
11444TIP3   OH255822   3.491   6.235   1.699  0.0105 -0.1248  0.5759
11444TIP3    H155823   3.508   6.156   1.648  1.5016  1.3045 -1.2936
11444TIP3    H255824   3.564   6.240   1.761  0.6180  0.4207 -0.1692
11445TIP3   OH255825   0.895   2.225  11.328  0.5166  0.5702 -0.3260
11445TIP3    H155826   0.921   2.164  11.259  0.8380 -0.3326  0.5633
11445TIP3    H255827   0.820   2.183  11.371 -0.3201  1.5990 -0.7539
11446TIP3   OH255828   5.416   2.853  11.542 -0.0036 -0.2651  0.5143
11446TIP3    H155829   5.382   2.921  11.600  0.3450  0.3166  0.0521
11446TIP3    H255830   5.488   2.896  11.494 -1.2415 -0.2437 -1.4470
11447TIP3   OH255831   0.534   6.086   4.266  0.0941  0.8622  0.0275
11447TIP3    H155832   0.592   6.026   4.220 -0.3053 -0.0382  0.6554
11447TIP3    H255833   0.547   6.065   4.359 -2.1956 -0.3387  0.1594
11448TIP3   OH255834   2.080   1.960   3.448  0.0189 -0.2268 -0.4478
11448TIP3    H155835   2.055   1.967   3.540 -0.7290  1.2221 -0.7227
11448TIP3    H255836   2.157   2.017   3.439 -1.4756  1.7902 -1.1993
11449TIP3   OH255837   2.122   1.168   4.035 -0.2998 -0.0883  0.6855
11449TIP3    H155838   2.081   1.083   4.051 -1.0881  0.3430  1.0765
11449TIP3    H255839   2.092   1.193   3.947  1.8116 -1.2280 -0.4315
11450TIP3   OH255840   5.489   6.812   4.082  0.5114  0.1859  0.8081
11450TIP3    H155841   5.575   6.772   4.090  0.1228 -0.6760  0.7972
11450TIP3    H255842   5.473   6.818   3.988 -0.1873 -1.3522  0.7967
11451TIP3   OH255843   4.785   0.844  11.521 -0.7322  0.3294 -0.3679
11451TIP3    H155844   4.756   0.935  11.515 -1.8625 -0.1085 -3.6108
11451TIP3    H255845   4.847   0.834  11.449  3.0415 -0.4403  2.6333
11452TIP3   OH255846   3.395   4.863   2.175 -0.1469 -0.3107 -0.5777
11452TIP3    H155847   3.358   4.952   2.181 -1.3540 -0.8676  0.6101
11452TIP3    H255848   3.490   4.877   2.172 -0.2651  0.9899  0.6795
11453TIP3   OH255849   3.813   5.947   1.380  0.4063  0.0307 -0.4922
11453TIP3    H155850   3.853   5.863   1.402  0.1622  0.2497  0.8826
11453TIP3    H255851   3.798   5.943   1.285 -2.2164 -2.6392 -0.0947
11454TIP3   OH255852   2.344   0.721  14.404 -0.4422 -0.2211  0.1809
11454TIP3    H155853   2.367   0.733  14.312  2.3593 -1.4101  0.6339
11454TIP3    H255854   2.308   0.806  14.430  0.6891  0.8289 -1.4629
11455TIP3   OH255855   5.853   4.735   2.458  0.2594 -0.2471 -0.0837
11455TIP3    H155856   5.918   4.695   2.516  1.0946 -0.7479 -1.3086
11455TIP3    H255857   5.801   4.662   2.425 -0.3894  0.0610  0.2347
11456TIP3   OH255858   4.414   1.398   0.474  0.4826  0.2339 -0.2269
11456TIP3    H155859   4.413   1.493   0.486 -0.9521 -0.0366  2.3774
11456TIP3    H255860   4.380   1.385   0.385  0.9050  2.1313 -0.7134
11457TIP3   OH255861   5.311   3.202   4.946  0.4555 -0.1451  0.2379
11457TIP3    H155862   5.335   3.150   5.023 -0.0883  0.7964  1.0690
11457TIP3    H255863   5.247   3.148   4.900 -0.7991  0.1225  1.5851
11458TIP3   OH255864   5.916   3.296  13.507  0.3339 -0.4796 -0.9455
11458TIP3    H155865   5.973   3.265  13.437  1.3571  1.0044 -0.8156
11458TIP3    H255866   5.895   3.387  13.482 -0.7072 -0.4998 -0.1967
11459TIP3   OH255867   3.931   6.392   2.194 -0.4013 -0.6271 -0.0954
11459TIP3    H155868   3.938   6.484   2.169 -0.7698  0.0010  1.9728
11459TIP3    H255869   3.898   6.349   2.115 -0.6338  1.0735 -0.9846
11460TIP3   OH255870   5.451   2.235  14.578 -0.5058  0.2349 -0.3064
11460TIP3    H155871   5.512   2.161  14.584 -0.4953  0.1114 -1.6702
11460TIP3    H255872   5.364   2.194  14.577 -0.5527  0.3202  0.1358
11461TIP3   OH255873   5.374   2.502   5.993  0.7275 -0.0754  0.6961
11461TIP3    H155874   5.427   2.497   5.913  1.5983  1.0916  1.1675
11461TIP3    H255875   5.437   2.490   6.064  0.1593  0.1230  1.2422
11462TIP3   OH255876   0.293   3.924  14.752  0.3786  0.0371  0.0399
11462TIP3    H155877   0.256   3.837  14.762  0.8101 -0.2471 -0.7829
11462TIP3    H255878   0.352   3.917  14.677  0.3998  1.0418 -0.0509
11463TIP3   OH255879   0.210   6.102  15.001  0.1752 -0.1522 -0.3151
11463TIP3    H155880   0.175   6.177  15.050  1.3805  0.4841 -0.3675
11463TIP3    H255881   0.171   6.025  15.042  1.7367  0.3071  2.2202
11464TIP3   OH255882   1.408   1.231   5.301  0.0272  0.2829 -0.0897
11464TIP3    H155883   1.419   1.218   5.395  0.4226 -0.8012 -0.2776
11464TIP3    H255884   1.364   1.316   5.294 -2.6225 -0.8358  1.2279
11465TIP3   OH255885   3.778   6.189   2.434  0.2650 -0.0164 -0.1676
11465TIP3    H155886   3.808   6.158   2.519  1.6308 -1.8055 -1.2188
11465TIP3    H255887   3.859   6.213   2.388 -0.0312 -2.3438 -2.1143
11466TIP3   OH255888   1.670   3.769   1.425  0.2781 -0.2564 -0.1872
11466TIP3    H155889   1.680   3.737   1.335  0.7483  1.6008 -0.8265
11466TIP3    H255890   1.653   3.862   1.416  0.0154 -0.0840  1.6639
11467TIP3   OH255891   5.570   1.705   2.616 -0.5087  0.6931  0.6452
11467TIP3    H155892   5.583   1.616   2.583 -1.3601  0.2885  1.3602
11467TIP3    H255893   5.586   1.761   2.540  1.1020  0.0096  0.4552
11468TIP3   OH255894   2.935   4.391   2.465  0.4084  0.2870 -0.0722
11468TIP3    H155895   2.869   4.422   2.527  0.4699 -0.3046  0.3038
11468TIP3    H255896   3.004   4.354   2.521  0.2114 -0.7574 -0.4923
11469TIP3   OH255897   4.947   5.890   0.002 -0.0834  0.4171 -0.2284
11469TIP3    H155898   4.910   5.805   0.025 -0.4962  0.4281 -0.8390
11469TIP3    H255899   4.881   5.954   0.029 -0.7192  0.4153 -1.6574
11470TIP3   OH255900   2.978   6.070  12.930 -0.0294  0.1162  0.0944
11470TIP3    H155901   2.949   6.155  12.963  1.2910  0.6219  0.0204
11470TIP3    H255902   2.898   6.019  12.921 -1.1290  2.0791 -1.9989
11471TIP3   OH255903   3.924   1.367   4.776 -0.3892 -0.4805  0.3021
11471TIP3    H155904   3.986   1.341   4.843 -1.3409 -1.2366  0.9154
11471TIP3    H255905   3.978   1.393   4.701  0.6643 -0.2303  1.1376
11472TIP3   OH255906   1.883   3.223  11.901 -0.1657 -0.2118  0.7665
11472TIP3    H155907   1.841   3.275  11.970  1.6645 -0.5336  2.2176
11472TIP3    H255908   1.812   3.169  11.866 -1.8206  2.1685  0.1831
11473TIP3   OH255909   4.117   3.278   0.857 -0.4212  0.1536  0.3557
11473TIP3    H155910   4.048   3.220   0.827 -0.1857  0.6354 -1.1758
11473TIP3    H255911   4.073   3.362   0.874 -0.0647  0.8695 -1.9261
11474TIP3   OH255912   1.903   2.504   4.671 -0.5674  0.2206 -0.5661
11474TIP3    H155913   1.890   2.599   4.671 -0.4755  0.2335 -0.5983
11474TIP3    H255914   1.926   2.482   4.580 -3.4639 -0.2419 -1.2852
11475TIP3   OH255915   5.491   2.796   3.827 -0.0701 -0.6405  0.2529
11475TIP3    H155916   5.473   2.702   3.823 -0.5560 -0.5625  0.5122
11475TIP3    H255917   5.472   2.820   3.917 -0.6104 -0.1657  0.0197
11476TIP3   OH255918   2.209   0.004  10.425  0.3054  0.2575  0.7086
11476TIP3    H155919   2.246   0.044  10.503  1.2302  2.5208 -0.7945
11476TIP3    H255920   2.264  -0.073  10.410  1.9847  1.3980  0.7135
11477TIP3   OH255921   6.224   5.923  16.659  0.2240 -0.2404  0.5232
11477TIP3    H155922   6.245   5.832  16.637  1.6024  0.3621 -0.8161
11477TIP3    H255923   6.206   5.965  16.575  0.1192  0.8512  1.0728
11478TIP3   OH255924   3.402   2.550  13.517  0.4164  0.5151 -0.2522
11478TIP3    H155925   3.335   2.521  13.579  1.7774  0.9105  1.4478
11478TIP3    H255926   3.363   2.627  13.474 -1.2883 -0.8711 -1.3470
11479TIP3   OH255927   2.079   5.520   1.919  0.3247  0.3521  0.5091
11479TIP3    H155928   2.011   5.520   1.987  0.8986  0.9653  1.1001
11479TIP3    H255929   2.148   5.463   1.953  0.4655  0.3904  0.2884
11480TIP3   OH255930   6.160   1.236   0.688 -0.4329 -0.7087  0.7455
11480TIP3    H155931   6.137   1.245   0.596  0.4729  0.5849  0.6309
11480TIP3    H255932   6.094   1.287   0.735  0.7302  0.9919  0.5889
11481TIP3   OH255933   4.744   2.558   3.732  0.2581  0.6943  0.4667
11481TIP3    H155934   4.741   2.562   3.828 -0.1886  0.8437  0.4527
11481TIP3    H255935   4.707   2.642   3.704 -1.5256 -0.1295  0.1682
11482TIP3   OH255936   0.051   0.936  16.926  0.3865 -0.4486 -0.2915
11482TIP3    H155937   0.053   0.933  17.022  1.8568 -1.1862 -0.3224
11482TIP3    H255938  -0.016   1.001  16.906 -0.4210 -0.7536  1.2302
11483TIP3   OH255939   1.320   0.411   3.402  0.9685  0.2096  0.3364
11483TIP3    H155940   1.325   0.417   3.497 -0.9332 -0.3080  0.5250
11483TIP3    H255941   1.306   0.318   3.385  0.5443  0.4003 -0.3922
11484TIP3   OH255942   2.884   3.052   6.383 -0.3657 -0.2369  0.3114
11484TIP3    H155943   2.843   3.045   6.296  1.9386  0.4578 -0.9229
11484TIP3    H255944   2.841   2.984   6.435 -0.1998 -2.3179 -2.0752
11485TIP3   OH255945   1.020   0.708  12.085 -0.0024  0.1579 -0.0048
11485TIP3    H155946   0.943   0.704  12.142  0.9302  2.3455  1.5159
11485TIP3    H255947   1.063   0.791  12.107  2.1003 -0.3756 -1.7277
11486TIP3   OH255948   4.145   2.526   2.667 -0.2735 -0.2737 -0.7711
11486TIP3    H155949   4.212   2.458   2.662  0.7945  0.6604  0.1374
11486TIP3    H255950   4.195   2.608   2.677 -1.4740  0.7626 -2.5961
11487TIP3   OH255951   5.356   2.841   4.946  0.6393 -0.1944 -0.1827
11487TIP3    H155952   5.425   2.803   5.000  1.0612 -0.1524 -0.6773
11487TIP3    H255953   5.335   2.924   4.989 -0.4695 -1.0837  1.0439
11488TIP3   OH255954   2.075   2.590  12.763 -0.0717  0.0418 -0.3083
11488TIP3    H155955   2.169   2.573  12.769 -0.1882 -0.4210  0.3258
11488TIP3    H255956   2.034   2.516  12.807 -0.7104  0.4823 -0.1415
11489TIP3   OH255957   1.005   4.464  13.755 -0.2585 -0.0977 -0.2776
11489TIP3    H155958   1.086   4.479  13.705 -0.4254 -0.3701 -0.6340
11489TIP3    H255959   0.942   4.433  13.689 -0.0219 -2.0484  0.3715
11490TIP3   OH255960   5.637   6.519   4.356  0.2593 -0.4434  0.8246
11490TIP3    H155961   5.619   6.447   4.416  3.4068  0.6362  3.3242
11490TIP3    H255962   5.596   6.595   4.398 -0.3238 -0.1991 -0.1589
11491TIP3   OH255963   1.982   3.945  14.720 -0.0994 -0.3916 -0.1132
11491TIP3    H155964   1.920   3.878  14.692 -2.4649  2.2098 -1.5648
11491TIP3    H255965   1.927   4.017  14.753  1.9095  2.6682 -2.8172
11492TIP3   OH255966   0.244   0.230  13.650  0.2437 -0.3843  0.0935
11492TIP3    H155967   0.298   0.261  13.723  0.3178 -0.4412  0.0633
11492TIP3    H255968   0.176   0.176  13.692  1.0215 -1.4563  0.0291
11493TIP3   OH255969   4.423   5.887  14.959  0.0815  0.0959 -0.7451
11493TIP3    H155970   4.362   5.941  14.909  0.8981  1.5638 -0.2325
11493TIP3    H255971   4.379   5.874  15.043 -0.6593 -1.1429 -1.2963
11494TIP3   OH255972   2.098   5.639  15.222  0.5780 -1.3527  0.0405
11494TIP3    H155973   2.038   5.669  15.291  1.1242 -0.5679  0.1839
11494TIP3    H255974   2.099   5.711  15.159  3.0551 -0.3335  1.1016
11495TIP3   OH255975   1.440   3.517  15.117  0.3630  0.0903 -0.0666
11495TIP3    H155976   1.448   3.600  15.162  2.0589 -0.3624  0.5397
11495TIP3    H255977   1.508   3.461  15.156 -0.6091 -1.5220 -0.5697
11496TIP3   OH255978   0.059   4.193   1.064  0.6183  0.2933  0.0371
11496TIP3    H155979   0.148   4.208   1.032  1.1800 -1.4692  0.6549
11496TIP3    H255980   0.071   4.164   1.154 -0.5651 -0.2685  0.0277
11497TIP3   OH255981   3.074   6.119  12.294  0.2283  0.0904 -0.0491
11497TIP3    H155982   2.985   6.084  12.300  0.9498 -1.5456  2.3063
11497TIP3    H255983   3.102   6.131  12.384  2.6314 -0.0226 -0.7098
11498TIP3   OH255984   6.475   6.294   3.434 -0.6508  0.0436  0.8008
11498TIP3    H155985   6.520   6.364   3.387  0.1929 -0.4298  0.8763
11498TIP3    H255986   6.439   6.337   3.512  0.7517  0.2254  1.3852
11499TIP3   OH255987   0.333   3.103  14.322 -0.3813 -0.0357 -0.0804
11499TIP3    H155988   0.341   3.110  14.227  0.3958 -1.8366 -0.1732
11499TIP3    H255989   0.309   3.012  14.338 -0.6047  0.2654  1.4519
11500TIP3   OH255990   2.062   1.525  14.339  0.4470  0.0518  0.2944
11500TIP3    H155991   2.065   1.488  14.250  1.0269  2.9435 -1.0014
11500TIP3    H255992   2.151   1.555  14.356  0.4664 -0.9301  2.1213
11501TIP3   OH255993   6.180   1.153   5.260  0.0686 -0.5848 -0.2848
11501TIP3    H155994   6.137   1.188   5.338  0.1268 -2.5468  0.6976
11501TIP3    H255995   6.212   1.230   5.213 -1.8192  0.7549  0.5148
11502TIP3   OH255996   4.552   3.172  11.591 -0.0763  0.5924 -0.2168
11502TIP3    H155997   4.590   3.165  11.678  0.3675 -0.4863 -0.4823
11502TIP3    H255998   4.625   3.199  11.535 -0.1825  0.5420 -0.3823
11503TIP3   OH255999   4.546   2.188  11.781 -0.1100  0.0251  0.0578
11503TIP3    H156000   4.584   2.258  11.728 -2.2651 -0.6318 -2.6004
11503TIP3    H256001   4.619   2.130  11.801  0.8606  0.3810 -2.1786
11504TIP3   OH256002   2.911   1.206  16.710  0.5606 -0.3339  0.6394
11504TIP3    H156003   3.002   1.186  16.730  0.7433  0.6789  0.8733
11504TIP3    H256004   2.900   1.182  16.618  1.3108  0.3636  0.3606
11505TIP3   OH256005   1.625   1.695  16.277 -0.5451 -0.2246  0.3511
11505TIP3    H156006   1.544   1.652  16.251 -0.0181 -0.3198 -1.2232
11505TIP3    H256007   1.655   1.740  16.198  0.8168 -0.0052  0.9632
11506TIP3   OH256008   4.053   0.522  15.208  0.6414  0.0685 -0.7698
11506TIP3    H156009   4.132   0.496  15.161  0.4558  1.5135 -1.9566
11506TIP3    H256010   4.055   0.618  15.207 -1.0462  0.1319 -0.7170
11507TIP3   OH256011   6.273   3.831  11.347  0.3787 -0.0887  0.9612
11507TIP3    H156012   6.198   3.781  11.314  0.7963 -0.7452  0.9884
11507TIP3    H256013   6.296   3.889  11.275 -1.3077  1.4667  1.6035
11508TIP3   OH256014   2.299   4.136  10.664 -0.4994 -0.3642  0.6325
11508TIP3    H156015   2.355   4.097  10.731  0.2839  1.9832  1.4354
11508TIP3    H256016   2.245   4.199  10.712 -0.9779  0.2956 -0.7199
11509TIP3   OH256017   4.689   6.821  11.551 -0.0733 -0.0981  0.3175
11509TIP3    H156018   4.727   6.768  11.481  0.2595 -0.5733  0.8407
11509TIP3    H256019   4.613   6.863  11.512  0.4563  0.1226 -0.4942
11510TIP3   OH256020   2.249   2.474   0.958  0.0542 -0.2183  0.1580
11510TIP3    H156021   2.262   2.405   1.024  0.8977 -1.0191 -0.7998
11510TIP3    H256022   2.338   2.503   0.936 -0.3071  2.0433  1.3746
11511TIP3   OH256023   6.159   5.354   1.233  0.1112  0.5482  0.3784
11511TIP3    H156024   6.222   5.397   1.174  1.9179 -1.4130  0.7636
11511TIP3    H256025   6.209   5.339   1.314 -0.9328 -0.7921  0.8066
11512TIP3   OH256026   6.813   4.067   3.291 -0.0806  0.5812  0.1388
11512TIP3    H156027   6.863   4.009   3.349 -1.1284 -0.5354 -0.0270
11512TIP3    H256028   6.780   4.009   3.223  0.3320  1.7179 -1.0613
11513TIP3   OH256029   6.738   4.079   3.700 -0.3182  0.1616  0.1427
11513TIP3    H156030   6.724   4.087   3.606 -0.9662  0.8882  0.2866
11513TIP3    H256031   6.782   3.995   3.711  1.9690  1.1285 -1.0169
11514TIP3   OH256032   6.686   6.562  16.046 -0.2639 -0.1941  0.1506
11514TIP3    H156033   6.672   6.655  16.066  0.1378 -0.0671 -0.1525
11514TIP3    H256034   6.757   6.562  15.982 -1.9844 -0.5473 -1.8731
11515TIP3   OH256035   6.777   5.318  11.861  0.3626  0.1478 -0.1048
11515TIP3    H156036   6.722   5.318  11.782  1.9220  0.7363 -1.2563
11515TIP3    H256037   6.859   5.276  11.833  1.3640  1.3563  0.8856
11516TIP3   OH256038   6.572   2.588   1.675  0.2858  0.4287 -0.0572
11516TIP3    H156039   6.523   2.671   1.676  0.1980  0.3753  0.4794
11516TIP3    H256040   6.504   2.520   1.671  0.1651  0.2784  2.5970
11517TIP3   OH256041   3.354   3.942   0.892  0.1621 -0.6906 -0.2331
11517TIP3    H156042   3.314   3.896   0.966  1.0761  1.2033  1.5372
11517TIP3    H256043   3.441   3.966   0.923 -0.5404  2.9036 -0.6910
11518TIP3   OH256044   6.659   4.273   5.961 -0.2888 -0.0236 -0.5537
11518TIP3    H156045   6.645   4.368   5.969  0.2518 -0.0077  0.4659
11518TIP3    H256046   6.753   4.261   5.975 -0.6860 -0.9074  2.0491
11519TIP3   OH256047   4.457   2.057   1.909  0.1698 -1.3857  0.0332
11519TIP3    H156048   4.425   1.990   1.848 -0.0354  0.3283 -1.8527
11519TIP3    H256049   4.507   2.117   1.854 -1.4124  1.1744  1.2099
11520TIP3   OH256050   4.935   0.835  16.168  0.4502 -0.2151  0.5118
11520TIP3    H156051   4.982   0.878  16.097 -0.1240 -1.0377 -0.3917
11520TIP3    H256052   5.003   0.788  16.218  0.8340  0.2515  0.4258
11521TIP3   OH256053   4.959   0.957  14.502  0.3813 -0.3128  0.0766
11521TIP3    H156054   4.993   0.874  14.535  0.4282 -0.3953 -0.1780
11521TIP3    H256055   4.881   0.933  14.452  1.3513 -0.4032 -1.4662
11522TIP3   OH256056   3.248   1.556   4.975 -0.5976 -0.2127 -0.0314
11522TIP3    H156057   3.233   1.645   4.943 -2.9729 -0.3790  0.4208
11522TIP3    H256058   3.209   1.500   4.908  1.4897 -1.0035 -0.6560
11523TIP3   OH256059   4.492   4.681  15.924 -0.2733 -0.1311  0.9255
11523TIP3    H156060   4.443   4.717  15.850 -1.1652  0.7860  1.9253
11523TIP3    H256061   4.556   4.621  15.885 -0.1306  1.0059 -0.6423
11524TIP3   OH256062   0.399   5.447  11.998  0.4578 -0.1494  0.1457
11524TIP3    H156063   0.308   5.433  12.023  0.9945 -0.5111  2.0500
11524TIP3    H256064   0.400   5.538  11.966 -0.6530 -0.3165 -0.4343
11525TIP3   OH256065   4.880   6.131   2.032 -0.7034  0.3205  0.2985
11525TIP3    H156066   4.925   6.079   2.098 -2.9425 -3.0265 -0.5274
11525TIP3    H256067   4.797   6.155   2.073 -1.1977  0.1011 -0.5526
11526TIP3   OH256068   6.753   5.448   0.606  0.5115 -0.3006 -0.0482
11526TIP3    H156069   6.700   5.377   0.571 -1.1404  1.4413 -1.3087
11526TIP3    H256070   6.781   5.418   0.692 -1.2752 -1.8966  0.0323
11527TIP3   OH256071   2.586   4.491  13.347  0.1845  0.1543 -0.0813
11527TIP3    H156072   2.621   4.494  13.258 -2.3683 -2.7343 -1.3183
11527TIP3    H256073   2.634   4.420  13.389 -0.3566 -0.1615  0.0083
11528TIP3   OH256074   1.895   1.987   4.038  0.7752  0.0094 -0.0596
11528TIP3    H156075   1.859   1.899   4.047 -1.2668  0.6076 -1.7380
11528TIP3    H256076   1.921   1.994   3.946  3.3337  0.3541  0.6057
11529TIP3   OH256077   4.065   0.289   3.757  0.7253 -0.0730 -0.3879
11529TIP3    H156078   4.062   0.373   3.711  2.1935 -0.4288 -1.2055
11529TIP3    H256079   4.086   0.312   3.848  1.2391  0.4560 -0.6309
11530TIP3   OH256080   2.539   6.218  11.601 -0.0174  0.8722 -0.0913
11530TIP3    H156081   2.623   6.176  11.586 -1.2695 -1.1751 -2.1206
11530TIP3    H256082   2.513   6.250  11.514 -0.8435  2.5142  0.7138
11531TIP3   OH256083   5.708   1.206  10.935 -0.3206  0.4654  0.9915
11531TIP3    H156084   5.707   1.261  10.857 -2.3453  0.1107  0.7275
11531TIP3    H256085   5.771   1.249  10.993  1.9597  0.2409 -1.1307
11532TIP3   OH256086   1.956   0.724   5.726  0.4246  0.4088 -0.0046
11532TIP3    H156087   2.001   0.766   5.800 -1.4825  0.1249  1.3929
11532TIP3    H256088   1.977   0.779   5.651  1.3322  1.4906  0.9953
11533TIP3   OH256089   4.536   1.026   5.888 -0.0299  0.2052 -0.0159
11533TIP3    H156090   4.467   1.017   5.822  0.2164 -0.0268 -0.2415
11533TIP3    H256091   4.492   1.068   5.962 -0.6926 -0.9449  0.2650
11534TIP3   OH256092   0.499   2.452  11.814 -0.3159  0.2495 -0.4913
11534TIP3    H156093   0.469   2.446  11.723 -0.3054 -0.5555 -0.4469
11534TIP3    H256094   0.573   2.391  11.819  0.9044  1.6911 -0.4131
11535TIP3   OH256095   1.834   3.223  16.603  0.0824  0.3833 -0.1719
11535TIP3    H156096   1.786   3.150  16.563  0.3747  0.6244 -0.9979
11535TIP3    H256097   1.838   3.290  16.534 -0.6700  1.4176  0.7539
11536TIP3   OH256098   1.879   4.341   1.893 -0.4219  0.1749  0.0995
11536TIP3    H156099   1.831   4.293   1.825  0.3528  0.5528 -0.7482
11536TIP3    H256100   1.848   4.305   1.975  0.3730 -2.0481 -0.5003
11537TIP3   OH256101   2.545   3.977  16.829  0.5473 -0.1400 -0.3372
11537TIP3    H156102   2.537   4.067  16.861  0.2673 -0.4151  0.3933
11537TIP3    H256103   2.468   3.963  16.774  0.0991 -0.2225  0.2969
11538TIP3   OH256104   1.016   4.773   1.530 -0.0268  0.0841 -0.3344
11538TIP3    H156105   0.942   4.730   1.488 -0.2317  0.3712 -0.2733
11538TIP3    H256106   0.979   4.814   1.608  0.7520 -2.4177  1.4867
11539TIP3   OH256107   3.601   0.759   0.994  0.1712 -0.3548 -0.1877
11539TIP3    H156108   3.668   0.705   1.037 -0.6796 -0.1979  1.4039
11539TIP3    H256109   3.551   0.698   0.941  0.0857 -0.8882  0.4991
11540TIP3   OH256110   4.983   3.054   0.868  0.3386 -0.2932 -0.2402
11540TIP3    H156111   4.972   3.010   0.784  2.8651 -2.0622  0.2212
11540TIP3    H256112   4.996   3.146   0.846  0.2750 -0.6204 -1.7281
11541TIP3   OH256113   2.547   0.564   2.091 -0.5122 -0.3158  0.4008
11541TIP3    H156114   2.598   0.516   2.026 -3.1676 -2.1710 -0.4441
11541TIP3    H256115   2.493   0.624   2.041  1.6145  2.6292  1.3634
11542TIP3   OH256116   3.818   6.716   5.923  0.2032  0.6601  0.3075
11542TIP3    H156117   3.785   6.774   5.855  1.1646  1.4677  0.5113
11542TIP3    H256118   3.758   6.728   5.996 -1.2278 -0.7013 -0.5748
11543TIP3   OH256119   1.208   2.524  15.470  0.0415 -0.1496 -0.2314
11543TIP3    H156120   1.238   2.443  15.512  0.8457 -0.0417 -0.5656
11543TIP3    H256121   1.125   2.544  15.512  0.3318 -0.5949  0.5739
11544TIP3   OH256122   4.092   2.018  11.643  0.3029  0.1406  0.1574
11544TIP3    H156123   4.008   2.006  11.687  1.2604 -1.9189  1.5976
11544TIP3    H256124   4.121   2.106  11.669 -1.4093  0.9151 -0.4411
11545TIP3   OH256125   2.649   4.173   0.231  0.5097  0.5095 -0.0769
11545TIP3    H156126   2.716   4.115   0.195 -0.5908  0.2145 -1.7514
11545TIP3    H256127   2.577   4.115   0.255  0.1560  0.9989  0.0663
11546TIP3   OH256128   0.257   5.091   3.914  0.1535  0.0048 -0.0190
11546TIP3    H156129   0.348   5.070   3.895  0.4636  1.9670 -1.0900
11546TIP3    H256130   0.210   5.009   3.901  1.0876 -0.1207 -4.6017
11547TIP3   OH256131   6.007   5.449  13.575 -0.5214  0.0980  0.3199
11547TIP3    H156132   6.066   5.447  13.500 -0.2817 -1.4652  0.5109
11547TIP3    H256133   5.995   5.357  13.598 -2.3829  0.4321  0.8142
11548TIP3   OH256134   3.165   1.729   0.472 -0.0758  0.7311 -0.3481
11548TIP3    H156135   3.186   1.653   0.527 -0.4449  0.8180 -0.0870
11548TIP3    H256136   3.202   1.804   0.519 -0.0441  0.7593 -0.4167
11549TIP3   OH256137   6.410   2.281   0.434  0.2773  0.3687 -0.4515
11549TIP3    H156138   6.362   2.359   0.404 -1.6394 -0.4961  0.1584
11549TIP3    H256139   6.384   2.272   0.526 -0.0215 -1.2982 -0.6727
11550TIP3   OH256140   6.790   2.149  11.525 -1.0013  0.0279  0.2499
11550TIP3    H156141   6.776   2.054  11.531 -1.7481 -0.1131 -2.3995
11550TIP3    H256142   6.884   2.160  11.533 -0.9643 -0.8291  1.2893
11551TIP3   OH256143   4.762   5.871   4.598  0.0172  0.6001 -0.1535
11551TIP3    H156144   4.715   5.848   4.678 -0.1065 -1.3562 -0.7423
11551TIP3    H256145   4.798   5.789   4.566 -1.1723  1.0214 -2.8871
11552TIP3   OH256146   5.712   5.037   5.610 -0.3797 -0.2949 -0.9790
11552TIP3    H156147   5.753   5.102   5.553 -3.7056  1.3949 -1.6533
11552TIP3    H256148   5.741   5.061   5.698  1.2992 -0.1869 -1.5323
11553TIP3   OH256149   1.348   4.241  13.208 -0.6861 -0.1597  0.0116
11553TIP3    H156150   1.296   4.316  13.179  0.5674  0.5455 -0.4870
11553TIP3    H256151   1.364   4.191  13.128  1.5250  0.9991 -0.3643
11554TIP3   OH256152   1.973   1.614   5.642 -0.5207 -0.0058 -0.1782
11554TIP3    H156153   1.978   1.542   5.580 -1.1118  0.1740 -0.4457
11554TIP3    H256154   1.920   1.681   5.597  1.1192  1.1538 -0.4913
11555TIP3   OH256155   1.061   1.658   1.788  0.1576 -0.5290  0.1725
11555TIP3    H156156   1.014   1.647   1.871 -3.5578 -1.0315 -1.7980
11555TIP3    H256157   1.013   1.727   1.742  0.5686 -1.8931 -2.4931
11556TIP3   OH256158   6.812   4.488  15.425 -0.8500 -0.0419 -0.3103
11556TIP3    H156159   6.866   4.423  15.381 -2.4998 -0.1500 -2.3564
11556TIP3    H256160   6.756   4.438  15.484 -0.1106 -0.1407  0.3147
11557TIP3   OH256161   2.315   4.070   5.535  0.4805 -0.2615 -0.4384
11557TIP3    H156162   2.221   4.075   5.519  0.5733 -2.3473 -2.0852
11557TIP3    H256163   2.355   4.075   5.448  1.6021 -3.2848 -0.2304
11558TIP3   OH256164   5.038   5.767   1.191  0.1917  0.7031 -0.2002
11558TIP3    H156165   5.073   5.793   1.277  2.1275  1.2157 -1.0929
11558TIP3    H256166   5.066   5.836   1.132 -1.3774  0.5022 -1.2269
11559TIP3   OH256167   1.497   5.742  12.727 -0.4264  0.2730 -0.5196
11559TIP3    H156168   1.558   5.669  12.715  0.3472  0.8884 -0.3817
11559TIP3    H256169   1.468   5.764  12.639 -0.7289 -0.2534 -0.5554
11560TIP3   OH256170   6.843   0.096  12.567 -0.7561 -0.0249  0.1647
11560TIP3    H156171   6.923   0.148  12.556 -0.1268 -1.3658 -2.4360
11560TIP3    H256172   6.772   0.159  12.557 -0.0144  0.7244 -0.5418
11561TIP3   OH256173   6.767   1.012  13.710  0.9061  0.2907  0.0576
11561TIP3    H156174   6.790   1.100  13.740  2.1871  0.9855 -2.6607
11561TIP3    H256175   6.821   0.954  13.764  0.4700  1.1490  1.4953
11562TIP3   OH256176   4.895   2.234  14.861  0.1483  0.0884 -0.0356
11562TIP3    H156177   4.814   2.279  14.837 -0.5147 -0.0043  1.8328
11562TIP3    H256178   4.875   2.141  14.849  0.8636  0.1396 -1.9944
11563TIP3   OH256179   0.129   5.445   1.147  0.2435 -0.2467 -0.1273
11563TIP3    H156180   0.102   5.469   1.058 -1.1050  0.9677  0.5635
11563TIP3    H256181   0.222   5.466   1.150 -0.0881  1.5190 -0.7070
11564TIP3   OH256182   0.429   0.567  16.223  0.3823  0.4655  0.3045
11564TIP3    H156183   0.364   0.632  16.251 -1.9040 -1.9376  0.9728
11564TIP3    H256184   0.388   0.525  16.147  0.1645 -2.3880  1.8589
11565TIP3   OH256185   4.190   3.777  12.707 -0.1495  0.1782  0.0963
11565TIP3    H156186   4.190   3.852  12.766  1.6101  1.4075 -1.3416
11565TIP3    H256187   4.127   3.800  12.639 -2.6099 -1.4863  1.6462
11566TIP3   OH256188   2.801   5.867   1.774 -0.1760 -0.0339 -0.0072
11566TIP3    H156189   2.771   5.939   1.830  0.2037 -0.9610  1.4558
11566TIP3    H256190   2.887   5.844   1.809 -0.8653 -2.0948  0.4919
11567TIP3   OH256191   5.459   1.556   2.250  0.3592 -0.0513  0.1268
11567TIP3    H156192   5.531   1.545   2.188  0.5505  1.0555  0.1381
11567TIP3    H256193   5.493   1.522   2.333  1.7773  2.6580  0.7372
11568TIP3   OH256194   6.327   2.490   2.353  0.4060 -0.6107 -0.0261
11568TIP3    H156195   6.283   2.500   2.437  2.0942 -1.4881  1.0244
11568TIP3    H256196   6.403   2.549   2.359  0.6419 -0.8201 -0.8639
11569TIP3   OH256197   1.793   0.241  16.271 -0.6362 -0.0974  0.0884
11569TIP3    H156198   1.699   0.233  16.286 -0.5099 -0.7397  0.5444
11569TIP3    H256199   1.829   0.271  16.355 -0.2984 -0.9051  0.2425
11570TIP3   OH256200   6.419   1.253   3.349  0.4155  0.1402  0.1024
11570TIP3    H156201   6.441   1.291   3.264 -2.2608 -1.4855 -1.4501
11570TIP3    H256202   6.487   1.187   3.364  1.2403  0.8322 -0.4654
11571TIP3   OH256203   0.574   6.700   5.646 -0.1061 -0.3033 -0.0108
11571TIP3    H156204   0.665   6.692   5.619  0.0995 -1.7138  0.9837
11571TIP3    H256205   0.570   6.781   5.697  0.4646  0.0480 -0.5261
11572TIP3   OH256206   6.441   5.974  11.850 -0.5686  0.0374  0.9247
11572TIP3    H156207   6.415   6.066  11.852 -2.3406 -0.3039 -1.3720
11572TIP3    H256208   6.494   5.966  11.771 -3.1476 -1.4000 -0.8457
11573TIP3   OH256209   1.693   0.389   2.520 -0.0518  0.2195  0.2930
11573TIP3    H156210   1.655   0.306   2.490 -1.6530 -0.2718  3.2095
11573TIP3    H256211   1.787   0.372   2.526 -0.1602 -0.8391 -0.6658
11574TIP3   OH256212   6.146   3.316   1.068  0.4137 -0.1923  0.3486
11574TIP3    H156213   6.180   3.382   1.129 -1.1409 -0.5685  1.6853
11574TIP3    H256214   6.058   3.346   1.046 -1.2310 -2.7893  2.7285
11575TIP3   OH256215   4.613   0.396   1.284  0.3897 -0.3871  0.0165
11575TIP3    H156216   4.579   0.386   1.373 -1.3192  0.0355 -0.5398
11575TIP3    H256217   4.663   0.478   1.287 -0.3567  0.0674  0.4069
11576TIP3   OH256218   3.692   5.644   3.253  0.3645  0.5125 -0.1939
11576TIP3    H156219   3.714   5.567   3.307  1.1092  0.9558  0.1536
11576TIP3    H256220   3.725   5.718   3.303 -1.5931  1.2174  0.1530
11577TIP3   OH256221   2.648   4.732   0.850  0.2508 -0.7494 -0.6908
11577TIP3    H156222   2.571   4.786   0.831 -0.8399 -2.1781 -0.4971
11577TIP3    H256223   2.691   4.777   0.923 -0.6195 -0.1408 -0.5298
11578TIP3   OH256224   2.885   1.068  11.080  1.2075  0.1522  0.0047
11578TIP3    H156225   2.852   0.992  11.128  0.3090 -0.9962 -2.2852
11578TIP3    H256226   2.875   1.045  10.988  1.2546  2.9257 -0.7881
11579TIP3   OH256227   3.453   0.342  14.734  0.0353  0.1210 -0.2129
11579TIP3    H156228   3.508   0.392  14.795 -0.1641 -1.1144  1.0363
11579TIP3    H256229   3.428   0.405  14.667  1.1203  1.2741  0.4204
11580TIP3   OH256230   1.938   1.351   2.643 -0.5035 -0.2597  0.0670
11580TIP3    H156231   1.904   1.433   2.608 -0.4586 -0.1767  0.2163
11580TIP3    H256232   1.861   1.294   2.649 -0.6132 -0.0865  0.3612
11581TIP3   OH256233   3.319   3.089  11.970 -0.0321 -0.4269  0.1220
11581TIP3    H156234   3.384   3.050  11.912  0.8706 -1.8487  1.9758
11581TIP3    H256235   3.241   3.100  11.915  1.2260 -0.2835 -1.7071
11582TIP3   OH256236   4.264   1.746   2.248  0.4443 -0.5045 -0.0638
11582TIP3    H156237   4.271   1.695   2.328 -0.7322  0.5442  0.7350
11582TIP3    H256238   4.171   1.758   2.234  0.5161 -2.1107 -2.5840
11583TIP3   OH256239   4.435   3.757  15.890 -0.7609  0.0676  0.2805
11583TIP3    H156240   4.354   3.711  15.910 -1.6204  1.6348  0.5624
11583TIP3    H256241   4.409   3.848  15.881  1.0563  0.6965  0.9194
11584TIP3   OH256242   5.553   2.623  16.594 -0.1737  0.0806 -0.4467
11584TIP3    H156243   5.569   2.566  16.519  1.3738 -0.0116 -0.0722
11584TIP3    H256244   5.513   2.702  16.555  2.4486  0.9028 -1.7214
11585TIP3   OH256245   6.759   3.832  11.686  0.6056 -0.7197 -0.0613
11585TIP3    H156246   6.737   3.753  11.638 -1.2852 -0.2765 -0.0179
11585TIP3    H256247   6.691   3.839  11.754  2.0869 -0.3116  1.4648
11586TIP3   OH256248   4.701   0.588  11.143  0.4066  0.3956  0.0283
11586TIP3    H156249   4.682   0.666  11.195 -0.2249  1.2607 -1.4156
11586TIP3    H256250   4.697   0.619  11.052  1.9362 -0.9358 -0.5466
11587TIP3   OH256251   2.617   6.812   3.292 -0.7298  0.3113 -0.5874
11587TIP3    H156252   2.604   6.821   3.197 -1.1398  1.4320 -0.4340
11587TIP3    H256253   2.556   6.875   3.331 -2.2348 -1.6821  0.5287
11588TIP3   OH256254   1.178   5.299   4.686 -0.3430 -0.3987  0.7478
11588TIP3    H156255   1.199   5.226   4.628 -2.3330 -2.0673  2.0060
11588TIP3    H256256   1.260   5.317   4.733  0.4442 -1.0965 -0.3280
11589TIP3   OH256257   4.096   4.274  12.195  0.3235 -0.5731  0.3130
11589TIP3    H156258   4.059   4.329  12.264  1.3947 -0.1011  0.5207
11589TIP3    H256259   4.061   4.186  12.213 -2.2487  0.1778 -0.6359
11590TIP3   OH256260   2.280   0.638   1.507 -0.3228  0.3800  0.0410
11590TIP3    H156261   2.294   0.732   1.521 -0.2680  0.4395 -0.4011
11590TIP3    H256262   2.368   0.600   1.508 -0.2107  0.5525 -1.2952
11591TIP3   OH256263   3.353   2.493   5.771 -0.0808  0.3123 -0.3099
11591TIP3    H156264   3.357   2.482   5.866  0.0459  1.0660 -0.2159
11591TIP3    H256265   3.261   2.478   5.749  0.1157 -1.0991 -0.2518
11592TIP3   OH256266   2.982   6.247   6.168  0.4773 -0.4357  0.0479
11592TIP3    H156267   3.043   6.220   6.237  2.7015  2.0205 -0.7826
11592TIP3    H256268   3.013   6.204   6.089  1.5990  1.2982 -0.4996
11593TIP3   OH256269   2.063   6.624  11.073  0.3094  0.4466  0.1720
11593TIP3    H156270   1.989   6.675  11.107 -0.8656 -1.0670  0.0262
11593TIP3    H256271   2.131   6.688  11.056 -0.4511  1.7252  1.6999
11594TIP3   OH256272   4.302   3.857   5.631 -0.3329  1.2118  0.3203
11594TIP3    H156273   4.295   3.942   5.674 -1.6301  1.8320 -1.0326
11594TIP3    H256274   4.212   3.830   5.615  0.0774  0.1499 -0.3502
11595TIP3   OH256275   4.785   6.011   1.042 -0.3822 -0.3732  0.0300
11595TIP3    H156276   4.846   5.951   0.999 -0.8859 -0.7935 -0.1060
11595TIP3    H256277   4.771   5.973   1.129  0.7739  0.5677  0.6684
11596TIP3   OH256278   2.322   3.932   1.391 -0.7035 -0.5020  0.3650
11596TIP3    H156279   2.394   3.965   1.445 -0.1752  0.4339 -0.8455
11596TIP3    H256280   2.246   3.932   1.449 -0.3925  1.4735  0.8624
11597TIP3   OH256281   2.022   0.693  15.630 -0.6365  0.4309 -0.6685
11597TIP3    H156282   2.040   0.644  15.550  1.9189  0.4851 -0.1901
11597TIP3    H256283   2.022   0.627  15.699  2.3657  0.9000 -0.0848
11598TIP3   OH256284   0.662   1.650   4.842  0.3737  0.3222  0.6026
11598TIP3    H156285   0.590   1.652   4.780  0.3013  0.2669  0.6861
11598TIP3    H256286   0.739   1.672   4.790  0.3024  0.3424  0.5068
11599TIP3   OH256287   4.004   6.017  10.596  0.1284  0.8793  0.0371
11599TIP3    H156288   4.079   5.962  10.620  0.4352  0.5431 -1.5648
11599TIP3    H256289   4.043   6.095  10.556 -0.3367  0.0274 -2.2114
11600TIP3   OH256290   1.036   5.685   2.639  0.2211  0.2904  0.4253
11600TIP3    H156291   1.008   5.630   2.712 -1.1161  0.4175  0.0358
11600TIP3    H256292   1.096   5.749   2.678  0.7236 -0.5946  1.1215
11601TIP3   OH256293   4.281   0.216   6.041  0.5322  0.2820  0.3443
11601TIP3    H156294   4.293   0.276   6.115 -1.0395 -0.0794  0.9291
11601TIP3    H256295   4.242   0.270   5.972  2.1106  0.6479 -0.3040
11602TIP3   OH256296   2.825   2.422  14.257 -0.5365 -0.1660  0.1978
11602TIP3    H156297   2.920   2.428  14.256 -0.6188  1.9701 -1.3629
11602TIP3    H256298   2.801   2.435  14.349  0.6197  1.2838  0.3207
11603TIP3   OH256299   5.350   0.609  13.089  0.3386  0.2040  0.1753
11603TIP3    H156300   5.378   0.579  13.175  2.4739 -0.0395 -0.5445
11603TIP3    H256301   5.375   0.702  13.087  0.7411  0.0890 -0.3395
11604TIP3   OH256302   0.911   4.594   2.569 -0.1112  0.5655 -0.2982
11604TIP3    H156303   0.958   4.510   2.567  0.2178  0.6258  1.9218
11604TIP3    H256304   0.979   4.659   2.589 -1.0007  0.5874  3.4998
11605TIP3   OH256305   2.309   6.578  16.944  0.6798 -0.0204  0.8761
11605TIP3    H156306   2.397   6.585  16.980  1.5125 -0.8963 -0.8939
11605TIP3    H256307   2.304   6.648  16.879  1.0241 -1.5150 -0.8307
11606TIP3   OH256308   3.126   5.368   2.253 -0.2804 -0.2669 -0.2953
11606TIP3    H156309   3.173   5.445   2.222  0.2084  0.5641  2.2683
11606TIP3    H256310   3.182   5.294   2.230  0.4362  0.3750 -0.6471
11607TIP3   OH256311   6.805   6.498   5.402 -0.2267 -0.5914 -0.2594
11607TIP3    H156312   6.827   6.455   5.485  1.8157  3.3193  1.4892
11607TIP3    H256313   6.739   6.563   5.426 -0.8680 -0.5110 -2.0960
11608TIP3   OH256314   0.043   0.377  10.968 -1.0544  0.0454  0.0327
11608TIP3    H156315   0.093   0.299  10.943 -1.3233  0.1956 -1.0390
11608TIP3    H256316   0.047   0.379  11.064  0.2962 -0.3931  0.0053
11609TIP3   OH256317   4.062   1.804  12.378  0.1278  0.2687  0.2715
11609TIP3    H156318   4.069   1.886  12.328  0.1358 -0.1247 -0.3785
11609TIP3    H256319   4.079   1.735  12.314 -0.2072 -0.2625  0.7470
11610TIP3   OH256320   6.388   6.784  15.724 -0.3570  0.8770 -0.0868
11610TIP3    H156321   6.464   6.742  15.685 -2.0472 -0.6949 -1.9128
11610TIP3    H256322   6.407   6.787  15.818  1.0317 -1.4622 -0.2278
11611TIP3   OH256323   2.726   5.082   1.668 -0.2610 -0.1943  0.6656
11611TIP3    H156324   2.778   5.100   1.590  1.0854  0.8684  1.7578
11611TIP3    H256325   2.687   5.166   1.692 -2.5347 -0.9428 -0.0870
11612TIP3   OH256326   1.174   5.368   2.058 -0.2274 -0.0875  0.0678
11612TIP3    H156327   1.254   5.315   2.057  0.4656  0.8995 -1.9534
11612TIP3    H256328   1.110   5.314   2.012 -0.7817 -0.8710  1.6719
11613TIP3   OH256329   0.432   2.467  11.475  0.2065 -0.5405 -0.1072
11613TIP3    H156330   0.499   2.533  11.456  0.6754 -0.8946  0.2758
11613TIP3    H256331   0.482   2.388  11.497 -0.3362 -0.6670  0.7067
11614TIP3   OH256332   5.871   5.902   2.451  0.5135 -0.0761 -0.2073
11614TIP3    H156333   5.793   5.945   2.487 -0.0161 -0.7116 -0.5837
11614TIP3    H256334   5.940   5.920   2.515  0.1410  0.7772 -0.0395
11615TIP3   OH256335   0.339   5.008   2.683 -0.0111 -0.4772  0.1553
11615TIP3    H156336   0.305   5.093   2.708 -0.0599 -0.4064 -0.1523
11615TIP3    H256337   0.379   5.022   2.597  3.2902  0.1042  1.6136
11616TIP3   OH256338   3.217   6.742  10.506  0.2922  0.3084 -0.4371
11616TIP3    H156339   3.277   6.768  10.436 -0.2647  3.2014  0.0346
11616TIP3    H256340   3.159   6.817  10.517 -1.5831 -1.2476  1.1120
11617TIP3   OH256341   0.298   0.621   6.025  0.0784 -0.1252 -0.5017
11617TIP3    H156342   0.340   0.553   6.077  0.5220  2.2999  2.6489
11617TIP3    H256343   0.210   0.629   6.062  0.0948  1.0873 -0.6797
11618TIP3   OH256344   6.244   1.656   5.768  0.2246 -0.1111  0.1083
11618TIP3    H156345   6.254   1.701   5.852 -1.9105  0.0452  0.3174
11618TIP3    H256346   6.288   1.572   5.781 -0.8907 -0.4885  1.7507
11619TIP3   OH256347   6.062   5.601   0.125 -0.1420  0.4051  0.1940
11619TIP3    H156348   6.015   5.651   0.191  0.1045  1.1542 -0.1948
11619TIP3    H256349   6.028   5.512   0.134 -2.2146  1.0540 -0.5866
11620TIP3   OH256350   3.626   2.667  15.634  1.0398  0.1233  0.3672
11620TIP3    H156351   3.536   2.642  15.656  0.7718  0.8170  0.0975
11620TIP3    H256352   3.655   2.718  15.710  0.0325  2.7242 -0.8775
11621TIP3   OH256353   2.899   5.419  13.727 -0.8528  0.5166 -0.6597
11621TIP3    H156354   2.915   5.399  13.635 -0.7683  3.0005 -1.2441
11621TIP3    H256355   2.812   5.382  13.745 -0.2713 -1.2591 -1.2669
11622TIP3   OH256356   3.804   5.137  15.243 -0.0241  0.2543  0.0889
11622TIP3    H156357   3.890   5.167  15.216  0.0753  0.6888  0.8445
11622TIP3    H256358   3.767   5.095  15.166  1.1336 -0.5433 -0.0472
11623TIP3   OH256359   5.643   2.048  15.924 -0.3652  0.3245 -0.0230
11623TIP3    H156360   5.685   2.006  15.849 -1.4337  1.2432 -1.1852
11623TIP3    H256361   5.660   2.141  15.912  0.0159  0.4263  1.2596
11624TIP3   OH256362   3.227   0.096   1.480  0.1532  0.2727  0.3143
11624TIP3    H156363   3.145   0.051   1.462  0.2787  0.0526  0.2891
11624TIP3    H256364   3.295   0.035   1.451  0.3043  1.1316 -1.2741
11625TIP3   OH256365   1.684   3.877   0.743 -0.2263 -0.3804  0.4357
11625TIP3    H156366   1.729   3.808   0.792 -0.9063 -1.8197 -0.9030
11625TIP3    H256367   1.749   3.948   0.737  0.8450 -1.2842  0.9944
11626TIP3   OH256368   3.240   4.668  12.808  0.4086  0.8178 -0.0266
11626TIP3    H156369   3.230   4.594  12.867 -1.2653  1.9095  1.1398
11626TIP3    H256370   3.240   4.745  12.865  2.9106  1.7471 -1.1183
11627TIP3   OH256371   3.221   2.775  10.243 -0.2693  0.3415 -0.1325
11627TIP3    H156372   3.306   2.805  10.211  0.9688 -0.4337  2.2117
11627TIP3    H256373   3.173   2.855  10.263  0.5835  0.7849  0.1767
11628TIP3   OH256374   0.384   0.679  12.379  0.3681 -0.7417 -0.1490
11628TIP3    H156375   0.424   0.673  12.292  2.4305 -0.5654  0.7323
11628TIP3    H256376   0.320   0.608  12.381  1.5543 -1.8876 -1.2017
11629TIP3   OH256377   2.289   1.537  11.154  0.4124 -0.3366  0.2506
11629TIP3    H156378   2.345   1.549  11.231  1.8820  2.2764 -1.0776
11629TIP3    H256379   2.350   1.512  11.084 -0.5336 -0.2830 -0.6135
11630TIP3   OH256380   3.926   4.123  15.091  0.6387  0.6565 -0.6177
11630TIP3    H156381   3.959   4.056  15.030  1.1155  0.8878 -0.6237
11630TIP3    H256382   3.979   4.200  15.071  2.0070  0.2623  1.2127
11631TIP3   OH256383   3.611   3.401   1.776  0.0015  0.5279 -0.5592
11631TIP3    H156384   3.614   3.406   1.872  2.9773 -1.2541 -0.4316
11631TIP3    H256385   3.699   3.373   1.751  0.0818  3.2353 -4.0200
11632TIP3   OH256386   1.950   2.131  11.524  0.4805  0.2668 -0.1370
11632TIP3    H156387   1.995   2.089  11.598  0.3999 -0.2810 -0.3938
11632TIP3    H256388   1.969   2.224  11.535 -0.1647  0.2927  1.0062
11633TIP3   OH256389   2.419   3.461   2.797  0.0012 -0.7033  0.4789
11633TIP3    H156390   2.345   3.420   2.753  0.6765 -1.0589 -0.3579
11633TIP3    H256391   2.379   3.515   2.865 -0.9965 -1.2850  0.3815
11634TIP3   OH256392   5.610   2.987  16.343  0.5304 -0.0106  0.0121
11634TIP3    H156393   5.566   2.905  16.319  0.1345 -0.0881  0.9756
11634TIP3    H256394   5.561   3.054  16.295 -1.3029  0.0136  1.7633
11635TIP3   OH256395   6.229   0.598  16.545 -0.1247  0.2920 -0.4321
11635TIP3    H156396   6.202   0.615  16.635  4.1723 -0.0639  1.1755
11635TIP3    H256397   6.207   0.506  16.529 -0.9027  0.3544  0.2506
11636TIP3   OH256398   4.925   1.148  12.778  0.0878 -0.4269 -0.5024
11636TIP3    H156399   5.001   1.167  12.832 -0.8991  0.5444  0.6075
11636TIP3    H256400   4.932   1.054  12.760  0.0513 -1.0049  2.0545
11637TIP3   OH256401   1.804   4.449   2.818  0.4061 -0.1809 -0.2258
11637TIP3    H156402   1.873   4.448   2.884  0.1153  1.3637  0.1452
11637TIP3    H256403   1.850   4.461   2.735  0.5905  1.2348  0.0571
11638TIP3   OH256404   3.214   2.774   2.997  0.5801 -0.4595 -0.6771
11638TIP3    H156405   3.148   2.713   2.967  0.2414 -0.6414  0.3948
11638TIP3    H256406   3.211   2.768   3.093 -0.7292  2.5383 -0.4389
11639TIP3   OH256407   5.612   5.696  11.528  0.3103  0.1900  0.5217
11639TIP3    H156408   5.645   5.764  11.470 -0.2176  0.9051  1.0473
11639TIP3    H256409   5.521   5.719  11.543  0.0595 -0.7626  0.5284
11640TIP3   OH256410   2.652   6.443   4.790  0.0337  0.6136 -0.3450
11640TIP3    H156411   2.667   6.430   4.884  0.1200 -0.7097 -0.5215
11640TIP3    H256412   2.558   6.432   4.779 -0.1111  1.7228 -0.2855
11641TIP3   OH256413   6.165   1.765   4.317 -0.1832  0.0605 -0.7238
11641TIP3    H156414   6.153   1.773   4.412 -1.3090  1.2702 -0.9297
11641TIP3    H256415   6.256   1.739   4.306  0.0066  0.0598  0.6802
11642TIP3   OH256416   3.349   6.421  11.782 -0.1266  0.0298 -0.2019
11642TIP3    H156417   3.373   6.512  11.768  3.1495 -0.7355 -0.4056
11642TIP3    H256418   3.336   6.386  11.694  2.7502 -0.5637 -0.5008
11643TIP3   OH256419   0.569   6.302  13.714  0.5394 -0.0297  0.0428
11643TIP3    H156420   0.566   6.207  13.726  1.0762 -0.2155 -1.1757
11643TIP3    H256421   0.503   6.336  13.774  0.7968 -1.1231  0.9786
11644TIP3   OH256422   6.633   5.695  12.822  0.2789 -0.4019  0.1270
11644TIP3    H156423   6.600   5.781  12.850  0.0825  0.2344 -1.8720
11644TIP3    H256424   6.558   5.636  12.835  0.5327 -0.3985  1.8747
11645TIP3   OH256425   2.759   1.937  16.840  0.2867 -0.0583 -0.2183
11645TIP3    H156426   2.685   1.885  16.809 -0.1954  1.1307 -1.1397
11645TIP3    H256427   2.757   2.016  16.787  2.0478  0.1487 -0.0565
11646TIP3   OH256428   6.152   2.154   5.540 -0.5136  0.1867  0.1411
11646TIP3    H156429   6.068   2.151   5.586 -1.2943  0.6078 -1.1873
11646TIP3    H256430   6.214   2.116   5.601 -1.8071 -0.8666  0.8589
11647TIP3   OH256431   3.229   4.058   4.144  0.1154  0.0766  0.5134
11647TIP3    H156432   3.303   4.101   4.186 -0.3397  1.4031  0.0229
11647TIP3    H256433   3.152   4.089   4.193 -0.2235 -0.2485  0.1992
11648TIP3   OH256434   1.087   0.029   0.636 -0.4682 -0.0070 -0.0261
11648TIP3    H156435   1.037   0.082   0.574 -1.9316 -0.5767  0.6061
11648TIP3    H256436   1.020  -0.016   0.688  0.7091 -1.6656  0.1460
11649TIP3   OH256437   0.135   2.698  12.917 -0.2182 -0.4213 -0.6241
11649TIP3    H156438   0.220   2.740  12.929 -0.6974  0.1830  0.8649
11649TIP3    H256439   0.147   2.610  12.955 -0.1629 -0.4445 -0.6957
11650TIP3   OH256440   3.394   3.522  13.999  0.1172 -0.1475  0.1704
11650TIP3    H156441   3.407   3.505  13.906  0.0722  0.5210  0.0444
11650TIP3    H256442   3.390   3.617  14.007 -1.8017 -0.2307  0.6013
11651TIP3   OH256443   6.555   0.951  13.501  1.0060  0.3154  0.0451
11651TIP3    H156444   6.544   0.856  13.503 -0.5898  0.4903  1.1287
11651TIP3    H256445   6.630   0.968  13.557  2.0849 -0.3644 -1.1409
11652TIP3   OH256446   5.711   0.590  14.427  0.3232  0.4409 -0.1164
11652TIP3    H156447   5.623   0.558  14.409  0.1737  0.4856  0.5298
11652TIP3    H256448   5.718   0.671  14.377  0.4494 -0.2071 -1.1821
11653TIP3   OH256449   3.467   3.876  13.420 -0.1646 -0.3384  0.6316
11653TIP3    H156450   3.399   3.913  13.476  0.9095  0.5116  1.4218
11653TIP3    H256451   3.421   3.847  13.341 -1.2584  1.4169  0.5807
11654TIP3   OH256452   6.400   5.434  16.809 -0.1938  0.7578  0.2649
11654TIP3    H156453   6.368   5.468  16.892 -2.7951  1.1805 -0.8137
11654TIP3    H256454   6.494   5.422  16.823 -0.7230 -0.4598  3.6570
11655TIP3   OH256455   1.300   1.354   4.154  0.0253  0.3633  0.2997
11655TIP3    H156456   1.238   1.365   4.226 -0.2347  0.5020  0.0579
11655TIP3    H256457   1.379   1.400   4.182 -0.3870  1.2112  0.1147
11656TIP3   OH256458   0.005   2.783  16.444 -0.0306 -0.2553  0.5234
11656TIP3    H156459   0.094   2.820  16.441  0.1588 -0.6770  0.8159
11656TIP3    H256460   0.017   2.692  16.417 -0.1692 -0.6782  1.8271
11657TIP3   OH256461   1.158   3.421  12.958  0.0180  0.2358 -0.2221
11657TIP3    H156462   1.224   3.463  12.902  0.4399 -1.1668 -0.8327
11657TIP3    H256463   1.208   3.362  13.014 -0.5453  0.6136  0.6972
11658TIP3   OH256464   4.722   2.332   0.662  0.1693 -0.0607 -0.2022
11658TIP3    H156465   4.666   2.296   0.731  0.9639  0.0287  0.5066
11658TIP3    H256466   4.680   2.415   0.638 -0.5800 -0.4937 -0.4493
11659TIP3   OH256467   1.364   5.404   4.861 -0.4253  0.0627 -0.1747
11659TIP3    H156468   1.313   5.340   4.911 -0.1772  0.5735  0.7646
11659TIP3    H256469   1.440   5.422   4.917 -0.7223  1.5180 -0.2080
11660TIP3   OH256470   5.256   3.795   6.521  0.1190  0.3046  0.6625
11660TIP3    H156471   5.216   3.882   6.516  1.3240  0.9108  1.2091
11660TIP3    H256472   5.347   3.811   6.542  0.7214 -1.0502 -0.7083
11661TIP3   OH256473   3.146   4.436  15.557  0.0249 -0.6584  0.0956
11661TIP3    H156474   3.194   4.501  15.505 -0.7140  0.2854  0.5637
11661TIP3    H256475   3.056   4.468  15.558 -0.2370 -1.3933  0.8167
11662TIP3   OH256476   5.915   2.214  11.878 -0.1135 -0.7831 -0.3380
11662TIP3    H156477   5.869   2.294  11.851  0.5529  0.0205  0.8487
11662TIP3    H256478   6.007   2.232  11.862  0.1817 -0.7641  1.2115
11663TIP3   OH256479   3.050   6.256   2.945  0.2200  0.4985 -0.3327
11663TIP3    H156480   3.069   6.348   2.922  1.2672  0.2576 -0.4993
11663TIP3    H256481   3.126   6.229   2.997 -0.8652  0.2229  1.1754
11664TIP3   OH256482   0.952   1.807   0.563 -0.0694 -0.0416 -0.1509
11664TIP3    H156483   0.918   1.810   0.473  2.0439 -1.7530 -1.1158
11664TIP3    H256484   0.889   1.754   0.611 -1.6962  1.6329 -0.3442
11665TIP3   OH256485   5.944   5.159   0.555 -0.5403  0.3744  0.1769
11665TIP3    H156486   5.871   5.104   0.528 -1.3120  0.6200  1.6227
11665TIP3    H256487   5.962   5.215   0.479 -0.8426 -0.7123 -0.7194
11666TIP3   OH256488   6.192   4.368   5.651  0.0474 -0.2072  0.6608
11666TIP3    H156489   6.122   4.365   5.717 -0.9052 -2.6196 -0.3534
11666TIP3    H256490   6.171   4.297   5.591  3.4556 -1.0992  0.3500
11667TIP3   OH256491   0.210   3.920  15.776 -0.3444 -0.0396 -0.4092
11667TIP3    H156492   0.163   3.875  15.706 -2.2844  1.2617 -0.0092
11667TIP3    H256493   0.269   3.980  15.731  1.7211 -2.2863 -0.9351
11668TIP3   OH256494   3.823   0.448   2.304 -0.1203  0.3517 -0.0605
11668TIP3    H156495   3.908   0.454   2.347  0.9849  1.5546 -2.2884
11668TIP3    H256496   3.800   0.538   2.283 -0.8669 -0.1506 -1.4989
11669TIP3   OH256497   2.707   3.553   4.063 -0.2188  0.0450  0.1247
11669TIP3    H156498   2.661   3.470   4.053  1.0265 -0.6723  0.0898
11669TIP3    H256499   2.799   3.528   4.072  0.0462  1.3436  1.4180
11670TIP3   OH256500   0.467   5.214   1.823  0.1141 -0.2192 -0.4509
11670TIP3    H156501   0.522   5.171   1.757  0.4372  0.4111 -0.6003
11670TIP3    H256502   0.492   5.306   1.819 -2.4805  0.5261 -2.0999
11671TIP3   OH256503   0.905   6.791   2.048 -0.7353  0.3980 -0.4979
11671TIP3    H156504   0.909   6.872   1.998  0.0559  0.3856 -0.4747
11671TIP3    H256505   0.873   6.725   1.986 -1.1009  0.6657 -0.5939
11672TIP3   OH256506   4.377   6.523  16.042  0.2947  0.3136  0.3813
11672TIP3    H156507   4.344   6.613  16.045 -1.5196 -0.2455 -1.0500
11672TIP3    H256508   4.443   6.525  15.973 -0.6026  0.3265 -0.5047
11673TIP3   OH256509   6.549   3.368  13.918  0.2088 -0.4814  0.2050
11673TIP3    H156510   6.639   3.370  13.883  0.3539 -0.4129  0.5749
11673TIP3    H256511   6.545   3.442  13.978 -0.0728 -0.5341  0.2519
11674TIP3   OH256512   5.813   1.224   1.471  0.2299  0.2042 -0.1304
11674TIP3    H156513   5.880   1.264   1.415 -0.4507  1.8459  0.1569
11674TIP3    H256514   5.860   1.159   1.522  2.0428  2.4091  1.2433
11675TIP3   OH256515   5.578   2.051  16.674  0.6382  0.2112  0.0687
11675TIP3    H156516   5.668   2.021  16.657  0.4868  0.6363 -1.6869
11675TIP3    H256517   5.524   2.000  16.614 -0.2502  0.3193  0.7529
11676TIP3   OH256518   2.651   4.412  15.191 -0.4953 -0.4098 -0.7846
11676TIP3    H156519   2.731   4.459  15.216 -1.5249  0.5602  0.8193
11676TIP3    H256520   2.669   4.320  15.212 -0.6164  0.1130  1.8580
11677TIP3   OH256521   0.333   6.057   0.833  0.3466 -0.3545  0.2298
11677TIP3    H156522   0.377   6.031   0.752  1.0149 -0.5618  0.6474
11677TIP3    H256523   0.295   6.142   0.813 -0.6591 -1.0059 -0.7173
11678TIP3   OH256524   2.242   4.781   3.815 -0.2058  0.0640  0.3232
11678TIP3    H156525   2.239   4.716   3.885  0.4650  0.0661  0.3582
11678TIP3    H256526   2.194   4.856   3.849 -1.6556 -0.6805 -0.0072
11679TIP3   OH256527   4.690   2.076   4.510  0.4301  0.2311  0.1473
11679TIP3    H156528   4.678   2.171   4.500  0.4308  0.2834  0.6297
11679TIP3    H256529   4.760   2.055   4.448 -1.1826  0.1363 -1.7391
11680TIP3   OH256530   6.190   1.374   0.430 -0.0958 -0.0652  0.5436
11680TIP3    H156531   6.262   1.352   0.370 -1.3680 -1.1674 -0.6434
11680TIP3    H256532   6.174   1.467   0.414 -0.9925 -0.5137 -1.5609
11681TIP3   OH256533   4.154   6.353   5.485 -0.3977 -0.2079 -0.3970
11681TIP3    H156534   4.202   6.434   5.497 -1.3243  0.2599  0.3456
11681TIP3    H256535   4.213   6.285   5.517  0.7960  0.0332 -2.0159
11682TIP3   OH256536   3.379   4.164  16.612  0.0727  0.5760  0.2752
11682TIP3    H156537   3.434   4.096  16.573  0.9003  1.1923  0.3166
11682TIP3    H256538   3.407   4.168  16.704 -0.3813  0.5706  0.4165
11683TIP3   OH256539   5.670   6.798   2.817 -0.4746  0.0579  0.0493
11683TIP3    H156540   5.696   6.847   2.896  1.3406  2.0284 -1.6495
11683TIP3    H256541   5.719   6.716   2.823  0.1695  0.4693  0.6882
11684TIP3   OH256542   2.965   5.809   1.149 -0.1920 -0.6644  0.2782
11684TIP3    H156543   2.901   5.770   1.089 -0.1123  0.1490 -0.3600
11684TIP3    H256544   2.945   5.903   1.146  1.5122 -0.2838 -0.5333
11685TIP3   OH256545   3.303   6.262  13.111 -0.1002  0.2367 -0.2687
11685TIP3    H156546   3.250   6.198  13.157  0.7306 -1.9644 -2.1923
11685TIP3    H256547   3.376   6.280  13.170 -0.7274 -0.0000  0.6020
11686TIP3   OH256548   0.208   0.718  16.831 -0.0947  0.3208  0.8362
11686TIP3    H156549   0.145   0.787  16.851 -1.2270 -0.4363  0.0310
11686TIP3    H256550   0.214   0.667  16.912 -1.6027 -0.3943  0.5479
11687TIP3   OH256551   0.271   3.911  16.982  0.1738 -0.0162  0.5093
11687TIP3    H156552   0.202   3.854  16.949 -0.7819 -0.2092  2.6967
11687TIP3    H256553   0.352   3.873  16.948 -0.4026 -2.8573  2.0712
11688TIP3   OH256554   2.316   4.779   2.750  0.1806 -0.2207  0.1470
11688TIP3    H156555   2.272   4.856   2.786 -1.1219 -1.7098  1.9190
11688TIP3    H256556   2.354   4.735   2.826  0.1549 -1.7974 -0.7062
11689TIP3   OH256557   3.284   1.297   5.504  0.0631  0.0136  0.1223
11689TIP3    H156558   3.199   1.252   5.499  0.1898 -0.3644  1.1184
11689TIP3    H256559   3.289   1.347   5.423 -1.6833  1.0651  0.5911
11690TIP3   OH256560   3.662   2.182  13.249 -0.3493 -0.8220 -1.1283
11690TIP3    H156561   3.679   2.205  13.341 -0.8145 -2.9267 -0.4544
11690TIP3    H256562   3.747   2.193  13.206 -0.1626  0.3844 -0.5178
11691TIP3   OH256563   4.383   2.470  11.726 -0.0202 -0.2092 -0.5758
11691TIP3    H156564   4.448   2.428  11.783 -0.6416  0.0597  0.3501
11691TIP3    H256565   4.401   2.434  11.639  3.7713  2.5104 -1.1753
11692TIP3   OH256566   3.708   4.305   3.357 -0.0998  0.4541  0.6843
11692TIP3    H156567   3.775   4.365   3.390 -0.5614  1.4632 -0.1663
11692TIP3    H256568   3.750   4.257   3.286 -0.2960  1.1718  0.0726
11693TIP3   OH256569   6.229   5.104  16.477 -0.1282 -0.2352  0.2873
11693TIP3    H156570   6.221   5.058  16.561  0.5828  0.5095  0.7809
11693TIP3    H256571   6.204   5.194  16.497  0.6814  0.0941 -0.1386
11694TIP3   OH256572   2.898   2.280  13.495 -0.2851  0.5152 -0.0935
11694TIP3    H156573   2.975   2.282  13.552  0.4572 -0.3191 -1.0341
11694TIP3    H256574   2.907   2.357  13.439 -2.0650  2.5063  2.1716
11695TIP3   OH256575   1.541   5.742   5.424  0.5593 -0.2227 -0.6375
11695TIP3    H156576   1.499   5.826   5.446 -0.9122 -1.1288  0.1676
11695TIP3    H256577   1.615   5.736   5.484  0.7458  0.5360 -0.7724
11696TIP3   OH256578   6.858   4.518  10.895 -0.4840  0.4249  0.3660
11696TIP3    H156579   6.947   4.549  10.911 -0.2920 -0.3018  0.7504
11696TIP3    H256580   6.868   4.425  10.876 -1.1567  0.3445  0.3862
11697TIP3   OH256581   0.418   2.545  12.114 -0.3177  0.8697 -0.3373
11697TIP3    H156582   0.483   2.480  12.089 -0.8415  0.9639 -2.0925
11697TIP3    H256583   0.339   2.518  12.068 -0.9128  2.0092 -0.0168
11698TIP3   OH256584   5.584   4.603   2.194  0.4199 -0.5428 -0.1081
11698TIP3    H156585   5.656   4.542   2.210  1.2326 -0.0051 -1.5750
11698TIP3    H256586   5.551   4.624   2.282  0.8289 -2.2186  0.4761
11699TIP3   OH256587   3.136   3.346   0.587  0.4410  0.0162 -0.3199
11699TIP3    H156588   3.102   3.431   0.616  1.3455  0.1315  0.4696
11699TIP3    H256589   3.103   3.336   0.498 -0.3407  0.8279 -0.1376
11700TIP3   OH256590   5.427   2.172  15.370  0.4878 -0.2472 -0.1515
11700TIP3    H156591   5.487   2.220  15.313  1.8876 -1.5189  0.1997
11700TIP3    H256592   5.478   2.152  15.448 -0.7687 -0.3568  0.6739
11701TIP3   OH256593   1.303   0.380  15.128  0.1228  0.6014  0.1149
11701TIP3    H156594   1.297   0.344  15.216  2.6107  2.8745  1.3646
11701TIP3    H256595   1.380   0.338  15.089  0.8171  1.7623  0.1940
11702TIP3   OH256596   4.331   3.577  12.160 -0.1652 -0.1321 -1.0232
11702TIP3    H156597   4.294   3.567  12.072  1.3704 -0.5616 -1.6492
11702TIP3    H256598   4.323   3.490  12.199 -1.1055  0.1257 -0.6062
11703TIP3   OH256599   6.342   2.432  15.352 -0.1456  0.0251 -0.3333
11703TIP3    H156600   6.419   2.485  15.372  0.9267 -1.6504  0.1483
11703TIP3    H256601   6.377   2.349  15.322 -1.7161 -1.5196  1.8040
11704TIP3   OH256602   1.917   5.969   3.762 -0.2686  0.2574  0.1634
11704TIP3    H156603   1.924   6.049   3.711  0.5780 -0.8209 -1.4900
11704TIP3    H256604   1.956   5.990   3.846  0.4836  1.4113 -0.4619
11705TIP3   OH256605   0.336   1.018   2.394 -0.0285  0.1253 -0.2038
11705TIP3    H156606   0.321   1.065   2.476  1.5957 -1.5320  1.1414
11705TIP3    H256607   0.282   0.939   2.401 -0.2269  0.1835 -0.9565
11706TIP3   OH256608   3.647   0.542  13.696 -0.4032 -0.4560 -0.2150
11706TIP3    H156609   3.590   0.614  13.724  0.1604  0.0557 -0.3528
11706TIP3    H256610   3.606   0.463  13.731  0.3759  0.1574  2.2756
11707TIP3   OH256611   0.297   1.602   0.439 -0.0165  0.0805 -0.0168
11707TIP3    H156612   0.273   1.693   0.456 -0.4191  0.7458 -3.4571
11707TIP3    H256613   0.214   1.554   0.444 -0.5284  0.6625 -2.1267
11708TIP3   OH256614   4.589   6.785   0.960  0.1657 -0.4018 -0.2283
11708TIP3    H156615   4.646   6.846   0.913  2.2982 -2.2782 -0.2413
11708TIP3    H256616   4.616   6.792   1.051 -3.0424  2.2385  0.6972
11709TIP3   OH256617   0.468   4.835  11.612 -0.0035 -0.6188 -0.3626
11709TIP3    H156618   0.382   4.845  11.654  0.1104 -0.3513 -0.1916
11709TIP3    H256619   0.461   4.887  11.531 -0.6806 -2.2099 -1.3797
11710TIP3   OH256620   0.627   2.111   4.842 -0.1442  0.2599  0.5493
11710TIP3    H156621   0.539   2.136   4.866  0.5983  1.6266  1.9732
11710TIP3    H256622   0.684   2.178   4.881  1.4929 -0.2796 -0.7558
11711TIP3   OH256623   0.055   2.754  12.264  0.4611 -0.9279  0.4631
11711TIP3    H156624   0.050   2.848  12.279 -0.3216 -0.1036 -3.7570
11711TIP3    H256625   0.148   2.732  12.275  0.8237  0.5676  0.4897
11712TIP3   OH256626   0.586   4.313  12.842 -0.0511 -0.3503  0.0426
11712TIP3    H156627   0.680   4.330  12.832 -0.0663  0.4479  1.0676
11712TIP3    H256628   0.552   4.316  12.753  0.9093 -0.7337 -0.3504
11713TIP3   OH256629   1.643   0.480   0.709  0.2991  0.2075 -0.3909
11713TIP3    H156630   1.656   0.573   0.689  0.4321  0.2361 -0.1782
11713TIP3    H256631   1.548   0.467   0.704  0.4246 -0.2015 -2.8523
11714TIP3   OH256632   1.135   1.150  16.609  0.4279  0.2591 -0.9065
11714TIP3    H156633   1.223   1.127  16.579  0.9156  0.6785  0.1439
11714TIP3    H256634   1.111   1.079  16.669  0.2637  0.4065 -0.7972
11715TIP3   OH256635   2.164   0.571  16.313 -0.2102  0.0777 -0.1756
11715TIP3    H156636   2.144   0.645  16.256 -0.1629  1.5695  1.6499
11715TIP3    H256637   2.256   0.582  16.337 -0.1919 -0.5974  0.1049
11716TIP3   OH256638   2.356   0.235   5.616 -0.1460  0.2217 -0.1742
11716TIP3    H156639   2.301   0.313   5.620  0.2888  0.4884  1.1231
11716TIP3    H256640   2.295   0.162   5.615 -0.5750  0.4802  2.1146
11717TIP3   OH256641   0.703   1.005  10.977 -0.4908 -0.0923 -0.4068
11717TIP3    H156642   0.683   0.913  10.997  0.3990 -0.1102  0.4485
11717TIP3    H256643   0.624   1.052  11.003 -0.2530 -0.4034  0.9225
11718TIP3   OH256644   2.698   6.175  15.155 -0.5067  0.1524  0.4906
11718TIP3    H156645   2.690   6.227  15.236  2.1070 -1.2074  1.7670
11718TIP3    H256646   2.662   6.090  15.178  0.4594 -0.3136  0.3442
11719TIP3   OH256647   1.997   3.174  10.352 -0.1740  0.3038 -0.3853
11719TIP3    H156648   1.904   3.155  10.363  0.0380 -0.6771 -0.2363
11719TIP3    H256649   2.021   3.134  10.269  0.0343  0.8778 -0.6071
11720TIP3   OH256650   4.685   4.478  11.933 -0.3479 -0.6086  0.3665
11720TIP3    H156651   4.618   4.487  12.001 -0.3116  1.8646  0.1546
11720TIP3    H256652   4.669   4.551  11.874  0.8499 -1.5804 -1.2472
11721TIP3   OH256653   2.803   2.067   3.351  0.5575  0.4189 -0.6444
11721TIP3    H156654   2.855   2.056   3.272  0.6605 -2.3124 -0.2782
11721TIP3    H256655   2.713   2.073   3.319  0.5586 -1.0622 -0.9992
11722TIP3   OH256656   1.515   4.828  13.048 -0.2118 -0.3236  0.3370
11722TIP3    H156657   1.439   4.774  13.069 -0.4321  0.3081  1.2391
11722TIP3    H256658   1.567   4.774  12.989 -0.7825 -1.2277  0.6330
11723TIP3   OH256659   0.655   5.077  14.463  0.0951  0.1680  0.2522
11723TIP3    H156660   0.631   5.035  14.380  1.0830 -0.6082  0.3444
11723TIP3    H256661   0.740   5.039  14.486  0.2543  1.0317  1.1754
11724TIP3   OH256662   0.386   1.244  14.304 -0.3667  0.3322 -0.2513
11724TIP3    H156663   0.352   1.263  14.391 -1.5572 -0.8604 -0.4181
11724TIP3    H256664   0.309   1.219  14.253  0.2090  1.6959 -1.8641
11725TIP3   OH256665   1.909   4.455   0.143 -0.0748 -0.0886  0.1629
11725TIP3    H156666   1.850   4.518   0.183  1.4788 -0.3632  3.2053
11725TIP3    H256667   1.990   4.504   0.128 -0.1577 -0.3773 -1.3832
11726TIP3   OH256668   1.685   1.130  15.974  0.3811  0.5724  0.1226
11726TIP3    H156669   1.688   1.119  16.069 -0.6058  2.0810  0.3713
11726TIP3    H256670   1.650   1.047  15.941  0.5880  0.0862  1.0923
11727TIP3   OH256671   4.945   1.890  11.946  0.5019  0.0096 -0.0668
11727TIP3    H156672   5.038   1.868  11.938  0.6311  0.1116  1.0689
11727TIP3    H256673   4.903   1.809  11.973  0.8386  0.7854  3.1690
11728TIP3   OH256674   0.514   5.328  15.950  0.0130  0.2217  0.1187
11728TIP3    H156675   0.550   5.240  15.963  3.3727  1.5680  0.9224
11728TIP3    H256676   0.551   5.356  15.866  0.3714  1.4711  0.6827
11729TIP3   OH256677   2.486   5.035   3.891  0.0522  0.4137  0.1342
11729TIP3    H156678   2.412   5.064   3.838 -0.0042 -0.1679 -0.1118
11729TIP3    H256679   2.449   5.022   3.979  0.0778  1.0673  0.2481
11730TIP3   OH256680   6.292   3.801   1.642  0.1757  0.1991  0.3137
11730TIP3    H156681   6.284   3.745   1.719 -0.6506  0.7230  0.6308
11730TIP3    H256682   6.226   3.768   1.580  0.3212  0.2421  0.1342
11731TIP3   OH256683   0.096   0.218  12.817  0.5705  0.0857  0.0057
11731TIP3    H156684   0.162   0.182  12.758 -0.3982 -1.3032 -0.2824
11731TIP3    H256685   0.039   0.144  12.837 -0.5610  1.1135  0.7045
11732TIP3   OH256686   6.501   2.848  14.770 -0.5621  0.1330  0.0642
11732TIP3    H156687   6.421   2.809  14.735 -0.3315  0.8422 -1.3328
11732TIP3    H256688   6.546   2.882  14.693  1.8204 -1.5410  0.6031
11733TIP3   OH256689   3.088   5.830  15.999  0.3001  0.0074  0.4380
11733TIP3    H156690   2.999   5.839  16.032  0.6013 -0.6525  1.5192
11733TIP3    H256691   3.123   5.919  15.998 -0.2675  0.2284  0.3215
11734TIP3   OH256692   6.086   3.030   2.278  0.7265  0.2561  0.0133
11734TIP3    H156693   6.009   3.086   2.272 -0.9266 -1.8282  0.5740
11734TIP3    H256694   6.111   3.034   2.371  3.1947  3.1636 -0.6044
11735TIP3   OH256695   6.146   0.023  12.378  0.9384 -0.2726 -0.0269
11735TIP3    H156696   6.137  -0.055  12.325  1.5648 -0.0278 -0.4986
11735TIP3    H256697   6.215   0.074  12.336  0.8649  0.3165  0.5391
11736TIP3   OH256698   2.208   2.101  12.353  0.3468 -0.5464  0.2643
11736TIP3    H156699   2.160   2.094  12.270 -0.1246 -1.2326  0.5820
11736TIP3    H256700   2.193   2.191  12.382 -1.1419 -0.8795  0.5850
11737TIP3   OH256701   4.863   4.249  13.334 -0.0434  0.0257 -0.5038
11737TIP3    H156702   4.950   4.288  13.332  0.3516 -0.7549 -2.9360
11737TIP3    H256703   4.868   4.182  13.402  0.3821  1.7025  1.1977
11738TIP3   OH256704   2.094   1.956  14.862 -0.2687  0.0651  0.5287
11738TIP3    H156705   2.036   2.027  14.892 -0.4087  0.1543  0.0587
11738TIP3    H256706   2.038   1.878  14.861 -0.7782  0.4056 -1.2325
11739TIP3   OH256707   3.085   2.919   5.136 -0.6151 -0.5505  0.2807
11739TIP3    H156708   3.091   3.014   5.151 -1.0988 -0.3811 -0.5217
11739TIP3    H256709   3.170   2.885   5.163 -0.3165  0.1628  0.2585
11740TIP3   OH256710   0.795   6.027   2.521  0.7519 -0.3864 -0.0863
11740TIP3    H156711   0.769   5.945   2.477 -0.1857 -1.1821  1.8223
11740TIP3    H256712   0.890   6.020   2.531  0.5715 -1.7655  0.9682
11741TIP3   OH256713   3.824   2.550  17.122  0.0689  0.4267  0.1059
11741TIP3    H156714   3.734   2.584  17.121 -1.7071 -3.6145  1.6164
11741TIP3    H256715   3.843   2.537  17.215  1.9533  0.4904 -0.2460
11742TIP3   OH256716   1.449   1.344  16.322 -0.2475 -0.0584  0.1498
11742TIP3    H156717   1.545   1.342  16.323 -0.2608 -0.5858  0.9312
11742TIP3    H256718   1.426   1.347  16.229  0.5369  1.4006 -0.0219
11743TIP3   OH256719   0.745   2.828   1.257  0.1641  0.0486  0.1630
11743TIP3    H156720   0.709   2.916   1.251  1.0257  0.3888 -0.1235
11743TIP3    H256721   0.750   2.797   1.167 -0.1728 -0.3201  0.2641
11744TIP3   OH256722   5.183   5.467  11.633 -0.3474  0.2898  0.1907
11744TIP3    H156723   5.110   5.457  11.694  0.5147 -0.9923  1.0549
11744TIP3    H256724   5.238   5.534  11.673 -1.0303  1.2840 -0.4796
11745TIP3   OH256725   2.311   6.658   5.800 -0.5864 -0.6444 -0.5088
11745TIP3    H156726   2.387   6.623   5.754  0.4292  1.1217 -0.2564
11745TIP3    H256727   2.316   6.619   5.887 -0.5865 -1.3666 -0.8267
11746TIP3   OH256728   0.057   4.946  12.272 -0.1551  0.1288 -0.0734
11746TIP3    H156729   0.048   4.971  12.364  0.4548 -0.9176  0.2899
11746TIP3    H256730  -0.019   4.889  12.256 -0.7614  1.0374 -0.4898
11747TIP3   OH256731   6.663   1.473  15.665  0.3270  0.3601  0.4422
11747TIP3    H156732   6.597   1.490  15.598 -0.8188 -0.4291  1.3170
11747TIP3    H256733   6.685   1.381  15.654 -0.3041  0.0621  1.4725
11748TIP3   OH256734   5.857   0.126  12.771 -0.7923  0.3123 -0.1270
11748TIP3    H156735   5.897   0.054  12.723  2.5198  0.7944  1.6316
11748TIP3    H256736   5.868   0.202  12.714 -1.7003 -0.0370 -0.7844
11749TIP3   OH256737   5.929   3.894  15.338  0.1096  0.4576  0.1831
11749TIP3    H156738   5.840   3.860  15.337 -0.0756  0.8724  1.1905
11749TIP3    H256739   5.937   3.943  15.256  0.2451 -1.5977 -1.1030
11750TIP3   OH256740   2.566   5.202   5.271 -0.6382 -0.1001  0.4141
11750TIP3    H156741   2.480   5.160   5.272 -0.2732 -1.3100 -3.3819
11750TIP3    H256742   2.552   5.286   5.227 -0.0662  0.2690  0.9108
11751TIP3   OH256743   3.296   0.605  11.687 -0.1805  0.1499 -0.4905
11751TIP3    H156744   3.384   0.580  11.715  0.0398  0.2153 -1.1078
11751TIP3    H256745   3.239   0.538  11.726 -0.0950  1.1836  1.5264
11752TIP3   OH256746   0.893   1.754  16.092 -0.1928  0.4749 -0.1061
11752TIP3    H156747   0.975   1.796  16.115  0.0408 -0.2612  0.4400
11752TIP3    H256748   0.917   1.684  16.031 -0.3283 -0.1171  0.5020
11753TIP3   OH256749   6.526   2.894  12.111 -0.0008 -0.2630 -0.6729
11753TIP3    H156750   6.566   2.852  12.035 -1.8416 -0.8888 -1.3413
11753TIP3    H256751   6.537   2.988  12.095 -2.1676 -0.2868 -2.8191
11754TIP3   OH256752   3.926   3.559   2.652 -0.0917  0.2212  0.3371
11754TIP3    H156753   3.935   3.622   2.581  0.2271  0.2956  0.4402
11754TIP3    H256754   4.013   3.554   2.690 -0.2473  0.1354  0.6839
11755TIP3   OH256755   4.601   3.029  16.548 -0.3690  0.3238 -0.6400
11755TIP3    H156756   4.545   3.062  16.617  0.9449  1.6842 -0.1726
11755TIP3    H256757   4.690   3.049  16.577  0.2708  0.0213 -2.2597
11756TIP3   OH256758   3.130   4.705   5.095 -0.0363 -0.5119  0.1222
11756TIP3    H156759   3.209   4.751   5.067  0.3395 -0.4107  1.2746
11756TIP3    H256760   3.113   4.642   5.025  2.1355 -1.8001  0.6400
11757TIP3   OH256761   1.885   6.845   3.491  0.0376  0.1777 -0.2226
11757TIP3    H156762   1.791   6.830   3.493 -0.3827  2.4549 -0.9155
11757TIP3    H256763   1.921   6.766   3.450 -1.6076 -0.4451 -0.5442
11758TIP3   OH256764   3.259   1.205  15.991  0.9632 -0.2751  0.1917
11758TIP3    H156765   3.263   1.118  15.951  1.1054 -0.4500  0.5758
11758TIP3    H256766   3.277   1.189  16.084  2.9859  0.3986 -0.0432
11759TIP3   OH256767   0.201   0.635  13.986  0.3690 -0.1822  0.2933
11759TIP3    H156768   0.245   0.556  14.018  1.4957  0.7304  1.1253
11759TIP3    H256769   0.142   0.660  14.057 -0.6106 -0.7230 -0.3161
11760TIP3   OH256770   4.312   6.250  15.412  0.1447 -0.3609 -0.3561
11760TIP3    H156771   4.268   6.298  15.483 -2.1591 -3.3112  0.4121
11760TIP3    H256772   4.293   6.301  15.333 -0.7710  0.8423  0.5982
11761TIP3   OH256773   6.819   4.176  16.781  0.1145 -0.3358 -0.4344
11761TIP3    H156774   6.757   4.211  16.717 -0.2606 -1.2629 -0.5994
11761TIP3    H256775   6.863   4.105  16.735 -0.8404 -1.6612  0.6003
11762TIP3   OH256776   2.599   5.080   0.572  0.1511 -0.2830  0.5655
11762TIP3    H156777   2.603   5.007   0.511  0.6210 -1.5660  2.0589
11762TIP3    H256778   2.531   5.056   0.635 -0.3943  1.0478  0.5286
11763TIP3   OH256779   4.689   1.954   5.422  0.0644 -0.1406  0.1439
11763TIP3    H156780   4.753   2.004   5.472  1.1164 -1.2788 -0.0317
11763TIP3    H256781   4.716   1.863   5.431 -2.2390 -0.8115  1.0918
11764TIP3   OH256782   2.226   0.605  12.599  0.0623  0.3251  0.0075
11764TIP3    H156783   2.217   0.693  12.563  0.1126  0.4225  0.2341
11764TIP3    H256784   2.145   0.561  12.574  0.6424 -0.0114 -1.3340
11765TIP3   OH256785   0.996   2.547   4.465 -0.0640  0.5334 -0.3504
11765TIP3    H156786   1.071   2.495   4.437  1.3064  1.8245  0.7058
11765TIP3    H256787   0.922   2.486   4.463  1.5480 -1.6743  1.4694
11766TIP3   OH256788   4.676   4.324  13.556  0.3193 -0.7042  0.0300
11766TIP3    H156789   4.631   4.273  13.623  1.6772 -1.6846  0.2523
11766TIP3    H256790   4.721   4.258  13.502 -1.4820 -0.0277 -2.4838
11767TIP3   OH256791   2.258   5.393   6.556  0.0230  0.1882 -0.1641
11767TIP3    H156792   2.306   5.474   6.540  1.2821 -0.4286  0.2924
11767TIP3    H256793   2.167   5.414   6.537  0.4007  1.5562 -0.5570
11768TIP3   OH256794   3.216   5.139   0.363  0.2372  0.2220  0.2880
11768TIP3    H156795   3.179   5.227   0.355 -1.1835 -0.3924 -0.1717
11768TIP3    H256796   3.292   5.140   0.305 -1.8246  0.1055 -2.6242
11769TIP3   OH256797   2.679   0.979  13.595 -0.5124  0.5275 -0.0331
11769TIP3    H156798   2.726   0.922  13.534 -0.2413  1.4834 -0.7346
11769TIP3    H256799   2.743   1.001  13.662 -0.8110 -0.5247  0.6309
11770TIP3   OH256800   5.302   6.646  16.629 -0.5467  0.2595  0.2667
11770TIP3    H156801   5.236   6.607  16.572  0.3782 -1.6647  0.4382
11770TIP3    H256802   5.336   6.721  16.580 -0.0255 -1.1288 -1.5896
11771TIP3   OH256803   4.316   2.255  16.975 -0.3601  0.2465 -0.4943
11771TIP3    H156804   4.258   2.309  17.029 -0.9190 -0.9835  0.1842
11771TIP3    H256805   4.347   2.186  17.034  1.8973  0.8982 -0.8138
11772TIP3   OH256806   3.844   6.647   0.731  0.2915  0.6818  0.2249
11772TIP3    H156807   3.839   6.635   0.826 -0.1623 -0.3596  0.0772
11772TIP3    H256808   3.800   6.731   0.716 -0.2364  0.5326  0.8688
11773TIP3   OH256809   6.418   2.689  12.322 -0.3838 -0.3704 -0.6886
11773TIP3    H156810   6.358   2.689  12.247  1.1947 -0.3437 -2.0035
11773TIP3    H256811   6.500   2.725  12.288  0.5710 -0.9010  0.9102
11774TIP3   OH256812   0.346   6.396  13.853  0.4823  0.1721  0.2147
11774TIP3    H156813   0.281   6.438  13.797 -1.6789 -0.9190  1.7559
11774TIP3    H256814   0.388   6.469  13.900 -0.2913  0.8551 -0.1385
11775TIP3   OH256815   5.186   3.978  13.969 -0.1515 -0.9272  0.0509
11775TIP3    H156816   5.184   3.948  14.059 -0.8418  0.7814  0.6563
11775TIP3    H256817   5.123   4.051  13.967  0.8662 -0.0394 -1.4652
11776TIP3   OH256818   5.958   3.042  15.576  0.4915  0.1820  0.6960
11776TIP3    H156819   5.946   2.971  15.513 -0.4405  2.3134 -1.7116
11776TIP3    H256820   5.875   3.045  15.624  0.0734  0.4017 -0.0321
11777TIP3   OH256821   6.493   1.520  11.700 -0.0089 -0.5755 -0.0609
11777TIP3    H156822   6.441   1.543  11.623 -0.5981  1.4687  0.8548
11777TIP3    H256823   6.429   1.517  11.772  0.9303  0.9090  0.8980
11778TIP3   OH256824   4.217   4.752  14.529 -0.0840  0.1484 -0.1623
11778TIP3    H156825   4.209   4.668  14.482  0.1717 -0.0741  0.1856
11778TIP3    H256826   4.229   4.817  14.460  3.3535 -0.5156 -0.4061
11779TIP3   OH256827   4.253   2.583  14.178  0.3310  0.1359  0.4031
11779TIP3    H156828   4.180   2.555  14.234  0.7553 -0.4440  0.6755
11779TIP3    H256829   4.261   2.513  14.113 -0.0478  0.7223 -0.2904
11780TIP3   OH256830   0.975   0.407   3.931 -0.1754  0.0493  0.5769
11780TIP3    H156831   1.014   0.441   3.851 -0.5388  2.0003  1.1624
11780TIP3    H256832   0.912   0.341   3.902  0.4042  0.0209 -0.6577
11781TIP3   OH256833   0.839   6.023  11.051 -0.0364 -0.3468 -0.5779
11781TIP3    H156834   0.901   5.966  11.006  0.4364 -0.3524  0.0646
11781TIP3    H256835   0.890   6.065  11.119 -1.1088 -1.6684  1.1155
11782TIP3   OH256836   1.166   3.242   0.892 -0.1759  0.3942 -0.1895
11782TIP3    H156837   1.163   3.331   0.856  1.0011  0.2754 -0.6117
11782TIP3    H256838   1.205   3.190   0.822  0.0651 -0.2726  0.4372
11783TIP3   OH256839   0.060   6.736  13.109  0.0301  0.3109  0.4967
11783TIP3    H156840  -0.007   6.692  13.162  0.6884 -0.4610  0.6995
11783TIP3    H256841   0.132   6.753  13.170 -0.4041  2.1818  0.5632
11784TIP3   OH256842   3.333   2.190   3.155  0.0733 -0.2856 -0.2280
11784TIP3    H156843   3.311   2.098   3.140  0.6547 -0.1571 -2.1724
11784TIP3    H256844   3.280   2.238   3.092 -0.9282  0.8412  1.3999
11785TIP3   OH256845   5.455   3.131   4.299 -0.5571  0.4928  0.3659
11785TIP3    H156846   5.531   3.080   4.328  0.9998  2.7716  0.5180
11785TIP3    H256847   5.398   3.066   4.258  2.8858 -0.9630 -2.7078
11786TIP3   OH256848   5.026   1.468  16.119 -0.1132  0.3471  0.1459
11786TIP3    H156849   5.039   1.444  16.028 -3.5691  0.0573 -0.4292
11786TIP3    H256850   5.029   1.385  16.166  1.8593  0.5162  0.4036
11787TIP3   OH256851   3.581   5.894  14.835  0.5532 -0.5157 -0.0698
11787TIP3    H156852   3.652   5.941  14.879  1.0302 -0.1161 -1.2231
11787TIP3    H256853   3.502   5.942  14.858  0.9456  0.4216 -0.6234
11788TIP3   OH256854   4.834   0.477  12.517 -0.2600  0.8995 -0.2196
11788TIP3    H156855   4.767   0.529  12.562 -3.0465 -2.1153 -0.5281
11788TIP3    H256856   4.793   0.392  12.501  4.3263 -2.0262  1.4262
11789TIP3   OH256857   5.687   3.280  12.836  0.3759 -0.1374  0.3442
11789TIP3    H156858   5.640   3.200  12.860  1.8745 -1.3758 -0.6817
11789TIP3    H256859   5.778   3.264  12.862  0.3732  2.1693  2.2185
11790TIP3   OH256860   6.490   4.928  14.951  0.1279 -0.3345 -0.1351
11790TIP3    H156861   6.410   4.887  14.919  1.1967 -2.1199 -0.6424
11790TIP3    H256862   6.497   5.009  14.900 -1.7289  0.2773  0.4829
11791TIP3   OH256863   4.295   5.964  12.368 -0.5851 -0.6921 -0.0662
11791TIP3    H156864   4.332   5.924  12.290  2.6094  1.8522 -0.0578
11791TIP3    H256865   4.210   5.998  12.339  1.0511  1.3816 -3.0237
11792TIP3   OH256866   0.864   3.828   5.448 -0.8169  0.1391 -0.2715
11792TIP3    H156867   0.871   3.769   5.373 -1.8275 -0.3805  0.0162
11792TIP3    H256868   0.822   3.907   5.413  1.3831  1.1286 -0.8621
11793TIP3   OH256869   2.580   1.740   2.668  0.2584  0.4575  0.5036
11793TIP3    H156870   2.620   1.761   2.753  0.2916  1.8973  0.1510
11793TIP3    H256871   2.577   1.644   2.666  0.7473  0.3930  1.9012
11794TIP3   OH256872   1.087   6.240  12.337  0.0108  0.1478 -0.1338
11794TIP3    H156873   1.037   6.319  12.358  1.0583  0.5125  1.1435
11794TIP3    H256874   1.052   6.211  12.253  0.0358  2.3554 -0.9733
11795TIP3   OH256875   0.798   4.089   2.335 -0.3385 -0.0015  0.2820
11795TIP3    H156876   0.766   4.027   2.400  0.3281  0.1269  0.7418
11795TIP3    H256877   0.725   4.099   2.274 -0.7702 -0.5536  0.6935
11796TIP3   OH256878   6.204   5.865  15.973  0.5240 -0.4517 -0.1995
11796TIP3    H156879   6.285   5.896  15.931  0.6456 -1.0331 -0.4046
11796TIP3    H256880   6.165   5.807  15.908  0.6785 -1.3117  0.4637
11797TIP3   OH256881   0.577   1.575   1.882  0.1522 -0.2425  0.3761
11797TIP3    H156882   0.561   1.637   1.954 -2.1739 -0.6612  0.2960
11797TIP3    H256883   0.556   1.625   1.803 -0.8521 -0.8340  0.2532
11798TIP3   OH256884   4.305   3.978   5.325 -0.5091 -0.4123 -0.1264
11798TIP3    H156885   4.214   3.973   5.356 -0.2115 -0.3948  0.7829
11798TIP3    H256886   4.351   3.909   5.373  0.0210 -0.2269 -0.3590
11799TIP3   OH256887   6.436   3.590  12.877  0.6427 -0.8104 -0.0784
11799TIP3    H156888   6.511   3.618  12.825  1.0452 -1.8153 -0.0574
11799TIP3    H256889   6.426   3.660  12.943  1.9263 -0.9420  0.2850
11800TIP3   OH256890   0.790   4.237  16.425  0.3355  0.1397  0.2802
11800TIP3    H156891   0.751   4.193  16.501 -1.2703 -0.1260 -0.6462
11800TIP3    H256892   0.812   4.165  16.365  0.0443  0.4427 -0.1939
11801TIP3   OH256893   0.813   0.223  10.533  0.1861 -0.5218  0.1133
11801TIP3    H156894   0.815   0.208  10.439 -2.1970  0.4887 -0.1725
11801TIP3    H256895   0.881   0.166  10.568  0.5003 -1.6274 -2.1203
11802TIP3   OH256896   1.032   0.674  14.469 -0.6904  0.6845 -0.0651
11802TIP3    H156897   0.962   0.740  14.464  1.3222  2.9734  0.3855
11802TIP3    H256898   1.099   0.714  14.524 -0.0124 -2.4509  1.6218
11803TIP3   OH256899   4.809   5.094   2.263 -0.2166  1.0192  0.1705
11803TIP3    H156900   4.803   5.168   2.201  1.3950  0.2616 -0.9620
11803TIP3    H256901   4.883   5.116   2.319  0.4686  0.1512 -0.3680
11804TIP3   OH256902   0.478   4.083  16.321 -0.3114 -0.3360 -0.3789
11804TIP3    H156903   0.552   4.090  16.261  0.3275 -2.5453  0.0794
11804TIP3    H256904   0.510   4.121  16.403 -0.6862  1.2820 -0.9266
11805TIP3   OH256905   5.569   1.273  16.903 -0.3120 -0.1237 -0.7822
11805TIP3    H156906   5.587   1.191  16.948 -0.5844  0.4442  0.3845
11805TIP3    H256907   5.496   1.252  16.844  0.2113 -0.9284 -1.1707
11806TIP3   OH256908   4.761   5.444   0.141  0.6672 -0.4078  0.4098
11806TIP3    H156909   4.795   5.358   0.116  0.7799  0.0999 -1.3783
11806TIP3    H256910   4.679   5.452   0.092 -0.1724 -0.1313  1.8122
11807TIP3   OH256911   5.820   2.651  10.354  0.1732  0.0562  0.6143
11807TIP3    H156912   5.892   2.713  10.360 -1.1665  1.6090  1.4448
11807TIP3    H256913   5.845   2.592  10.282  1.5356  1.4979 -0.1517
11808TIP3   OH256914   0.649   0.979   5.327 -0.1684  0.2672 -0.6964
11808TIP3    H156915   0.663   1.055   5.271 -1.2818  1.4216  0.5260
11808TIP3    H256916   0.652   1.013   5.416 -2.2939 -0.7797 -0.1536
11809TIP3   OH256917   6.171   6.133  11.335  0.4056 -0.2608 -0.4246
11809TIP3    H156918   6.199   6.062  11.394  0.0567  0.9058  1.2032
11809TIP3    H256919   6.228   6.124  11.259  1.5233 -1.2511  0.4818
11810TIP3   OH256920   0.128   1.329  16.809 -0.2661 -0.2854  0.1842
11810TIP3    H156921   0.121   1.423  16.794  1.9700 -0.1479 -0.4810
11810TIP3    H256922   0.114   1.318  16.903  3.0176  1.2944  1.0210
11811TIP3   OH256923   3.287   3.355   2.910 -0.3848  0.5858  0.5506
11811TIP3    H156924   3.300   3.394   2.823  1.0046  1.4249  1.1084
11811TIP3    H256925   3.211   3.402   2.945 -2.3399 -1.2268 -0.9847
11812TIP3   OH256926   4.128   1.224   1.737 -0.1509  0.3849  0.8541
11812TIP3    H156927   4.187   1.239   1.663 -2.0410 -0.3706 -0.8827
11812TIP3    H256928   4.113   1.129   1.737 -0.2485  0.3746  2.1869
11813TIP3   OH256929   3.826   2.441  14.967  0.4479  0.4031 -0.2752
11813TIP3    H156930   3.869   2.523  14.942  2.4442 -0.2638  0.7082
11813TIP3    H256931   3.888   2.399  15.028 -1.4348 -0.8752  0.8779
11814TIP3   OH256932   5.835   6.039   1.988 -0.2354  0.1474 -0.5730
11814TIP3    H156933   5.876   5.960   2.024 -0.3074  0.6572  0.6611
11814TIP3    H256934   5.907   6.101   1.977 -0.2745  0.1296 -0.9494
11815TIP3   OH256935   5.059   2.857  11.318  0.1333  0.3327  0.0344
11815TIP3    H156936   5.016   2.835  11.235  0.5947  0.2287 -0.1825
11815TIP3    H256937   5.152   2.859  11.296  0.2064  1.0437  0.3835
11816TIP3   OH256938   6.587   2.356  10.716 -0.0145 -0.4616 -0.3123
11816TIP3    H156939   6.640   2.402  10.652  0.2434  0.7394  0.7070
11816TIP3    H256940   6.500   2.350  10.676 -0.0937  1.0757 -0.4403
11817TIP3   OH256941   0.461   1.825   4.157 -0.5489  0.0059 -0.3922
11817TIP3    H156942   0.534   1.886   4.153 -0.2310 -0.4158 -1.2399
11817TIP3    H256943   0.387   1.877   4.187  0.0790  0.4519  0.4124
11818TIP3   OH256944   5.694   3.554   3.417  0.1570 -0.1662 -0.4694
11818TIP3    H156945   5.756   3.496   3.374  0.0696 -0.8384  0.2895
11818TIP3    H256946   5.609   3.513   3.404  0.2913 -1.2393  1.6528
11819TIP3   OH256947   6.190   3.174  13.020 -0.2524 -0.0997 -0.0218
11819TIP3    H156948   6.273   3.221  13.011  0.5308 -1.1827  1.2631
11819TIP3    H256949   6.207   3.087  12.985 -0.7408 -0.4463  0.5870
11820TIP3   OH256950   5.033   0.359   2.787 -0.8781  0.1312  0.6085
11820TIP3    H156951   5.016   0.265   2.792 -0.0426 -0.0387  0.5169
11820TIP3    H256952   4.951   0.400   2.814 -1.1022 -0.6289  1.1358
11821TIP3   OH256953   2.896   5.416  11.594 -0.0251 -0.2771 -0.2914
11821TIP3    H156954   2.906   5.408  11.499  0.4795 -0.0734 -0.2585
11821TIP3    H256955   2.878   5.327  11.624 -0.3018 -0.3229 -0.5941
11822TIP3   OH256956   3.280   1.631  15.659 -0.4237 -0.0276 -0.5295
11822TIP3    H156957   3.282   1.611  15.752  1.5996 -2.4129 -0.9944
11822TIP3    H256958   3.231   1.713  15.653  0.0823  0.6234  2.6773
11823TIP3   OH256959   4.533   3.379  10.599  0.3143 -0.1136  0.1487
11823TIP3    H156960   4.542   3.458  10.547  1.8165  0.0268  0.5743
11823TIP3    H256961   4.442   3.353  10.589  0.2353  0.6846 -1.4150
11824TIP3   OH256962   0.211   1.478   2.659 -0.0877 -0.0559  0.1924
11824TIP3    H156963   0.263   1.449   2.584  1.6647  0.4216  1.1447
11824TIP3    H256964   0.258   1.555   2.691 -1.6172  0.6003  0.9182
11825TIP3   OH256965   4.843   3.219   3.341  0.1547  0.0643 -0.4403
11825TIP3    H156966   4.806   3.273   3.272 -1.5223 -0.1793  0.2203
11825TIP3    H256967   4.771   3.208   3.404  0.5939 -2.4451 -0.2774
11826TIP3   OH256968   3.564   6.798   5.319  0.3762 -0.0825 -0.2744
11826TIP3    H156969   3.618   6.877   5.321 -0.4756  0.5365 -1.0752
11826TIP3    H256970   3.594   6.750   5.243 -0.7467  0.6844 -1.2348
11827TIP3   OH256971   3.133   1.904  16.224  0.4934  0.0838  0.3349
11827TIP3    H156972   3.170   1.892  16.311  1.9889 -0.6179 -0.3705
11827TIP3    H256973   3.207   1.929  16.169 -0.5864  1.4880 -0.5720
11828TIP3   OH256974   4.189   1.149   2.273 -0.2074  0.3124  0.0475
11828TIP3    H156975   4.155   1.060   2.271  2.4054 -0.7540 -0.2413
11828TIP3    H256976   4.223   1.165   2.185 -1.8933  2.1886 -0.3421
11829TIP3   OH256977   1.731   3.287   6.794  0.5962  0.0949 -0.0458
11829TIP3    H156978   1.642   3.296   6.827  1.1204 -0.8587  1.7558
11829TIP3    H256979   1.725   3.219   6.727 -0.0657  0.2744 -0.1803
11830TIP3   OH256980   4.233   1.455  16.822 -0.4077 -0.3371 -0.3964
11830TIP3    H156981   4.203   1.454  16.913 -1.3729 -0.0976 -0.6960
11830TIP3    H256982   4.293   1.528  16.817 -0.7997  0.0129 -0.0786
11831TIP3   OH256983   1.875   2.925   2.953  0.3414  0.0829 -0.4015
11831TIP3    H156984   1.921   2.861   2.898  0.2973 -1.1345  0.9255
11831TIP3    H256985   1.782   2.906   2.941 -0.1215  3.4186 -4.1490
11832TIP3   OH256986   2.871   4.251   5.867 -0.2050  0.0218 -0.2821
11832TIP3    H156987   2.953   4.285   5.831 -0.0850 -0.2866 -0.3019
11832TIP3    H256988   2.803   4.308   5.830  0.1240  1.3572  1.0430
11833TIP3   OH256989   5.385   2.749   0.210 -0.2798 -0.3319  0.0590
11833TIP3    H156990   5.327   2.764   0.135  0.5542  0.8724 -0.3745
11833TIP3    H256991   5.456   2.695   0.174  0.9573  1.5705 -0.4645
11834TIP3   OH256992   0.532   2.825   5.510  0.1805  1.2009 -0.3029
11834TIP3    H156993   0.493   2.815   5.423  0.1381  0.4420 -0.2061
11834TIP3    H256994   0.594   2.897   5.500  2.2543 -0.6435 -1.7393
11835TIP3   OH256995   0.570   4.098  11.173  0.0264 -0.4349  0.6077
11835TIP3    H156996   0.487   4.130  11.138  0.8553 -0.1974 -1.2459
11835TIP3    H256997   0.600   4.167  11.233 -1.1856 -0.6300  1.4792
11836TIP3   OH256998   5.514   6.781  12.099  0.3031  0.1660 -0.1798
11836TIP3    H156999   5.473   6.705  12.057 -0.7575  0.7291 -0.2074
11836TIP3    H257000   5.535   6.751  12.187  0.0299 -0.2054 -0.2383
11837TIP3   OH257001   0.899   5.548   0.671 -0.0512 -0.2407 -0.1587
11837TIP3    H157002   0.971   5.529   0.731 -0.2110 -1.7433 -0.3977
11837TIP3    H257003   0.850   5.466   0.666 -0.8481  0.2795 -1.2579
11838TIP3   OH257004   4.708   6.850   1.646 -0.4700  0.2909 -0.3635
11838TIP3    H157005   4.639   6.877   1.585 -0.7028  0.7899  0.1049
11838TIP3    H257006   4.756   6.931   1.665  0.1847 -0.0312 -0.6013
11839TIP3   OH257007   2.196   2.061  14.118  0.2406 -0.1688  0.0549
11839TIP3    H157008   2.167   2.152  14.117 -1.7371 -0.7099 -2.1904
11839TIP3    H257009   2.214   2.041  14.026  3.2493 -1.3517  0.7792
11840TIP3   OH257010   2.842   5.123  10.722 -0.1071 -0.0712  0.0500
11840TIP3    H157011   2.795   5.039  10.716  0.2251 -0.3269  0.9088
11840TIP3    H257012   2.843   5.156  10.632  1.3158 -1.8543 -0.6545
11841TIP3   OH257013   4.314   2.234  14.982  0.1577  0.1398 -0.5366
11841TIP3    H157014   4.375   2.185  15.037 -1.1105 -1.8921 -0.8005
11841TIP3    H257015   4.370   2.283  14.921  1.5199 -0.5372  0.1265
11842TIP3   OH257016   4.898   2.790   2.537 -0.4078 -0.4010 -0.6104
11842TIP3    H157017   4.914   2.884   2.543 -0.2034 -0.3980 -1.1604
11842TIP3    H257018   4.973   2.755   2.489 -0.5378 -0.8301 -0.5112
11843TIP3   OH257019   5.994   0.332  15.963  0.0909  0.0562  0.4109
11843TIP3    H157020   5.958   0.263  16.019 -0.7535 -0.1190 -0.3139
11843TIP3    H257021   5.944   0.324  15.882  0.9159  0.6604 -0.1631
11844TIP3   OH257022   4.892   5.590  11.551 -0.3950  0.1916 -0.0639
11844TIP3    H157023   4.889   5.506  11.596 -0.2233  0.3450  0.2326
11844TIP3    H257024   4.950   5.575  11.477  0.1401  0.2215  0.3443
11845TIP3   OH257025   2.732   6.170   5.866 -0.3380  0.6071  0.0468
11845TIP3    H157026   2.700   6.106   5.803 -0.5983 -0.8908  1.6305
11845TIP3    H257027   2.826   6.151   5.874 -0.3155  0.7609  0.1422
11846TIP3   OH257028   3.211   0.214  11.252 -0.4382 -0.2958  0.1483
11846TIP3    H157029   3.159   0.270  11.194 -0.6168 -1.4443 -0.8210
11846TIP3    H257030   3.209   0.260  11.337 -2.0553  0.2719 -0.1590
11847TIP3   OH257031   3.734   1.158  15.380 -0.3315  0.4165  0.0712
11847TIP3    H157032   3.661   1.096  15.387  0.0477 -0.3165 -1.8292
11847TIP3    H257033   3.701   1.238  15.420 -2.2125  0.1079 -0.7316
11848TIP3   OH257034   2.545   2.872  14.651  0.1222 -0.0344 -0.5627
11848TIP3    H157035   2.549   2.963  14.681 -1.2079 -0.1044 -0.0926
11848TIP3    H257036   2.489   2.828  14.716 -0.5009 -0.8332 -1.6145
11849TIP3   OH257037   3.958   1.799   5.524 -0.6146  0.4405 -0.6466
11849TIP3    H157038   3.930   1.711   5.550  1.2911 -0.3377 -1.0315
11849TIP3    H257039   3.878   1.851   5.525 -1.6042 -1.0063  0.7398
11850TIP3   OH257040   6.809   4.522   1.652 -0.1236 -0.3453  0.3885
11850TIP3    H157041   6.888   4.569   1.679  0.1152 -0.3475 -0.2832
11850TIP3    H257042   6.837   4.471   1.576 -0.4720 -1.3003  0.8905
11851TIP3   OH257043   5.380   6.550  13.141  0.2326  0.3522 -0.1416
11851TIP3    H157044   5.342   6.467  13.113 -1.8639  1.6529 -1.4614
11851TIP3    H257045   5.317   6.585  13.204  1.2769  0.7968  0.6786
11852TIP3   OH257046   4.771   6.058   6.654 -0.6707 -0.7024 -0.1217
11852TIP3    H157047   4.802   6.122   6.718  1.0915 -2.9898  1.5043
11852TIP3    H257048   4.749   6.110   6.577 -0.0167  1.9016  1.3160
11853TIP3   OH257049   0.949   1.117  11.653 -0.1341  0.0322 -0.2010
11853TIP3    H157050   1.000   1.148  11.579 -2.4653  0.1859 -1.8541
11853TIP3    H257051   0.860   1.108  11.619 -1.2743 -0.0780  2.5406
11854TIP3   OH257052   2.111   0.129   3.506  0.0413 -0.0076  0.0066
11854TIP3    H157053   2.128   0.168   3.420  1.1506  0.1082  0.2628
11854TIP3    H257054   2.020   0.101   3.502 -0.7342  2.3415 -0.2950
11855TIP3   OH257055   1.449   4.041  16.333 -0.1096  0.1098  0.0690
11855TIP3    H157056   1.367   4.035  16.284  0.7879  2.1710 -1.8491
11855TIP3    H257057   1.430   4.104  16.403  0.2467  2.0629 -1.4946
11856TIP3   OH257058   2.192   5.272   2.154 -0.6214  0.2151 -0.2917
11856TIP3    H157059   2.127   5.220   2.201 -1.6821  2.4071  0.7943
11856TIP3    H257060   2.262   5.209   2.132 -0.6094 -1.1798  3.1593
11857TIP3   OH257061   5.664   2.599  14.694  0.1926 -0.1525 -0.2077
11857TIP3    H157062   5.643   2.688  14.667  0.1412  0.1416  0.7596
11857TIP3    H257063   5.631   2.593  14.784  0.6027 -1.0041 -0.1025
11858TIP3   OH257064   6.095   3.653  12.499 -0.2071 -0.5743 -0.2326
11858TIP3    H157065   6.100   3.585  12.433  0.4010  0.7104 -1.5577
11858TIP3    H257066   6.157   3.626  12.567 -1.7551 -2.5456  0.5014
11859TIP3   OH257067   3.507   6.170  15.879  0.2659  0.3890 -0.1868
11859TIP3    H157068   3.526   6.122  15.959  0.3674  1.2981  0.3511
11859TIP3    H257069   3.568   6.244  15.880 -1.1006  1.5715 -0.0544
11860TIP3   OH257070   4.692   6.811  15.477 -0.5913  0.2601  0.2552
11860TIP3    H157071   4.751   6.830  15.404 -0.2584  0.6095  0.6099
11860TIP3    H257072   4.609   6.853  15.454 -0.4559  0.4533  0.1215
11861TIP3   OH257073   4.506   6.214   3.030  0.1604 -0.0336 -0.4789
11861TIP3    H157074   4.463   6.300   3.023 -0.7020 -0.3063  1.0004
11861TIP3    H257075   4.463   6.160   2.964 -1.1222 -0.0216  0.3143
11862TIP3   OH257076   4.087   2.271   1.760  0.6589 -0.6764 -0.1656
11862TIP3    H157077   4.072   2.177   1.768 -1.3214 -0.3229  0.9478
11862TIP3    H257078   4.176   2.284   1.791 -0.0727 -1.8573  2.7797
11863TIP3   OH257079   1.556   6.555   2.501 -0.1246  0.3153  0.4425
11863TIP3    H157080   1.519   6.467   2.504  0.7714 -0.1175 -0.7055
11863TIP3    H257081   1.531   6.588   2.414 -0.6769  1.3105  0.9587
11864TIP3   OH257082   2.955   6.796   3.075  0.1957  0.0587 -0.3137
11864TIP3    H157083   2.946   6.890   3.058 -1.5940 -0.0159  0.0322
11864TIP3    H257084   2.997   6.792   3.162  0.8064  0.5104 -0.5781
11865TIP3   OH257085   4.082   1.458   4.237  0.4163 -0.1662  0.3363
11865TIP3    H157086   4.152   1.434   4.298  0.7189  1.9697  0.9280
11865TIP3    H257087   4.022   1.510   4.290 -1.1940 -1.2420 -0.3816
11866TIP3   OH257088   5.149   3.137  11.075  0.5521  0.5804 -0.0620
11866TIP3    H157089   5.123   3.182  10.994  0.6548  1.1081  0.1931
11866TIP3    H257090   5.119   3.047  11.063  3.2283 -0.2067 -2.0260
11867TIP3   OH257091   1.769   6.056  13.913  0.1556 -0.0264  0.1746
11867TIP3    H157092   1.790   6.036  13.822  0.7197  1.2996 -0.0058
11867TIP3    H257093   1.741   6.147  13.913 -0.0952 -0.0830  1.2868
11868TIP3   OH257094   0.091   6.108   5.741  0.1121 -0.2784 -0.8831
11868TIP3    H157095   0.183   6.098   5.716  0.5087 -3.4043  1.2491
11868TIP3    H257096   0.043   6.049   5.683 -0.4159  0.4688 -1.2199
11869TIP3   OH257097   1.240   3.894  15.318  0.0424  0.7483  0.3583
11869TIP3    H157098   1.191   3.828  15.268  1.1303 -1.7651  2.3549
11869TIP3    H257099   1.196   3.897  15.403  0.9859  1.4335  0.8405
11870TIP3   OH257100   0.892   3.877   3.698  0.1053 -0.7384  0.3967
11870TIP3    H157101   0.942   3.947   3.741 -3.8219  1.6897  1.5019
11870TIP3    H257102   0.858   3.824   3.770 -3.0527  0.8373  0.2097
11871TIP3   OH257103   2.998   5.301   0.684  0.0469 -0.5243  0.0711
11871TIP3    H157104   3.078   5.249   0.675  0.0044 -0.4498 -0.8226
11871TIP3    H257105   2.933   5.255   0.631 -0.3537 -0.2854  0.3489
11872TIP3   OH257106   4.013   4.440   0.897 -0.0413  0.5628  0.3458
11872TIP3    H157107   4.037   4.444   0.990 -1.1832  3.4618  0.6232
11872TIP3    H257108   4.043   4.523   0.861 -3.4757  1.4824 -0.7758
11873TIP3   OH257109   5.402   0.045   5.631 -0.1088 -0.4524 -0.2612
11873TIP3    H157110   5.359   0.005   5.555 -0.5782  1.0914 -0.8463
11873TIP3    H257111   5.492   0.062   5.602 -0.4998  0.8540 -0.7801
11874TIP3   OH257112   5.091   4.604  13.214  0.0628  0.5703 -0.4129
11874TIP3    H157113   5.099   4.678  13.274  0.1719 -0.4216  0.8390
11874TIP3    H257114   5.102   4.642  13.127  0.3196  1.9840  0.2143
11875TIP3   OH257115   6.453   3.242  15.949  0.6982 -0.0331 -0.1350
11875TIP3    H157116   6.424   3.183  15.879  0.6811 -1.3060  0.9088
11875TIP3    H257117   6.372   3.283  15.980  0.5666 -0.2737 -0.1560
11876TIP3   OH257118   0.234   0.408   5.234  0.1643 -0.1856 -0.1376
11876TIP3    H157119   0.239   0.430   5.327 -3.2431 -2.8896  0.9345
11876TIP3    H257120   0.267   0.318   5.229  1.4578  0.3318 -1.8364
11877TIP3   OH257121   1.500   1.323   1.845  0.1733 -0.1729 -0.0265
11877TIP3    H157122   1.468   1.233   1.849  1.7412 -0.8510 -1.6519
11877TIP3    H257123   1.475   1.354   1.758  2.9051 -0.4119 -1.0020
11878TIP3   OH257124   1.068   4.050   2.797  0.6763  0.2593 -0.1989
11878TIP3    H157125   1.101   4.037   2.886  0.5728 -2.9474 -0.4956
11878TIP3    H257126   1.057   4.145   2.788  0.4966  0.6730  3.2462
11879TIP3   OH257127   1.099   6.607   4.623 -0.6297  0.1730 -0.0455
11879TIP3    H157128   1.154   6.657   4.562 -0.7016  1.2932  0.7824
11879TIP3    H257129   1.060   6.538   4.569  1.5841 -0.6815 -0.6732
11880TIP3   OH257130   4.834   5.289  13.381  0.3784  0.5015  0.4219
11880TIP3    H157131   4.860   5.234  13.454 -0.6405 -1.2432 -0.4441
11880TIP3    H257132   4.856   5.378  13.408  0.8194 -0.1768  2.4615
11881TIP3   OH257133   2.204   0.861  13.093  0.2955 -0.5876  0.9027
11881TIP3    H157134   2.159   0.833  13.172  0.3598 -2.3142  0.3554
11881TIP3    H257135   2.149   0.932  13.058  0.3102  0.2464  2.5004
11882TIP3   OH257136   1.777   3.590   2.834  0.0609 -0.5412 -0.6881
11882TIP3    H157137   1.847   3.631   2.886 -1.0916  0.6835 -0.0388
11882TIP3    H257138   1.760   3.652   2.764 -0.2865 -0.9034 -0.9256
11883TIP3   OH257139   2.896   6.507   3.159  0.4297 -0.0560  0.2632
11883TIP3    H157140   2.836   6.450   3.110 -0.3064  1.4553 -0.6772
11883TIP3    H257141   2.838   6.558   3.216  1.0783 -0.2832  1.1346
11884TIP3   OH257142   6.703   3.343   5.501 -0.0780 -0.3396  1.0183
11884TIP3    H157143   6.622   3.307   5.463  0.3474 -0.1182 -0.1632
11884TIP3    H257144   6.746   3.268   5.542 -1.0539 -0.3834  1.9879
11885TIP3   OH257145   4.869   6.791   4.573 -0.0815 -0.5767  0.2515
11885TIP3    H157146   4.852   6.753   4.487  0.9292 -0.2611 -0.1070
11885TIP3    H257147   4.812   6.743   4.633  0.3633 -1.9087 -0.3589
11886TIP3   OH257148   5.716   3.916   3.688  0.2995  0.0667 -0.1494
11886TIP3    H157149   5.758   3.956   3.612  0.5520  1.4151  0.6588
11886TIP3    H257150   5.635   3.965   3.700 -0.4772 -1.1320 -0.4355
11887TIP3   OH257151   3.267   4.599   4.188 -0.3808 -0.3740  0.4204
11887TIP3    H157152   3.229   4.685   4.172 -1.2573 -0.8705 -0.2681
11887TIP3    H257153   3.274   4.559   4.101 -2.1348 -1.8662  0.8877
11888TIP3   OH257154   3.340   3.537   6.484 -0.1664  0.0382 -0.4400
11888TIP3    H157155   3.272   3.472   6.468  1.0283 -1.9430  1.8546
11888TIP3    H257156   3.328   3.562   6.576  1.6261  0.2954 -0.2332
11889TIP3   OH257157   1.520   3.157  16.416  0.7463 -0.0031 -0.1208
11889TIP3    H157158   1.585   3.180  16.350 -0.1992 -0.0027 -1.0611
11889TIP3    H257159   1.436   3.179  16.377 -0.2004 -3.8731 -0.6430
11890TIP3   OH257160   0.336   0.021   2.711  0.0830 -0.2975 -0.4070
11890TIP3    H157161   0.293  -0.015   2.789 -0.4405  0.0326 -0.5415
11890TIP3    H257162   0.284  -0.013   2.638  0.4727 -0.4682 -0.6098
11891TIP3   OH257163   1.558   2.120   2.306 -0.1250  0.6316 -0.2860
11891TIP3    H157164   1.651   2.123   2.285  0.4619  0.3514  2.0597
11891TIP3    H257165   1.546   2.037   2.352 -1.0823  1.5667  1.2643
11892TIP3   OH257166   4.145   1.884  11.981  0.3295  0.0503  0.2495
11892TIP3    H157167   4.149   1.794  12.012 -2.4142 -0.4870 -0.6655
11892TIP3    H257168   4.133   1.937  12.060 -0.4685 -0.6683  0.6217
11893TIP3   OH257169   4.206   5.272  12.055  0.0687 -0.2711  0.3738
11893TIP3    H157170   4.111   5.271  12.067  0.0769  0.5914  0.5612
11893TIP3    H257171   4.241   5.309  12.136  0.4693  0.6781 -0.2213
11894TIP3   OH257172   5.702   0.435  17.116 -0.2914  0.2489  0.0505
11894TIP3    H157173   5.630   0.397  17.066  0.3133  0.6669 -1.1746
11894TIP3    H257174   5.670   0.437  17.206 -0.7130 -2.1950  0.0117
11895TIP3   OH257175   0.726   4.327   5.442 -0.7883  0.0546  0.5195
11895TIP3    H157176   0.743   4.246   5.491  0.4215 -1.2093 -1.8127
11895TIP3    H257177   0.636   4.318   5.411 -0.1229 -1.3069 -1.1834
11896TIP3   OH257178   4.991   0.586   6.073  0.0424  0.2339  0.1713
11896TIP3    H157179   5.044   0.624   6.143  1.2515 -3.7978  1.7667
11896TIP3    H257180   5.055   0.556   6.008 -0.7734  0.4138 -0.7371
11897TIP3   OH257181   6.190   6.207  14.827 -0.4508 -0.5131 -0.1356
11897TIP3    H157182   6.192   6.191  14.733 -0.1504 -0.1888 -0.1866
11897TIP3    H257183   6.135   6.136  14.862 -0.5760 -0.6260 -0.5519
11898TIP3   OH257184   0.772   0.466   3.656  0.5508 -0.1477 -0.7787
11898TIP3    H157185   0.825   0.398   3.613  2.6785  0.2167  1.0686
11898TIP3    H257186   0.831   0.504   3.722 -2.3087 -0.3139  2.1163
11899TIP3   OH257187   3.274   4.662  15.193  0.4376 -0.2163  0.6302
11899TIP3    H157188   3.333   4.691  15.124 -2.4481  0.2563 -1.8368
11899TIP3    H257189   3.258   4.569  15.175  0.5469 -0.3876  1.3680
11900TIP3   OH257190   6.845   1.649  15.801  0.4028  0.2173 -0.0357
11900TIP3    H157191   6.797   1.611  15.727 -0.4335  1.7450 -0.3343
11900TIP3    H257192   6.794   1.625  15.878 -0.9266  1.8147 -0.3490
11901TIP3   OH257193   1.628   5.734   4.301 -0.7836 -0.7478  0.3259
11901TIP3    H157194   1.586   5.790   4.235 -0.8342  0.9556  1.7293
11901TIP3    H257195   1.557   5.713   4.362 -0.1698  0.1665  1.4103
11902TIP3   OH257196   1.801   5.406  11.186 -0.1757 -0.4294  0.2165
11902TIP3    H157197   1.870   5.345  11.160  0.2435 -0.2044  0.7938
11902TIP3    H257198   1.742   5.408  11.111  1.1810  0.4499 -0.8855
11903TIP3   OH257199   1.227   5.138   1.557  0.1803  0.1570 -0.2416
11903TIP3    H157200   1.250   5.191   1.481 -0.3806  1.0836  0.2256
11903TIP3    H257201   1.234   5.048   1.526  0.0925  0.5193 -1.3480
11904TIP3   OH257202   3.202   6.784   2.314  0.2023 -0.8741  0.0924
11904TIP3    H157203   3.212   6.815   2.224  2.7935  1.0663  0.9410
11904TIP3    H257204   3.112   6.808   2.337  0.3090  0.9733 -1.1712
11905TIP3   OH257205   4.402   4.552   3.441 -0.3761 -0.4052  0.6534
11905TIP3    H157206   4.487   4.580   3.476 -0.1137 -1.3058  0.7560
11905TIP3    H257207   4.368   4.491   3.506  0.1173 -2.1088 -0.6158
11906TIP3   OH257208   4.771   0.399   5.801  0.2906 -0.2276  0.1014
11906TIP3    H157209   4.855   0.387   5.845  0.0213 -0.6394  0.5102
11906TIP3    H257210   4.786   0.471   5.739  0.8816 -0.1574  0.3242
11907TIP3   OH257211   1.721   3.655  10.611  0.7662  0.1274 -0.2778
11907TIP3    H157212   1.769   3.728  10.572  1.1000 -0.4354 -0.9459
11907TIP3    H257213   1.720   3.589  10.542 -2.4585  0.7451 -0.9964
11908TIP3   OH257214   4.487   0.434   1.024 -0.2703  0.7789 -0.2678
11908TIP3    H157215   4.501   0.411   1.116 -0.5056  2.1644  0.1326
11908TIP3    H257216   4.437   0.360   0.988  0.2394  0.0046  0.5864
11909TIP3   OH257217   0.016   5.594   5.111 -0.1303  0.1229 -0.1652
11909TIP3    H157218   0.047   5.617   5.023  0.7464  0.3428  0.1825
11909TIP3    H257219   0.085   5.627   5.169 -0.6533 -0.1061  0.5958
11910TIP3   OH257220   1.587   4.397   0.535 -0.5445  0.1387  0.2260
11910TIP3    H157221   1.537   4.384   0.455  0.0393  0.5941 -0.2216
11910TIP3    H257222   1.613   4.308   0.562  0.1102  0.0605 -0.6438
11911TIP3   OH257223   2.510   0.912  13.824 -0.1685 -0.6080 -0.1946
11911TIP3    H157224   2.440   0.848  13.838  1.7524 -2.7180  0.2497
11911TIP3    H257225   2.534   0.901  13.732 -1.0006  0.8361 -0.6367
11912TIP3   OH257226   2.296   4.220   3.141  0.1813 -0.5101  0.4232
11912TIP3    H157227   2.283   4.315   3.134 -0.4445 -0.6428 -0.4017
11912TIP3    H257228   2.214   4.182   3.108  1.3065 -1.3600 -1.5796
11913TIP3   OH257229   0.022   0.587   6.159 -0.3729 -0.0071 -0.1492
11913TIP3    H157230   0.023   0.682   6.173 -0.4812  0.4542 -2.7343
11913TIP3    H257231   0.003   0.577   6.065 -1.8091 -2.6201  0.3170
11914TIP3   OH257232   6.295   2.530  15.778  0.0214  0.2354 -0.3270
11914TIP3    H157233   6.358   2.460  15.764  1.1107  1.4404 -1.7562
11914TIP3    H257234   6.345   2.599  15.822 -0.9707  0.2316  0.8589
11915TIP3   OH257235   4.229   2.854  14.222  0.1712 -0.1231 -0.1408
11915TIP3    H157236   4.193   2.907  14.150  0.5734 -0.4144 -0.5632
11915TIP3    H257237   4.215   2.764  14.193 -0.6634 -0.2569  0.6504
11916TIP3   OH257238   3.719   5.941  10.488 -0.4868  0.6652 -0.1341
11916TIP3    H157239   3.681   5.916  10.572 -0.6024  0.3971 -0.2623
11916TIP3    H257240   3.807   5.971  10.509 -1.6616  4.0307  0.5581
11917TIP3   OH257241   1.868   1.299   3.551  0.4108 -0.0041 -0.0374
11917TIP3    H157242   1.955   1.320   3.517 -0.0145  0.7864 -0.6618
11917TIP3    H257243   1.811   1.366   3.514 -0.4311 -0.3857  0.5433
11918TIP3   OH257244   1.110   5.009  11.320 -0.5609 -0.1004 -0.0918
11918TIP3    H157245   1.177   4.944  11.341  0.5972  0.5892 -1.4476
11918TIP3    H257246   1.085   4.990  11.230 -1.6333  0.1417  0.1395
11919TIP3   OH257247   3.714   3.569  16.898  0.3756 -0.2842  0.2671
11919TIP3    H157248   3.680   3.506  16.834 -2.1866  2.1529 -0.9779
11919TIP3    H257249   3.773   3.624  16.847 -0.4566  0.7090  0.3541
11920TIP3   OH257250   4.472   6.270  14.210 -0.0274 -0.2816 -0.1803
11920TIP3    H157251   4.533   6.247  14.280  1.5674  1.3914 -0.9382
11920TIP3    H257252   4.459   6.188  14.161  1.6111 -0.6881  0.0119
11921TIP3   OH257253   1.108   0.422   0.116  0.4728 -0.1739  0.0376
11921TIP3    H157254   1.098   0.382   0.030 -0.4842  0.1103 -0.0016
11921TIP3    H257255   1.143   0.352   0.171  0.2898 -0.6071 -0.3858
11922TIP3   OH257256   5.813   5.695  16.504 -0.2452  0.3382 -0.3518
11922TIP3    H157257   5.719   5.691  16.517 -0.8742  3.7565 -2.4395
11922TIP3    H257258   5.846   5.742  16.581 -0.2715 -0.4485  0.1529
11923TIP3   OH257259   3.249   5.824  14.238  0.0294  1.0423 -0.1298
11923TIP3    H157260   3.207   5.906  14.265  2.7303  2.3245  0.5471
11923TIP3    H257261   3.338   5.850  14.215  0.5053 -1.4997 -1.4936
11924TIP3   OH257262   6.678   1.485   5.208  0.0068 -0.4593 -0.2672
11924TIP3    H157263   6.691   1.523   5.122 -0.1342 -1.5631 -0.8007
11924TIP3    H257264   6.722   1.400   5.203 -1.4422 -1.2735  0.1704
11925TIP3   OH257265   0.977   5.028   5.205  0.4796  0.2603  0.4398
11925TIP3    H157266   1.027   5.102   5.241 -0.3573  0.2345  1.7245
11925TIP3    H257267   0.894   5.030   5.253 -0.4003 -0.2518 -1.0119
11926TIP3   OH257268   4.283   5.986   0.802 -0.3493  0.2104 -0.5903
11926TIP3    H157269   4.302   5.904   0.849 -1.2760  0.9212  1.0971
11926TIP3    H257270   4.266   5.958   0.712 -2.0923 -1.6585  0.2542
11927TIP3   OH257271   3.276   3.788  15.930 -0.2282  0.1478  0.3606
11927TIP3    H157272   3.196   3.841  15.929 -0.9564 -0.8412  2.0911
11927TIP3    H257273   3.245   3.698  15.919  0.7144 -0.1820  0.3182
11928TIP3   OH257274   0.754   0.296   2.201  0.5938 -0.2152 -0.1093
11928TIP3    H157275   0.679   0.275   2.146  0.3135 -0.3623  0.3266
11928TIP3    H257276   0.829   0.288   2.143  0.2169  0.5994 -0.7203
11929TIP3   OH257277   1.908   0.662  11.290  0.5751  0.3025 -0.0103
11929TIP3    H157278   1.890   0.581  11.339 -2.0274  2.0044  2.1513
11929TIP3    H257279   1.916   0.633  11.199  1.0041 -2.5038  0.8105
11930TIP3   OH257280   0.190   4.578  11.366 -0.4852  0.1392  0.2834
11930TIP3    H157281   0.233   4.521  11.430  0.3726  0.3577 -0.0819
11930TIP3    H257282   0.173   4.659  11.414 -2.8683 -0.8100  1.1812
11931TIP3   OH257283   3.868   4.621   5.741  0.6150 -0.0827  0.4842
11931TIP3    H157284   3.956   4.607   5.705  1.0762  0.0828  1.5084
11931TIP3    H257285   3.879   4.612   5.836 -0.6897 -1.2152  0.5729
11932TIP3   OH257286   3.110   3.340   4.335  0.3151 -0.3543  0.3061
11932TIP3    H157287   3.074   3.370   4.252  1.2162 -0.4418 -0.1346
11932TIP3    H257288   3.090   3.246   4.338  0.1432 -0.3178  0.2619
11933TIP3   OH257289   2.665   2.809  12.482  0.3329  0.0448  0.3388
11933TIP3    H157290   2.727   2.872  12.520 -0.9100  0.5345  1.6328
11933TIP3    H257291   2.698   2.723  12.512  1.0290  0.1959  0.0386
11934TIP3   OH257292   5.442   2.630  15.764  0.0955  0.3982 -0.3014
11934TIP3    H157293   5.486   2.664  15.686 -0.4255  0.5652 -0.5235
11934TIP3    H257294   5.396   2.705  15.801  0.2828  0.3037  0.1280
11935TIP3   OH257295   5.495   0.207   4.262  0.5719 -0.4339 -0.4148
11935TIP3    H157296   5.462   0.117   4.254  1.4134 -0.6414 -1.8428
11935TIP3    H257297   5.538   0.209   4.347 -0.7299 -0.9344  0.2924
11936TIP3   OH257298   2.006   1.435   1.404  0.4286  0.5111 -0.5475
11936TIP3    H157299   1.921   1.421   1.364 -0.3214  0.8291  0.8752
11936TIP3    H257300   2.053   1.490   1.341 -0.6022  0.7678 -1.1132
11937TIP3   OH257301   4.230   3.275  14.573 -0.1953  0.4609  0.6593
11937TIP3    H157302   4.197   3.265  14.662 -0.3629 -1.3457  0.4300
11937TIP3    H257303   4.228   3.369  14.557  0.6487  0.9068  2.8509
11938TIP3   OH257304   2.207   2.790  11.699 -0.3090 -0.2857 -0.7339
11938TIP3    H157305   2.122   2.793  11.655 -1.1802 -0.6130  0.8488
11938TIP3    H257306   2.194   2.730  11.772  1.1306  0.0868 -0.1348
11939TIP3   OH257307   4.008   0.035  13.325  0.4269  0.3171 -0.1114
11939TIP3    H157308   4.067   0.092  13.374 -0.7659  0.1856  1.5613
11939TIP3    H257309   3.954  -0.006  13.392 -0.1657 -1.1597 -1.4476
11940TIP3   OH257310   4.630   5.369   5.652  0.2181  0.7045 -0.3320
11940TIP3    H157311   4.642   5.461   5.677 -0.6345  0.4838  1.0181
11940TIP3    H257312   4.542   5.365   5.615  0.9795  0.7677 -2.2570
11941TIP3   OH257313   0.962   3.339   5.523  0.5844  0.0084  0.2328
11941TIP3    H157314   0.891   3.311   5.581  0.1684  0.7212  0.0756
11941TIP3    H257315   0.931   3.318   5.435  1.4347 -1.5655  0.2649
11942TIP3   OH257316   4.205   4.355  11.408  0.2638  0.1333  0.0486
11942TIP3    H157317   4.124   4.305  11.402  0.6471 -0.4636 -0.1933
11942TIP3    H257318   4.229   4.350  11.500  0.4925 -0.4388 -0.0390
11943TIP3   OH257319   3.974   2.948  14.829 -0.4176  0.1889 -0.4368
11943TIP3    H157320   3.984   3.040  14.850 -0.1684 -0.0900  0.7051
11943TIP3    H257321   3.979   2.945  14.733 -3.8652  1.7649 -0.8309
11944TIP3   OH257322   4.108   0.626   5.713  0.8250  0.0106 -0.3444
11944TIP3    H157323   4.181   0.566   5.703  1.2968  0.2221  1.4572
11944TIP3    H257324   4.146   0.704   5.754  0.7754  2.7169 -4.7438
11945TIP3   OH257325   1.309   1.214  11.733  0.2309 -0.1705  0.7291
11945TIP3    H157326   1.385   1.271  11.741 -0.3165  0.5998  0.5961
11945TIP3    H257327   1.309   1.163  11.814  0.3235  0.5489  1.1942
11946TIP3   OH257328   6.507   5.122  14.746  0.1645 -0.8472  0.0540
11946TIP3    H157329   6.588   5.158  14.783 -0.2404 -2.3794  2.6441
11946TIP3    H257330   6.461   5.199  14.712  0.8698  0.6860  2.2765
11947TIP3   OH257331   2.579   1.541  16.816  0.2796  0.6274  0.5297
11947TIP3    H157332   2.599   1.498  16.899  2.7560  0.7702  0.0765
11947TIP3    H257333   2.651   1.518  16.759 -0.8557  1.3701 -1.2884
11948TIP3   OH257334   3.556   1.553   4.016  0.1940 -0.2504 -0.0531
11948TIP3    H157335   3.461   1.564   4.025  0.1812 -0.6472  0.3595
11948TIP3    H257336   3.566   1.493   3.942  0.1707  0.6263 -0.7771
11949TIP3   OH257337   2.325   2.427  16.358 -0.0508  0.6928 -0.2642
11949TIP3    H157338   2.247   2.439  16.304 -0.3873  2.3556  0.5136
11949TIP3    H257339   2.375   2.507  16.346  1.5614 -0.3416 -0.7237
11950TIP3   OH257340   4.662   5.990   6.305 -0.1698 -0.2647 -0.0040
11950TIP3    H157341   4.656   6.069   6.359 -0.1847  0.6892 -1.3280
11950TIP3    H257342   4.610   5.925   6.351 -0.8829  0.7675  0.6901
11951TIP3   OH257343   0.338   0.916   5.880  0.3232  0.0670 -0.0217
11951TIP3    H157344   0.309   0.886   5.794 -0.6297 -0.4261  0.4530
11951TIP3    H257345   0.258   0.947   5.923  1.0957  2.2547 -0.0605
11952TIP3   OH257346   1.057   0.570  16.771 -0.0312  0.3574 -0.1170
11952TIP3    H157347   0.994   0.512  16.729  1.5932 -0.7666 -1.1441
11952TIP3    H257348   1.064   0.645  16.712  1.2280 -0.5849 -1.2323
11953TIP3   OH257349   4.929   0.959   5.007 -0.2503 -0.2027 -0.4388
11953TIP3    H157350   4.909   0.914   5.088 -0.2857 -0.0944 -0.3874
11953TIP3    H257351   4.911   1.052   5.025 -0.8967 -0.2590 -0.7745
11954TIP3   OH257352   3.326   6.844  12.279 -0.3487 -0.0053  0.1536
11954TIP3    H157353   3.393   6.779  12.256 -0.7644  0.2038 -1.7762
11954TIP3    H257354   3.286   6.809  12.358  1.4726 -0.5494  0.8871
11955TIP3   OH257355   6.379   2.371  10.504 -0.0773 -0.0783  0.3053
11955TIP3    H157356   6.302   2.313  10.505  0.2635 -0.7433 -2.9562
11955TIP3    H257357   6.350   2.449  10.458  0.2773  1.2512  2.2160
11956TIP3   OH257358   4.986   3.741   4.099 -0.0546 -0.2024  0.3771
11956TIP3    H157359   4.931   3.678   4.053  1.5684 -1.2291 -0.2155
11956TIP3    H257360   4.975   3.823   4.049 -0.9311 -0.4116  0.2084
11957TIP3   OH257361   2.304   0.600   2.573 -0.1840 -0.2092  0.0486
11957TIP3    H157362   2.307   0.550   2.492 -0.8936  2.6198 -1.8948
11957TIP3    H257363   2.385   0.652   2.571  0.4298 -1.0125  1.8709
11958TIP3   OH257364   4.507   4.454   2.192  0.1664 -0.3187 -0.1011
11958TIP3    H157365   4.425   4.407   2.181 -0.0209 -0.0362  0.0586
11958TIP3    H257366   4.519   4.502   2.110  1.8208 -2.8488 -1.4487
11959TIP3   OH257367   1.292   2.706   1.669 -0.1296 -0.0836  0.3408
11959TIP3    H157368   1.266   2.777   1.611  0.1103  0.5328  0.9684
11959TIP3    H257369   1.291   2.627   1.614  0.6312  0.5650 -0.6302
11960TIP3   OH257370   6.178   5.547  11.743  0.5253  0.4280  0.5927
11960TIP3    H157371   6.180   5.481  11.673 -2.0990  0.9045 -0.0636
11960TIP3    H257372   6.158   5.496  11.822  0.1577  0.2241  0.3756
11961TIP3   OH257373   0.919   5.544   2.867  0.2120  0.0053 -0.4038
11961TIP3    H157374   0.979   5.497   2.925 -0.0413  0.5848  0.3418
11961TIP3    H257375   0.844   5.485   2.859 -0.1605  0.3135  0.6318
11962TIP3   OH257376   5.192   2.648  11.489  0.1918  0.0717  0.7270
11962TIP3    H157377   5.138   2.681  11.417 -2.0290 -3.7827  0.3518
11962TIP3    H257378   5.267   2.708  11.492 -0.3423  1.3298 -3.7559
11963TIP3   OH257379   2.227   2.900   5.365 -0.2457  0.7062  0.0858
11963TIP3    H157380   2.263   2.815   5.390 -0.4980 -0.0685 -1.9821
11963TIP3    H257381   2.299   2.945   5.321 -0.0244  1.7328  1.4206
11964TIP3   OH257382   5.000   4.916  16.046 -0.5200  0.7140  0.0645
11964TIP3    H157383   5.010   4.962  16.130 -1.3719  2.6920 -0.8569
11964TIP3    H257384   4.915   4.944  16.014 -0.5151 -0.5830 -1.1588
11965TIP3   OH257385   2.911   2.318   4.218  0.6677  0.3044 -0.1971
11965TIP3    H157386   2.896   2.280   4.305  0.3499 -0.3316 -0.5227
11965TIP3    H257387   3.001   2.294   4.197  0.4420 -0.3426 -0.4341
11966TIP3   OH257388   5.381   2.035   0.092  0.3509  0.4547  0.1476
11966TIP3    H157389   5.344   2.036   0.004  2.8437 -1.4499 -1.0448
11966TIP3    H257390   5.319   1.984   0.144 -1.1770  1.6443 -0.4464
11967TIP3   OH257391   3.957   1.141  15.209  0.7914  0.5780  0.0182
11967TIP3    H157392   4.015   1.216  15.217 -2.2301  3.2306 -0.6799
11967TIP3    H257393   3.882   1.162  15.265 -1.1032 -0.9001 -1.7629
11968TIP3   OH257394   0.940   5.029  11.982  0.1094  0.0479 -0.7254
11968TIP3    H157395   0.858   5.072  12.006  0.6179  1.2540 -1.0682
11968TIP3    H257396   0.977   5.084  11.913  1.6279  0.0365  0.0337
11969TIP3   OH257397   0.639   3.893   0.308 -0.0808  0.0618 -0.1636
11969TIP3    H157398   0.728   3.911   0.277 -0.2532 -1.4288 -1.6831
11969TIP3    H257399   0.587   3.891   0.228 -0.9631 -1.8180  0.4096
11970TIP3   OH257400   4.803   2.887  12.173 -0.3119 -0.1909 -0.1913
11970TIP3    H157401   4.851   2.913  12.094 -3.2120  2.5267 -1.2521
11970TIP3    H257402   4.814   2.959  12.234  0.2058 -1.3564  1.1527
11971TIP3   OH257403   6.127   2.324  15.567 -0.2783 -0.1233  0.2284
11971TIP3    H157404   6.120   2.394  15.502  1.8265  1.1260  1.2109
11971TIP3    H257405   6.059   2.344  15.631 -2.5697 -1.5335 -1.6020
11972TIP3   OH257406   5.346   3.648   0.709 -0.5447  0.4463 -0.1196
11972TIP3    H157407   5.352   3.694   0.793  0.8815 -0.4469  0.3051
11972TIP3    H257408   5.309   3.563   0.730  2.1370 -0.7795  0.1076
11973TIP3   OH257409   2.283   5.928  13.859 -0.0172  0.0563  0.0118
11973TIP3    H157410   2.252   5.984  13.787 -1.2851  0.3339  0.7362
11973TIP3    H257411   2.290   5.987  13.934 -0.4842 -0.5686  0.5597
11974TIP3   OH257412   1.504   3.983   5.688  0.2415  0.4279 -0.0026
11974TIP3    H157413   1.519   4.042   5.762  1.2051 -1.4953  1.4038
11974TIP3    H257414   1.582   3.994   5.632  1.3110 -0.7662  1.1827
11975TIP3   OH257415   4.193   0.224  11.196 -0.2648 -0.2613  0.0671
11975TIP3    H157416   4.210   0.318  11.194  1.7182 -0.5690 -2.0082
11975TIP3    H257417   4.143   0.207  11.117 -0.0297 -1.0269  0.0721
11976TIP3   OH257418   5.979   4.409  11.860 -0.0754 -0.5736  0.3622
11976TIP3    H157419   5.939   4.391  11.945  0.8547 -0.7424  0.7836
11976TIP3    H257420   6.026   4.491  11.873 -0.6166 -0.1555 -0.2477
11977TIP3   OH257421   2.138   1.604   4.399 -0.0619  0.2738  0.2037
11977TIP3    H157422   2.209   1.668   4.394 -0.6605  0.9216 -0.2596
11977TIP3    H257423   2.176   1.523   4.365  1.0290  0.0668  1.8500
11978TIP3   OH257424   1.884   1.637  16.884  0.2361 -0.0348 -0.5775
11978TIP3    H157425   1.795   1.611  16.906 -0.0643  0.6664 -0.9007
11978TIP3    H257426   1.937   1.560  16.903 -0.2975 -0.1581  0.5079
11979TIP3   OH257427   3.048   3.239   1.023  0.1259 -0.5151  0.1655
11979TIP3    H157428   3.024   3.271   0.936 -1.3621  0.1221  0.7945
11979TIP3    H257429   3.101   3.161   1.005 -0.6238 -0.7273 -1.3112
11980TIP3   OH257430   2.062   1.997   0.284 -0.2514 -0.1517  0.4308
11980TIP3    H157431   2.044   2.089   0.265 -2.3141 -0.8050 -1.1505
11980TIP3    H257432   2.151   1.983   0.250 -0.6138  0.8119 -1.0027
11981TIP3   OH257433   6.095   5.549   4.824 -0.2400  0.0631 -0.1553
11981TIP3    H157434   6.046   5.617   4.870 -0.6793 -0.2117 -0.2113
11981TIP3    H257435   6.140   5.501   4.894  0.6270  0.8335 -0.1669
11982TIP3   OH257436   5.457   1.535  12.265 -0.2019  0.5625 -0.3116
11982TIP3    H157437   5.526   1.489  12.217 -1.1020 -1.4018  0.2053
11982TIP3    H257438   5.465   1.504  12.355 -2.3479 -0.5197 -0.4192
11983TIP3   OH257439   5.486   0.871   2.404  0.3319  0.4608 -0.0071
11983TIP3    H157440   5.514   0.920   2.482  2.8300 -1.2662  0.3134
11983TIP3    H257441   5.554   0.888   2.339  0.5326 -1.3886 -0.3469
11984TIP3   OH257442   5.171   4.287  14.608  0.6943  0.1561  0.1704
11984TIP3    H157443   5.255   4.329  14.592  0.5850  0.5055  0.4954
11984TIP3    H257444   5.185   4.234  14.687  1.3596 -1.9108 -1.2430
11985TIP3   OH257445   3.195   5.477  11.262  0.2491 -0.4450  0.3759
11985TIP3    H157446   3.206   5.385  11.287 -1.2214 -0.7137  0.0960
11985TIP3    H257447   3.224   5.480  11.171  1.5792 -0.3314  0.7780
11986TIP3   OH257448   6.387   3.691  11.069  0.1560  0.1899 -0.2498
11986TIP3    H157449   6.371   3.638  10.991 -1.2798 -0.1927  0.2653
11986TIP3    H257450   6.390   3.628  11.141  1.4187  0.5447  0.0332
11987TIP3   OH257451   5.705   4.931   2.228  0.2706 -0.2782  0.4274
11987TIP3    H157452   5.614   4.960   2.239  0.7158  2.1477 -1.4565
11987TIP3    H257453   5.700   4.855   2.170 -0.6693 -1.8372  2.4239
11988TIP3   OH257454   1.028   4.612  16.105 -0.3684 -0.5073  0.1971
11988TIP3    H157455   0.977   4.560  16.167  0.0808  0.8455  1.7808
11988TIP3    H257456   1.111   4.565  16.097 -0.1530 -0.3317  1.2218
11989TIP3   OH257457   5.023   1.203  16.189  0.5221  0.1825  0.2843
11989TIP3    H157458   4.946   1.197  16.132  0.6513  0.4072  0.0862
11989TIP3    H257459   5.022   1.121  16.239  0.6037 -0.1785 -0.2910
11990TIP3   OH257460   3.420   1.693  12.931 -0.4701 -0.3201 -0.1559
11990TIP3    H157461   3.386   1.624  12.873 -1.0621 -0.9213  0.8691
11990TIP3    H257462   3.503   1.659  12.963 -0.2492 -0.0860 -0.4806
11991TIP3   OH257463   1.471   6.619  10.980 -0.4049 -0.4022  0.3981
11991TIP3    H157464   1.513   6.624  10.895 -0.3923  0.5060  0.4509
11991TIP3    H257465   1.430   6.533  10.982 -2.2287  0.3470 -1.4031
11992TIP3   OH257466   5.199   0.440   1.585 -0.1163 -0.4968  0.0920
11992TIP3    H157467   5.186   0.355   1.627 -0.0527 -0.3540  0.4033
11992TIP3    H257468   5.136   0.441   1.513 -1.9868  0.2244  1.6382
11993TIP3   OH257469   6.297   2.891  13.891 -0.1012 -0.5480 -0.1689
11993TIP3    H157470   6.249   2.828  13.944  0.5993 -0.2188  0.8792
11993TIP3    H257471   6.230   2.949  13.855 -0.4575  0.8112  2.4583
11994TIP3   OH257472   5.474   2.828   1.817 -0.0268 -0.1425  0.3050
11994TIP3    H157473   5.553   2.774   1.818 -0.4155 -0.7180  1.0877
11994TIP3    H257474   5.503   2.913   1.850 -0.0776 -0.8882  2.3968
11995TIP3   OH257475   0.629   1.682  14.349 -0.3860  0.2450 -0.5949
11995TIP3    H157476   0.680   1.724  14.418  0.2026  0.5785 -1.2235
11995TIP3    H257477   0.580   1.753  14.308 -0.7128  0.0524 -0.5398
11996TIP3   OH257478   4.863   2.005  15.616  0.6786 -0.5127  0.3228
11996TIP3    H157479   4.824   2.087  15.587  1.7444  0.3424  1.2764
11996TIP3    H257480   4.793   1.962  15.666 -0.5283 -1.1170 -1.7210
11997TIP3   OH257481   6.112   0.394  11.607  0.5509  0.0697  0.1308
11997TIP3    H157482   6.127   0.346  11.526 -1.5294  1.8177 -1.3945
11997TIP3    H257483   6.016   0.399  11.615  0.7034  0.6886  2.2475
11998TIP3   OH257484   3.731   2.101  16.559 -0.6626 -0.1748  0.7026
11998TIP3    H157485   3.814   2.084  16.514 -1.2351 -0.2732 -0.3357
11998TIP3    H257486   3.754   2.167  16.625 -0.2124  1.7785 -1.2506
11999TIP3   OH257487   3.175   4.351  14.061 -0.2937 -0.4834  0.2044
11999TIP3    H157488   3.135   4.351  14.148  0.3234 -1.9157  0.5298
11999TIP3    H257489   3.266   4.377  14.077  0.6217 -3.4145  0.4979
12000TIP3   OH257490   0.362   2.176  12.802 -0.4622 -0.5856  0.2185
12000TIP3    H157491   0.311   2.143  12.876  1.0099  0.4761  1.7890
12000TIP3    H257492   0.453   2.158  12.826  0.0106 -1.8427 -2.2034
12001TIP3   OH257493   2.319   1.213   2.098 -0.2407 -0.0398  0.3614
12001TIP3    H157494   2.337   1.120   2.086  1.9117  0.2563  0.7409
12001TIP3    H257495   2.307   1.223   2.193  3.0461  0.4642  0.8710
12002TIP3   OH257496   4.437   3.518  12.936  0.5096  0.1101 -0.0599
12002TIP3    H157497   4.493   3.440  12.931  0.2981 -0.1628  1.3994
12002TIP3    H257498   4.422   3.542  12.845  2.3219 -0.2912 -0.5069
12003TIP3   OH257499   6.461   4.521   0.974 -0.5727  0.1377  0.3802
12003TIP3    H157500   6.517   4.462   1.025 -0.9038 -0.4282  0.0933
12003TIP3    H257501   6.400   4.557   1.038  0.0701  0.7099  0.6846
12004TIP3   OH257502   5.887   4.888  12.327 -0.5826  0.1071 -0.0629
12004TIP3    H157503   5.909   4.977  12.301 -1.6430  0.3849 -0.0535
12004TIP3    H257504   5.912   4.882  12.419  0.0662  0.1928 -0.2333
12005TIP3   OH257505   5.772   3.330  15.536 -0.0904  0.4914  0.0616
12005TIP3    H157506   5.765   3.303  15.628  3.4695 -2.6069 -0.3320
12005TIP3    H257507   5.842   3.395  15.536 -0.3765  0.8047 -0.4166
12006TIP3   OH257508   1.914   1.714  13.295  0.2169  0.1328 -0.0566
12006TIP3    H157509   1.847   1.693  13.230 -0.5714  1.9369  0.1121
12006TIP3    H257510   1.869   1.703  13.379  0.3180  0.7358  0.0775
12007TIP3   OH257511   0.818   6.282   2.422 -0.0791 -0.2540  0.1481
12007TIP3    H157512   0.827   6.199   2.468  0.9868 -0.3327 -0.1641
12007TIP3    H257513   0.908   6.308   2.402 -0.4692 -0.0419 -1.5303
12008TIP3   OH257514   0.474   0.162   0.977 -0.2516  0.1906 -0.4629
12008TIP3    H157515   0.512   0.186   0.893 -1.9757  0.3098 -1.2528
12008TIP3    H257516   0.443   0.073   0.965  1.0702 -0.4535  0.6466
12009TIP3   OH257517   2.036   5.052  16.376 -0.0926 -0.0578  0.5403
12009TIP3    H157518   2.042   5.123  16.313  1.0168 -1.5049 -1.1005
12009TIP3    H257519   2.125   5.016  16.382 -0.5986 -1.2917  1.3206
12010TIP3   OH257520   3.615   6.092   2.151  0.0599  0.4443  0.0807
12010TIP3    H157521   3.694   6.039   2.143  0.0941  0.1524  1.8535
12010TIP3    H257522   3.592   6.086   2.244 -0.0648  3.3667  0.3191
12011TIP3   OH257523   2.079   4.642  14.737 -0.6504  0.3557  0.4797
12011TIP3    H157524   2.045   4.565  14.692 -0.7133 -0.2273  1.4922
12011TIP3    H257525   2.073   4.620  14.830  0.6074  1.0377  0.7497
12012TIP3   OH257526   6.546   2.080   5.282  0.9607 -0.2946  0.4107
12012TIP3    H157527   6.555   2.122   5.368  1.5212  1.5583 -0.5055
12012TIP3    H257528   6.636   2.066   5.252  0.8239  1.0711 -0.7619
12013TIP3   OH257529   4.842   2.387  13.741  0.2640  0.3753 -0.3678
12013TIP3    H157530   4.754   2.422  13.756  0.7839  1.2078  0.9967
12013TIP3    H257531   4.835   2.337  13.660 -0.8496  2.5759 -1.7294
12014TIP3   OH257532   5.916   0.661   6.603  0.1157  0.4395 -0.0105
12014TIP3    H157533   5.875   0.712   6.533  0.1957 -0.7461 -0.9636
12014TIP3    H257534   5.864   0.581   6.607  2.2614 -1.1196 -1.2676
12015TIP3   OH257535   1.341   1.296   0.488 -0.1944  0.4001  0.3165
12015TIP3    H157536   1.251   1.270   0.506 -0.2230  1.0486  1.1909
12015TIP3    H257537   1.333   1.373   0.431 -0.1315 -0.8051 -1.3820
12016TIP3   OH257538   0.815   4.201   6.494 -0.4569 -0.0325 -0.0294
12016TIP3    H157539   0.802   4.233   6.583 -0.9727 -0.8511  0.1981
12016TIP3    H257540   0.728   4.176   6.464  0.0206 -2.1784  0.1941
12017TIP3   OH257541   4.766   5.412   5.425 -0.4535  0.2977 -0.1405
12017TIP3    H157542   4.723   5.385   5.506 -1.1444  1.1036 -0.2352
12017TIP3    H257543   4.719   5.366   5.356  0.3492 -0.6563 -0.0829
12018TIP3   OH257544   4.980   6.135  11.213 -0.2734 -0.1791 -0.3250
12018TIP3    H157545   4.969   6.084  11.293 -1.5520 -0.7640 -0.8583
12018TIP3    H257546   4.947   6.222  11.236  1.5345  0.3526  0.4610
12019TIP3   OH257547   6.795   2.631   0.178 -0.3788  0.6322  0.1655
12019TIP3    H157548   6.739   2.673   0.244  0.6741  3.2079 -0.4533
12019TIP3    H257549   6.847   2.568   0.228 -1.1206  0.9734  1.4187
12020TIP3   OH257550   0.623   5.423  11.550  0.0136  0.1117  0.0578
12020TIP3    H157551   0.639   5.448  11.641  1.2143 -2.8210  0.7730
12020TIP3    H257552   0.531   5.396  11.548  0.3557 -1.2239  0.8464
12021TIP3   OH257553   1.163   3.107   3.248 -0.0791  0.5038 -0.2498
12021TIP3    H157554   1.076   3.145   3.237 -0.1589  0.4230  0.0918
12021TIP3    H257555   1.186   3.123   3.339 -1.9704 -4.0080  1.3123
12022TIP3   OH257556   2.939   1.165   5.170 -0.4419 -0.6076  0.0452
12022TIP3    H157557   2.908   1.216   5.094 -0.6845 -0.2896  0.3536
12022TIP3    H257558   2.898   1.080   5.160 -1.7372 -0.0797  0.6456
12023TIP3   OH257559   4.868   5.316   3.994  0.3833  0.7619 -0.2680
12023TIP3    H157560   4.879   5.263   3.915  1.5539  0.3275  0.1644
12023TIP3    H257561   4.806   5.266   4.048 -0.5602  1.1527 -0.9797
12024TIP3   OH257562   2.486   6.257  16.979 -0.3019 -0.3033 -0.0701
12024TIP3    H157563   2.428   6.217  17.044 -1.2799 -1.9309 -1.8261
12024TIP3    H257564   2.503   6.344  17.013 -1.6478 -0.7046  1.8224
12025TIP3   OH257565   4.760   0.401  16.320  0.1111 -0.2013  0.4827
12025TIP3    H157566   4.680   0.418  16.369  0.4950  0.5472  0.8688
12025TIP3    H257567   4.831   0.425  16.381  0.5986  0.6530 -0.3994
12026TIP3   OH257568   6.017   0.413   0.382  0.2505  0.0739 -0.4977
12026TIP3    H157569   5.986   0.322   0.389 -0.5704  0.4159  0.7093
12026TIP3    H257570   6.111   0.406   0.396  0.4189 -0.7358 -1.8654
12027TIP3   OH257571   3.222   4.768  13.450 -0.4734 -0.5510  0.1340
12027TIP3    H157572   3.196   4.836  13.388 -2.0336  0.7024  2.0497
12027TIP3    H257573   3.317   4.761  13.439 -0.7039 -0.6928 -2.6256
12028TIP3   OH257574   4.373   0.944  14.292  0.3596 -0.4359  0.4547
12028TIP3    H157575   4.404   1.018  14.344 -1.5414 -0.7103  2.1141
12028TIP3    H257576   4.348   0.878  14.357  0.7570 -2.0353 -0.9423
12029TIP3   OH257577   0.248   2.155   0.424 -0.5396  0.7592 -0.4474
12029TIP3    H157578   0.267   2.205   0.344  0.1548  1.9750  0.4540
12029TIP3    H257579   0.153   2.146   0.425 -0.4888 -0.7359 -2.2555
12030TIP3   OH257580   1.835   1.806   2.822  0.0282 -0.2335  0.2410
12030TIP3    H157581   1.756   1.814   2.875  0.5860 -0.0896  1.0824
12030TIP3    H257582   1.824   1.724   2.775 -0.8087 -0.0007  0.0165
12031TIP3   OH257583   6.054   0.142  11.866 -0.3477  0.6941  0.2772
12031TIP3    H157584   6.084   0.214  11.810  1.6070 -0.8531 -0.7877
12031TIP3    H257585   6.129   0.121  11.921 -0.7950 -0.6630  0.4153
12032TIP3   OH257586   4.343   5.874   4.398  0.2586 -0.0011 -0.0479
12032TIP3    H157587   4.250   5.894   4.382  0.1719 -1.1001 -1.0340
12032TIP3    H257588   4.344   5.830   4.483 -0.0503  0.4879  0.2147
12033TIP3   OH257589   4.677   3.816   5.575 -0.1887  0.8677 -0.0817
12033TIP3    H157590   4.682   3.775   5.661  0.1854 -1.7361 -1.2411
12033TIP3    H257591   4.767   3.815   5.542 -0.1337  2.9049 -0.0795
12034TIP3   OH257592   0.563   0.843   0.760 -0.0805 -0.1936 -0.2245
12034TIP3    H157593   0.546   0.866   0.851  1.2370  2.7550 -0.6177
12034TIP3    H257594   0.637   0.782   0.764  0.5302  0.5772  0.6640
12035TIP3   OH257595   4.600   6.551   4.526  0.5790  0.7414  0.1511
12035TIP3    H157596   4.635   6.512   4.446  1.6505 -0.7061  1.2653
12035TIP3    H257597   4.530   6.492   4.553 -0.1684  1.5409 -0.0004
12036TIP3   OH257598   5.863   0.092   2.981 -0.5534 -0.4263  0.0909
12036TIP3    H157599   5.915   0.075   2.902  0.8287 -0.6559  1.0221
12036TIP3    H257600   5.902   0.171   3.019 -0.2134 -1.1692  1.3336
12037TIP3   OH257601   3.228   4.910  12.925  0.2857 -0.0850 -0.0492
12037TIP3    H157602   3.294   4.976  12.903 -0.8822  0.6776 -1.4163
12037TIP3    H257603   3.145   4.958  12.924 -0.4236 -1.2547  0.5485
12038TIP3   OH257604   1.813   2.563  13.339  0.2695  0.2607 -1.0654
12038TIP3    H157605   1.797   2.528  13.251  0.4445 -1.2680 -0.5167
12038TIP3    H257606   1.855   2.491  13.386  0.5267  1.1856  0.1706
12039TIP3   OH257607   0.274   3.625   0.501 -0.1555 -0.6658  0.1477
12039TIP3    H157608   0.370   3.635   0.503 -0.2619  0.3698  0.7137
12039TIP3    H257609   0.253   3.575   0.579 -0.1113 -0.5164  0.2560
12040TIP3   OH257610   0.556   0.680   5.347  0.1182 -0.3597  0.0309
12040TIP3    H157611   0.594   0.768   5.342  1.4030 -0.9068 -0.1692
12040TIP3    H257612   0.533   0.669   5.440  0.3646  0.0148  0.1371
12041TIP3   OH257613   1.182   1.712  11.494  0.0748  0.2598  0.0236
12041TIP3    H157614   1.201   1.641  11.432  0.1366 -0.0471  0.3917
12041TIP3    H257615   1.240   1.783  11.468  0.0308  0.1684 -0.3334
12042TIP3   OH257616   3.104   3.933  15.011 -0.6265 -0.2064  0.0304
12042TIP3    H157617   3.116   3.853  14.959 -1.1630  1.1489 -2.3422
12042TIP3    H257618   3.154   3.917  15.091  0.1996 -2.4718 -0.8418
12043TIP3   OH257619   0.325   6.401  15.883 -0.2864  0.6542  0.1041
12043TIP3    H157620   0.334   6.308  15.862 -0.7540  0.6143  0.0824
12043TIP3    H257621   0.403   6.421  15.935 -0.2583  0.2127  0.2350
12044TIP3   OH257622   4.762   3.929   0.681 -0.4432 -0.0986 -1.2713
12044TIP3    H157623   4.779   3.980   0.760 -0.2515 -1.0188 -0.7177
12044TIP3    H257624   4.835   3.950   0.623 -0.3955  0.3031 -1.0710
12045TIP3   OH257625   0.265   6.191   2.820  0.8261 -0.2194 -0.3542
12045TIP3    H157626   0.329   6.206   2.889  0.5430  0.1137 -0.1593
12045TIP3    H257627   0.192   6.147   2.864  1.2127 -1.2389 -0.7151
12046TIP3   OH257628   2.485   5.431   2.635 -0.3701  0.0026  0.0667
12046TIP3    H157629   2.497   5.524   2.654  0.7679 -0.0497 -0.2829
12046TIP3    H257630   2.391   5.421   2.619 -0.7530  0.7842  1.6290
12047TIP3   OH257631   6.363   6.510   0.457 -0.1445  0.0868 -0.5850
12047TIP3    H157632   6.349   6.605   0.453  2.1949  0.5445  0.5054
12047TIP3    H257633   6.334   6.485   0.544 -1.7335 -0.4406 -1.2245
12048TIP3   OH257634   1.760   5.643   5.594  0.0072 -0.5015  0.3202
12048TIP3    H157635   1.823   5.572   5.602  0.7186 -0.1659 -1.6407
12048TIP3    H257636   1.785   5.706   5.661 -0.9640 -2.2600  2.4645
12049TIP3   OH257637   1.947   2.446  14.650  0.3347 -0.1155  0.2970
12049TIP3    H157638   1.894   2.449  14.571 -0.6930 -0.6349  0.9483
12049TIP3    H257639   1.937   2.533  14.689 -0.0981 -0.2390  0.4592
12050TIP3   OH257640   5.447   1.422   1.290  0.2109  0.0641 -0.1268
12050TIP3    H157641   5.463   1.497   1.233  0.2047  0.4194  0.3269
12050TIP3    H257642   5.440   1.347   1.231  0.5453  0.3705 -0.5607
12051TIP3   OH257643   5.488   2.662  17.092  0.0388  0.8919 -0.0991
12051TIP3    H157644   5.434   2.680  17.016 -1.3563 -0.8394  0.3944
12051TIP3    H257645   5.508   2.568  17.085  0.6057  0.8925  1.1875
12052TIP3   OH257646   3.742   0.822   4.146  0.5025  0.3626 -0.5587
12052TIP3    H157647   3.686   0.794   4.217  0.2751 -0.6103 -1.1158
12052TIP3    H257648   3.695   0.895   4.105  0.4498  0.6603  0.0273
12053TIP3   OH257649   4.564   0.033  14.497  0.1688 -0.1779 -0.3219
12053TIP3    H157650   4.659   0.039  14.494  0.2237 -0.3037  0.7291
12053TIP3    H257651   4.544  -0.051  14.457  0.5260 -0.3138 -0.2208
12054TIP3   OH257652   0.650   6.182  10.960  0.6759 -0.0750  0.2929
12054TIP3    H157653   0.696   6.116  11.011 -0.9486  0.1259  2.1358
12054TIP3    H257654   0.705   6.260  10.965  2.0573 -0.9151 -0.9655
12055TIP3   OH257655   5.417   2.504  13.244  0.5544 -0.1623 -0.5456
12055TIP3    H157656   5.508   2.475  13.233  0.3534 -0.6079 -1.1036
12055TIP3    H257657   5.375   2.433  13.292  0.1245 -0.7079 -1.6854
12056TIP3   OH257658   1.754   1.927  11.437 -0.5793  0.1047 -0.0025
12056TIP3    H157659   1.691   1.970  11.495  1.4456  1.4262  1.3496
12056TIP3    H257660   1.838   1.968  11.458  0.8801 -2.0336 -1.2609
12057TIP3   OH257661   6.478   3.451   0.151 -0.1934  0.4902 -0.1334
12057TIP3    H157662   6.429   3.385   0.199  1.6581 -0.6672  0.2813
12057TIP3    H257663   6.513   3.404   0.075  1.2008  0.9353  0.1980
12058TIP3   OH257664   0.195   1.078  16.750 -0.0008  0.0844 -0.1504
12058TIP3    H157665   0.180   1.170  16.768 -1.0139  0.0270 -0.6672
12058TIP3    H257666   0.168   1.033  16.831  0.9939  0.2570  0.3020
12059TIP3   OH257667   1.774   2.800  15.422  0.1501  0.2821  0.6305
12059TIP3    H157668   1.735   2.887  15.412  2.3261  1.1758 -0.9758
12059TIP3    H257669   1.853   2.803  15.367  0.2817 -2.7339  0.4984
12060TIP3   OH257670   2.591   5.257   2.889 -0.1397 -0.2565  0.1368
12060TIP3    H157671   2.528   5.225   2.954 -1.0784 -0.5960 -0.9105
12060TIP3    H257672   2.537   5.294   2.819  0.8467  0.0469 -0.4821
12061TIP3   OH257673   4.720   1.200  12.625  0.0139 -0.2224  0.3938
12061TIP3    H157674   4.665   1.239  12.693 -0.0068 -1.0572  0.8722
12061TIP3    H257675   4.806   1.189  12.667  0.4012  0.5521 -0.1692
12062TIP3   OH257676   4.350   4.818   4.453  0.5335 -0.4538  0.1098
12062TIP3    H157677   4.364   4.892   4.512  2.1375 -0.2425 -0.4826
12062TIP3    H257678   4.409   4.750   4.487  1.1570 -0.4746 -0.9864
12063TIP3   OH257679   4.063   3.839  15.564 -0.6181  0.4201 -0.1836
12063TIP3    H157680   4.001   3.819  15.494 -1.1964  1.8652 -0.1233
12063TIP3    H257681   4.024   3.914  15.610  1.4063  1.7376 -0.4858
12064TIP3   OH257682   1.371   1.722  13.293 -0.8216 -0.3758  0.2758
12064TIP3    H157683   1.276   1.725  13.282 -0.8833 -1.5576  0.3563
12064TIP3    H257684   1.392   1.629  13.294  0.3820 -0.1277 -0.0804
12065TIP3   OH257685   2.282   5.379  10.617 -0.3776 -0.5578  0.4925
12065TIP3    H157686   2.352   5.398  10.554  0.0248 -1.5554  0.6235
12065TIP3    H257687   2.254   5.466  10.647  1.9313 -0.1216  1.6766
12066TIP3   OH257688   0.907   5.375   1.968 -0.7011 -0.3078 -0.0167
12066TIP3    H157689   0.827   5.411   1.931  0.5174  2.1135 -0.4388
12066TIP3    H257690   0.967   5.368   1.895  0.5355  1.0498  0.8303
12067TIP3   OH257691   1.041   3.185  14.841  0.1467  0.2419 -0.1638
12067TIP3    H157692   1.137   3.176  14.843  0.1088 -0.2784 -0.4233
12067TIP3    H257693   1.027   3.270  14.800  0.5231  1.7465  2.5905
12068TIP3   OH257694   1.824   3.446   1.445  0.0559  0.0364 -0.3802
12068TIP3    H157695   1.912   3.417   1.419  1.2353  1.0287  2.1330
12068TIP3    H257696   1.826   3.541   1.432 -0.1033  0.2479  1.0016
12069TIP3   OH257697   2.273   0.623  15.139  0.0372 -0.3588  0.1316
12069TIP3    H157698   2.288   0.625  15.233 -0.7999  0.0762  0.2605
12069TIP3    H257699   2.204   0.687  15.124  2.1026  1.7626 -1.1522
12070TIP3   OH257700   1.561   6.414  12.980  0.9820  0.1665  0.1437
12070TIP3    H157701   1.596   6.425  12.892  3.0491 -0.6417  0.7896
12070TIP3    H257702   1.530   6.323  12.983 -0.6494  0.6744 -0.2090
12071TIP3   OH257703   3.325   0.426  11.426 -0.5282 -0.2565  0.0650
12071TIP3    H157704   3.235   0.427  11.458 -0.3399  0.0151  0.5897
12071TIP3    H257705   3.375   0.472  11.493  0.0837 -0.8275  0.0084
12072TIP3   OH257706   6.627   2.354   4.689 -0.2332 -0.3541 -0.1027
12072TIP3    H157707   6.545   2.404   4.699 -0.6996 -0.7126 -1.8351
12072TIP3    H257708   6.598   2.263   4.678  0.4504 -0.5847 -0.0386
12073TIP3   OH257709   4.534   4.997  11.686  0.3275  0.2145 -0.0257
12073TIP3    H157710   4.593   5.035  11.621  0.0938 -1.3022 -1.1872
12073TIP3    H257711   4.448   5.034  11.666  0.6066  1.3100  0.7410
12074TIP3   OH257712   6.064   0.899   1.415 -0.1164 -0.7544  0.1441
12074TIP3    H157713   6.049   0.942   1.499  0.0948 -0.3234 -0.0374
12074TIP3    H257714   5.977   0.867   1.390 -0.5374  0.6206 -0.2863
12075TIP3   OH257715   2.335   3.007   0.967 -0.7643 -0.1937 -0.4195
12075TIP3    H157716   2.411   3.032   1.019 -0.1346 -1.6056 -0.6117
12075TIP3    H257717   2.260   3.041   1.015 -0.0209  1.2549 -0.2503
12076TIP3   OH257718   4.943   1.272   1.077  0.3879 -0.2819  0.3929
12076TIP3    H157719   4.960   1.362   1.104 -0.4351  0.3628 -1.1644
12076TIP3    H257720   4.853   1.255   1.104  0.3245 -0.4123  0.1059
12077TIP3   OH257721   0.435   0.486  13.465 -0.8559  0.0977 -0.9561
12077TIP3    H157722   0.383   0.565  13.447 -2.9389 -0.9042  0.3585
12077TIP3    H257723   0.386   0.415  13.423 -0.3223 -0.8256 -0.0608
12078TIP3   OH257724   6.218   3.551   4.491  0.2025 -0.6642 -0.5668
12078TIP3    H157725   6.268   3.477   4.526  2.8323  0.9165 -0.7633
12078TIP3    H257726   6.234   3.548   4.397  1.2048  0.6964 -0.4690
12079TIP3   OH257727   3.821   2.076  13.941  0.1349  0.6978 -0.4277
12079TIP3    H157728   3.728   2.053  13.948  0.0687  1.4259  1.4184
12079TIP3    H257729   3.841   2.121  14.022  2.8305 -1.9802  0.5734
12080TIP3   OH257730   4.371   5.582  15.602  0.4316 -0.2458 -0.5094
12080TIP3    H157731   4.358   5.677  15.592  1.1123 -0.0720  0.2172
12080TIP3    H257732   4.396   5.571  15.693 -0.7426 -1.2634 -0.2876
12081TIP3   OH257733   2.293   6.687   5.172 -0.3188  0.6929  0.5065
12081TIP3    H157734   2.296   6.646   5.259 -0.3844  0.5967  0.4641
12081TIP3    H257735   2.384   6.700   5.148 -0.2507 -0.5943 -0.0266
12082TIP3   OH257736   1.566   0.195   2.756 -0.0104  0.2799  0.1497
12082TIP3    H157737   1.634   0.262   2.763  2.1114 -1.5954 -1.1699
12082TIP3    H257738   1.550   0.187   2.662 -1.5687  0.1991  0.4075
12083TIP3   OH257739   6.558   5.279  12.047  0.1203 -0.3161  0.0621
12083TIP3    H157740   6.649   5.252  12.039  0.4759  0.7452  0.3147
12083TIP3    H257741   6.532   5.303  11.958  0.9817  2.0040  0.3470
12084TIP3   OH257742   1.705   0.637   1.885  0.0666 -0.0003  0.3183
12084TIP3    H157743   1.720   0.717   1.936  0.7117  1.0754 -1.4569
12084TIP3    H257744   1.700   0.567   1.951 -0.8819  1.5213  1.9474
12085TIP3   OH257745   2.439   3.125   3.175  0.2451  0.3001 -0.3975
12085TIP3    H157746   2.522   3.156   3.141  0.4599 -0.9829 -1.0950
12085TIP3    H257747   2.462   3.069   3.249 -0.0788  0.8652  0.1497
12086TIP3   OH257748   2.067   5.128  10.507  0.2033  0.2581 -0.0049
12086TIP3    H157749   2.115   5.081  10.439  1.1533  0.1815  0.7005
12086TIP3    H257750   2.065   5.219  10.477 -0.6284 -0.0201 -0.8137
12087TIP3   OH257751   6.595   5.149  15.761  0.1483  0.1306 -0.0331
12087TIP3    H157752   6.683   5.166  15.793 -0.1740 -1.3669  1.8820
12087TIP3    H257753   6.608   5.108  15.676  1.2404  0.9089 -0.2566
12088TIP3   OH257754   5.377   6.231   5.893  0.5417 -0.3242 -0.0176
12088TIP3    H157755   5.380   6.233   5.989  2.3598 -0.6983 -0.0499
12088TIP3    H257756   5.332   6.313   5.870  0.2005 -0.1639  1.1367
12089TIP3   OH257757   6.642   5.908  15.672 -0.2738 -0.1820  0.3963
12089TIP3    H157758   6.660   5.995  15.636  1.2902 -0.2025  1.0752
12089TIP3    H257759   6.564   5.921  15.726 -0.0607  0.8044  0.4880
12090TIP3   OH257760   1.688   3.689   1.163 -0.2928  0.1225 -0.0543
12090TIP3    H157761   1.620   3.624   1.145 -0.5010  0.2608  0.2272
12090TIP3    H257762   1.724   3.711   1.077  0.3131 -0.9331 -0.0918
12091TIP3   OH257763   2.233   5.338   0.049  0.1685 -0.2966 -0.1126
12091TIP3    H157764   2.161   5.335  -0.014 -2.9175 -0.8290  3.1558
12091TIP3    H257765   2.234   5.429   0.080 -0.9150 -0.8625  1.6958
12092TIP3   OH257766   2.231   6.498  11.895 -0.2011  0.0585 -0.4034
12092TIP3    H157767   2.188   6.583  11.894 -0.4355 -0.0500  0.0409
12092TIP3    H257768   2.310   6.511  11.947  0.4130  0.3000 -1.3618
12093TIP3   OH257769   2.143   3.489  16.895  0.1460  0.6896  0.5619
12093TIP3    H157770   2.065   3.500  16.950  0.4367 -1.2046  1.4247
12093TIP3    H257771   2.196   3.567  16.912 -0.7292  1.1302  1.3488
12094TIP3   OH257772   6.730   3.404   2.266  0.0751  0.4062 -0.1006
12094TIP3    H157773   6.807   3.360   2.230  0.1802  0.7191 -0.2516
12094TIP3    H257774   6.656   3.357   2.227  0.1814 -0.2939  0.5190
12095TIP3   OH257775   1.076   4.172  15.124  0.1023  0.4982 -0.2948
12095TIP3    H157776   1.139   4.244  15.112  1.5166 -0.5442  0.5283
12095TIP3    H257777   1.054   4.146  15.034 -0.3263  1.8461 -0.6053
12096TIP3   OH257778   0.119   3.986   3.500  0.2994 -0.1519  0.3040
12096TIP3    H157779   0.133   3.895   3.524 -1.2924 -0.5443 -0.0933
12096TIP3    H257780   0.196   4.010   3.449  1.0411 -1.0666  0.9638
12097TIP3   OH257781   1.386   5.952  15.826  0.6363 -0.0556  0.8888
12097TIP3    H157782   1.423   6.033  15.790  1.3673 -0.9510 -0.4503
12097TIP3    H257783   1.462   5.903  15.859  0.5863 -1.4013 -0.8447
12098TIP3   OH257784   1.216   2.195  11.349  0.3219  0.1117  0.0289
12098TIP3    H157785   1.131   2.181  11.306 -0.0284  1.5509  0.2022
12098TIP3    H257786   1.194   2.234  11.433  1.1029 -0.9744  0.7530
12099TIP3   OH257787   2.874   5.846   3.898  0.2873 -0.6859 -0.2939
12099TIP3    H157788   2.896   5.760   3.861 -0.5669 -0.0560 -2.3872
12099TIP3    H257789   2.783   5.837   3.925 -0.2749 -0.0498 -1.8757
12100TIP3   OH257790   6.598   0.992  11.694  0.3797 -0.2548 -0.6363
12100TIP3    H157791   6.530   0.935  11.658  0.7823 -0.5696 -0.9064
12100TIP3    H257792   6.600   1.067  11.634 -0.2289  0.0992 -0.2164
12101TIP3   OH257793   5.334   5.761   3.308  0.4458  0.0149 -0.1245
12101TIP3    H157794   5.252   5.725   3.273 -0.7481  1.6790  0.7989
12101TIP3    H257795   5.402   5.701   3.277 -1.3541 -3.0337  1.3497
12102TIP3   OH257796   3.299   4.007  10.968  0.7115 -0.7104 -0.0335
12102TIP3    H157797   3.228   4.047  10.918  0.7719  0.5334  0.8358
12102TIP3    H257798   3.379   4.040  10.928  0.7975 -1.1359 -0.2264
12103TIP3   OH257799   3.942   0.861  13.339  0.4696  0.1103  0.0709
12103TIP3    H157800   3.893   0.823  13.412 -0.5440 -0.0242 -0.6560
12103TIP3    H257801   4.032   0.867  13.371  0.0076  0.2518  1.4028
12104TIP3   OH257802   2.913   5.320   5.527 -0.0654  0.2913  0.4017
12104TIP3    H157803   2.884   5.231   5.507 -1.3916  1.1160 -1.7196
12104TIP3    H257804   2.864   5.345   5.605  0.1195 -0.7326  0.8576
12105TIP3   OH257805   4.201   6.791   3.472  0.8483  0.0079 -0.5290
12105TIP3    H157806   4.199   6.760   3.562  1.6876  0.7043 -0.2546
12105TIP3    H257807   4.127   6.747   3.429 -1.1635  1.5600  1.1159
12106TIP3   OH257808   0.053   6.397   6.290  0.1635 -0.0736 -0.5330
12106TIP3    H157809   0.080   6.340   6.362 -0.0313  1.9160  1.1896
12106TIP3    H257810   0.081   6.351   6.211 -0.2025 -2.6491  0.7438
12107TIP3   OH257811   3.231   6.003   0.619  0.2224  0.1384  0.4371
12107TIP3    H157812   3.268   5.972   0.702 -1.1403  0.3351  1.1346
12107TIP3    H257813   3.141   5.972   0.619  0.1169  0.3878 -0.8599
12108TIP3   OH257814   2.787   5.733  16.662 -0.1254 -0.2572  0.0677
12108TIP3    H157815   2.789   5.677  16.584  0.4953 -3.3096  2.1139
12108TIP3    H257816   2.700   5.772  16.661 -0.3286 -0.6556 -1.8302
12109TIP3   OH257817   4.784   6.410   2.242  0.2789 -0.0359  0.3211
12109TIP3    H157818   4.720   6.456   2.188  0.7833 -0.7726 -0.9712
12109TIP3    H257819   4.733   6.348   2.292  0.0672 -2.1307 -2.2593
12110TIP3   OH257820   4.738   4.648  12.484 -0.2621 -0.3551  0.8216
12110TIP3    H157821   4.710   4.719  12.425  0.0521 -1.0189 -0.1522
12110TIP3    H257822   4.684   4.573  12.459  0.8115 -1.0267  0.4433
12111TIP3   OH257823   6.283   5.354   0.971 -0.0155 -0.4327 -0.4900
12111TIP3    H157824   6.338   5.336   0.894 -2.6792 -2.2470 -2.1130
12111TIP3    H257825   6.197   5.373   0.935 -1.1213 -0.2527  2.0482
12112TIP3   OH257826   1.831   1.056  15.143  0.0613 -1.1739 -1.0033
12112TIP3    H157827   1.813   0.983  15.084  0.0167 -1.4822 -0.6075
12112TIP3    H257828   1.917   1.036  15.181  0.5696 -0.4664 -1.7298
12113TIP3   OH257829   3.366   3.120  16.715 -0.1108  0.2793  1.1299
12113TIP3    H157830   3.372   3.189  16.650  0.0201 -1.5337 -0.9104
12113TIP3    H257831   3.273   3.095  16.714  0.2262 -1.0646  0.1179
12114TIP3   OH257832   1.315   3.348  11.029 -0.0185 -0.7034  0.2373
12114TIP3    H157833   1.332   3.384  11.116  1.8621  1.6225 -0.9765
12114TIP3    H257834   1.268   3.417  10.983 -1.1466 -1.9730 -0.5756
12115TIP3   OH257835   4.733   6.225  12.847 -0.0307  0.1845 -0.2791
12115TIP3    H157836   4.752   6.135  12.822 -1.6291 -0.0938 -0.5722
12115TIP3    H257837   4.646   6.221  12.887 -0.0734  1.5772 -0.1858
12116TIP3   OH257838   5.632   2.342  13.809 -0.6342  0.4019  0.3317
12116TIP3    H157839   5.700   2.394  13.851  0.3443 -0.4956 -0.0828
12116TIP3    H257840   5.587   2.297  13.881 -0.3626  0.4981  0.5620
12117TIP3   OH257841   6.752   3.389  15.437  0.0313 -0.3644  0.3269
12117TIP3    H157842   6.798   3.305  15.437  0.0854 -0.3348  0.9367
12117TIP3    H257843   6.779   3.432  15.518 -0.8194 -0.2141  0.5416
12118TIP3   OH257844   3.868   3.884   3.160  0.0696 -0.6448  0.1169
12118TIP3    H157845   3.899   3.836   3.237  4.1559 -0.1909 -1.0343
12118TIP3    H257846   3.885   3.826   3.086 -1.3859 -0.0577 -0.7339
12119TIP3   OH257847   0.056   3.453  12.401  0.1923 -0.1866  0.1019
12119TIP3    H157848   0.033   3.532  12.450 -0.2527 -0.2578  0.0107
12119TIP3    H257849  -0.012   3.446  12.334  0.9275  0.0435 -0.6878
12120TIP3   OH257850   4.165   2.063   0.121 -0.1410 -0.5912 -0.6194
12120TIP3    H157851   4.122   2.136   0.166  1.8826  0.5052 -0.3428
12120TIP3    H257852   4.255   2.094   0.107  0.4076 -2.5470 -1.6750
12121TIP3   OH257853   0.585   3.511   3.908 -0.0135 -0.7300 -0.1182
12121TIP3    H157854   0.515   3.450   3.929 -0.2705  0.6106  3.7229
12121TIP3    H257855   0.659   3.482   3.962  0.7958  0.6784 -0.4080
12122TIP3   OH257856   0.611   5.549  15.307  0.1317  0.2351  0.5884
12122TIP3    H157857   0.647   5.464  15.332  0.4173 -0.1170 -0.9083
12122TIP3    H257858   0.530   5.528  15.261  0.2443  0.7667  0.1394
12123TIP3   OH257859   2.199   4.452   1.009 -0.2524  0.3263  0.1581
12123TIP3    H157860   2.222   4.386   1.075  0.2971  2.6058  2.3756
12123TIP3    H257861   2.210   4.407   0.925  1.8500 -1.8634  1.4899
12124TIP3   OH257862   5.721   1.520  15.885 -0.0645  0.3011 -0.3471
12124TIP3    H157863   5.728   1.601  15.935 -0.2574  0.0900  0.0234
12124TIP3    H257864   5.809   1.482  15.889 -0.0804  0.2837 -0.1688
12125TIP3   OH257865   3.285   2.935  12.188 -0.1506 -0.3134 -0.2241
12125TIP3    H157866   3.248   3.015  12.223  1.3293 -0.6986  2.4767
12125TIP3    H257867   3.302   2.955  12.096 -2.3688  1.4647 -0.3433
12126TIP3   OH257868   3.551   2.936   0.766 -0.5280  0.1185  0.1573
12126TIP3    H157869   3.617   2.916   0.699 -1.1356  0.2314 -0.4942
12126TIP3    H257870   3.501   3.008   0.728  0.2683  1.4602  1.5224
12127TIP3   OH257871   5.001   0.860  11.350 -0.2721  0.0466  0.4370
12127TIP3    H157872   4.997   0.937  11.292  1.6764  1.2260  1.7629
12127TIP3    H257873   5.039   0.791  11.296  0.7852  0.9024  0.0567
12128TIP3   OH257874   5.417   1.173   5.173 -0.4310 -0.2545  0.4757
12128TIP3    H157875   5.397   1.085   5.142 -3.9879  0.6051 -0.1809
12128TIP3    H257876   5.412   1.167   5.268  0.9566 -1.0129  0.5246
12129TIP3   OH257877   4.451   5.102   1.154 -0.0764  0.2904 -0.1872
12129TIP3    H157878   4.499   5.061   1.226  2.1571  1.0247 -1.1673
12129TIP3    H257879   4.373   5.047   1.143  0.1318 -0.5433  1.9640
12130TIP3   OH257880   3.079   4.298  13.126  0.5687  0.2883  0.3375
12130TIP3    H157881   3.095   4.209  13.158  0.9941  0.6468  1.1113
12130TIP3    H257882   3.056   4.348  13.203  0.4083  0.8791 -0.0878
12131TIP3   OH257883   6.828   2.522  16.401 -0.6140 -0.0718 -0.2248
12131TIP3    H157884   6.858   2.431  16.404 -0.3378  0.0003 -0.6874
12131TIP3    H257885   6.742   2.520  16.444 -1.2340 -0.8046 -1.4415
12132TIP3   OH257886   1.889   1.885  10.219  0.5747 -0.9154 -0.0507
12132TIP3    H157887   1.961   1.937  10.254  0.9413 -3.8706  4.2318
12132TIP3    H257888   1.918   1.861  10.131  3.7171 -0.0929  0.6346
12133TIP3   OH257889   1.243   4.895   5.183  0.1756 -0.5113  0.1758
12133TIP3    H157890   1.180   4.959   5.151  1.2954 -0.3073 -1.7812
12133TIP3    H257891   1.202   4.857   5.261 -1.5983  0.7788 -0.0786
12134TIP3   OH257892   3.985   1.252   6.834 -0.1479  0.2828 -0.3345
12134TIP3    H157893   4.070   1.287   6.862  0.2598 -2.2475  2.1075
12134TIP3    H257894   4.007   1.172   6.786 -1.0397 -1.6760  2.2910
12135TIP3   OH257895   2.757   6.795   4.425  0.0332  0.1110  0.3280
12135TIP3    H157896   2.814   6.864   4.392  0.7643 -0.1098  1.1071
12135TIP3    H257897   2.768   6.796   4.520 -0.9357 -0.2237  0.4623
12136TIP3   OH257898   2.761   5.871   3.141  0.6568  0.5147  0.1016
12136TIP3    H157899   2.682   5.921   3.159  0.3567 -0.1322  0.6339
12136TIP3    H257900   2.766   5.868   3.045  0.6464  1.4885  0.0661
12137TIP3   OH257901   2.532   1.704  14.483 -0.4659 -0.3698 -0.0863
12137TIP3    H157902   2.609   1.704  14.540 -0.5244 -1.3033  0.0075
12137TIP3    H257903   2.486   1.622  14.504 -1.6483  0.3061  0.0714
12138TIP3   OH257904   4.880   0.549  13.540  0.1854 -0.1124 -0.2373
12138TIP3    H157905   4.808   0.595  13.498 -0.0134 -0.8586 -0.7410
12138TIP3    H257906   4.959   0.591  13.505  0.0121 -0.2879 -0.8558
12139TIP3   OH257907   4.026   4.436   4.116 -0.0672 -0.3550 -0.1678
12139TIP3    H157908   4.000   4.348   4.141  0.7825 -0.6777 -0.3682
12139TIP3    H257909   4.019   4.437   4.020 -1.7481  0.3597 -0.0655
12140TIP3   OH257910   4.252   5.522  10.485  0.1805  0.3614  0.1563
12140TIP3    H157911   4.235   5.429  10.474 -0.2298  0.5622 -1.0841
12140TIP3    H257912   4.184   5.565  10.432  1.2713  1.3237 -0.5070
12141TIP3   OH257913   2.341   6.086   4.106  0.2863  0.3081  0.5813
12141TIP3    H157914   2.370   5.995   4.112 -1.8007 -0.7199 -2.5420
12141TIP3    H257915   2.422   6.136   4.092  1.2120 -1.7208 -2.3678
12142TIP3   OH257916   4.808   0.573  14.823  0.6761  0.0536  0.4508
12142TIP3    H157917   4.812   0.486  14.783 -1.3918  0.3381 -0.4810
12142TIP3    H257918   4.879   0.622  14.782  0.2846 -0.4695 -0.9083
12143TIP3   OH257919   1.790   0.953  13.251  0.4744  0.0900 -0.5617
12143TIP3    H157920   1.722   1.007  13.291 -1.1758  0.0702 -3.1198
12143TIP3    H257921   1.782   0.868  13.294 -0.5946  0.3269 -0.2551
12144TIP3   OH257922   6.831   1.698   3.702 -0.2184  0.0325 -0.5687
12144TIP3    H157923   6.748   1.706   3.749 -1.0870 -2.0286 -1.6278
12144TIP3    H257924   6.882   1.635   3.752  0.3932  0.6594 -0.3825
12145TIP3   OH257925   1.104   1.329   5.710 -0.0531  0.4288 -0.2722
12145TIP3    H157926   1.024   1.311   5.761 -1.9733 -0.3783 -3.3331
12145TIP3    H257927   1.089   1.416   5.673  1.0404  0.7389 -0.0133
12146TIP3   OH257928   2.081   1.619   4.942 -0.3712  0.1694  0.0655
12146TIP3    H157929   2.037   1.663   5.015  0.2930  0.5540  0.2412
12146TIP3    H257930   2.079   1.683   4.871  0.3992  0.4160  0.2533
12147TIP3   OH257931   5.127   6.816  15.094  0.9060  0.0671  0.2611
12147TIP3    H157932   5.062   6.842  15.029 -0.0561 -1.3029  0.6428
12147TIP3    H257933   5.146   6.724  15.074 -0.7776 -0.9774  2.9866
12148TIP3   OH257934   5.137   4.891  11.768 -0.5336 -0.0467 -0.1492
12148TIP3    H157935   5.188   4.862  11.692 -1.7440  1.0325 -1.4353
12148TIP3    H257936   5.137   4.816  11.827 -2.1575 -2.1400 -2.5714
12149TIP3   OH257937   2.987   4.586  11.036  0.4987 -0.3693 -0.2198
12149TIP3    H157938   2.964   4.642  11.110 -1.7478  0.8269 -1.7095
12149TIP3    H257939   2.959   4.498  11.063 -0.1533  0.0293  0.4281
12150TIP3   OH257940   3.465   0.253  13.469  0.1816 -0.0441 -0.0535
12150TIP3    H157941   3.450   0.320  13.402  0.5307  1.7299  1.5227
12150TIP3    H257942   3.534   0.197  13.432  0.4306  0.9302 -1.1377
12151TIP3   OH257943   2.858   1.265   1.884 -0.3269  0.6666  0.7777
12151TIP3    H157944   2.943   1.301   1.908 -0.4189  0.5170  1.3451
12151TIP3    H257945   2.845   1.293   1.794  0.3376  0.6658  0.6723
12152TIP3   OH257946   1.135   3.023   0.296 -0.2349  0.7978 -0.4027
12152TIP3    H157947   1.091   3.012   0.380  1.4121 -0.6244  0.3335
12152TIP3    H257948   1.221   2.982   0.308 -0.6164 -1.1647 -3.3048
12153TIP3   OH257949   1.479   5.532  15.388  0.2095  0.5265  0.6229
12153TIP3    H157950   1.447   5.600  15.448  0.7670  0.8628  0.5438
12153TIP3    H257951   1.562   5.503  15.427  1.4270  1.8910 -0.7967
12154TIP3   OH257952   0.554   3.549  17.019 -0.1366  0.1507 -0.0025
12154TIP3    H157953   0.497   3.516  16.950  1.6288 -0.8700 -1.0455
12154TIP3    H257954   0.582   3.636  16.987 -0.0986  0.0965 -0.1192
12155TIP3   OH257955   1.868   3.235   1.650  0.0911 -0.0395 -0.2256
12155TIP3    H157956   1.815   3.255   1.728 -0.4133  0.6665 -0.7345
12155TIP3    H257957   1.852   3.308   1.591 -1.3393 -1.6236 -1.9332
12156TIP3   OH257958   3.604   5.521   5.562  0.1568  0.3059  0.0169
12156TIP3    H157959   3.549   5.494   5.636 -0.1438 -0.1419 -0.3671
12156TIP3    H257960   3.574   5.467   5.489  2.7262 -1.8276  0.3479
12157TIP3   OH257961   6.392   6.118   2.823  0.1735  0.0597  0.4341
12157TIP3    H157962   6.470   6.112   2.878 -0.4564 -1.6537  1.2020
12157TIP3    H257963   6.336   6.180   2.868 -0.2671 -1.1996  1.7157
12158TIP3   OH257964   0.785   0.205   3.170  0.0667 -0.3621 -0.2834
12158TIP3    H157965   0.803   0.140   3.237  0.4995  0.7054  0.6666
12158TIP3    H257966   0.690   0.216   3.171  0.0631 -0.4364  0.0756
12159TIP3   OH257967   2.385   5.736  10.437 -0.7775  0.1674 -0.5782
12159TIP3    H157968   2.312   5.711  10.493  1.0244 -1.1929  1.3221
12159TIP3    H257969   2.351   5.807  10.383 -2.8926  0.9003  1.5743
12160TIP3   OH257970   4.348   5.119   4.166 -0.3961 -0.0051  0.4592
12160TIP3    H157971   4.289   5.094   4.236  0.1165  0.1779  0.9623
12160TIP3    H257972   4.348   5.043   4.107 -0.7075 -0.2196  0.7314
12161TIP3   OH257973   3.175   5.921  11.271 -0.0084  0.0912  0.4465
12161TIP3    H157974   3.169   6.013  11.246  1.5030 -0.1583 -1.0106
12161TIP3    H257975   3.261   5.913  11.312  0.1630 -0.7934 -0.0547
12162TIP3   OH257976   5.951   4.545  14.585 -0.0298 -0.2535 -0.0073
12162TIP3    H157977   6.045   4.561  14.595 -0.4035  5.2389 -1.8606
12162TIP3    H257978   5.912   4.575  14.667 -0.3098 -1.3757  0.2900
12163TIP3   OH257979   0.914   6.479  15.787 -0.1952 -0.1069 -0.3929
12163TIP3    H157980   0.894   6.414  15.720  0.0182  1.2177 -1.8162
12163TIP3    H257981   1.006   6.501  15.773 -0.2058  0.3619  0.1850
12164TIP3   OH257982   2.419   6.415  12.563 -0.1447 -0.2958  0.2699
12164TIP3    H157983   2.348   6.370  12.517 -0.0668 -0.8428  0.6725
12164TIP3    H257984   2.390   6.419  12.654 -0.7836  1.7503  0.0178
12165TIP3   OH257985   4.803   3.054  14.629 -0.1891 -0.1962 -0.0017
12165TIP3    H157986   4.776   3.032  14.718 -1.3007  0.3165 -0.2023
12165TIP3    H257987   4.741   3.121  14.600 -1.5213 -2.1824 -2.1052
12166TIP3   OH257988   5.722   0.435   2.770 -0.5387  0.0293 -0.0072
12166TIP3    H157989   5.722   0.365   2.836  0.4704  1.6826  1.8341
12166TIP3    H257990   5.800   0.417   2.717 -1.1481 -1.0933 -0.5666
12167TIP3   OH257991   2.951   2.417  15.841  0.8092  0.0246 -0.1562
12167TIP3    H157992   2.923   2.443  15.753 -2.3550 -1.0091  0.4417
12167TIP3    H257993   2.968   2.323  15.835  2.1813  0.2384  0.0197
12168TIP3   OH257994   4.115   5.083   3.448  0.1198  0.4510  0.0733
12168TIP3    H157995   4.153   5.126   3.371  0.4000  1.1226  0.5865
12168TIP3    H257996   4.135   4.990   3.435  2.5459  0.8321  0.6506
12169TIP3   OH257997   0.044   6.044   4.603 -0.1319  0.0367  0.0964
12169TIP3    H157998   0.127   6.090   4.594  0.2298 -0.6698 -0.2709
12169TIP3    H257999   0.021   6.018   4.514 -0.9487  0.5627  0.1450
12170TIP3   OH258000   3.489   6.262  14.666 -0.5388  0.5635  0.0248
12170TIP3    H158001   3.405   6.303  14.642  0.0271  0.8951 -1.5074
12170TIP3    H258002   3.487   6.177  14.623  0.2084  0.8710 -0.6369
12171TIP3   OH258003   3.728   3.041   2.728 -0.4137  0.5110 -0.1789
12171TIP3    H158004   3.735   3.074   2.818 -0.1107  0.9634 -0.3651
12171TIP3    H258005   3.690   2.953   2.737 -0.7528  0.7137  0.3600
12172TIP3   OH258006   2.747   6.570   5.461  0.0483 -0.2703 -0.8742
12172TIP3    H158007   2.838   6.588   5.437  0.2425  1.3538  0.8637
12172TIP3    H258008   2.742   6.474   5.465  1.4469 -0.4099 -1.7249
12173TIP3   OH258009   3.537   0.711  11.414 -0.0279 -0.3923 -0.5759
12173TIP3    H158010   3.526   0.629  11.460  1.3302 -0.4593 -0.3404
12173TIP3    H258011   3.599   0.761  11.467 -0.9829  0.8771 -0.6020
12174TIP3   OH258012   5.804   1.942   4.333 -0.1799 -0.2105 -0.1811
12174TIP3    H158013   5.862   1.893   4.274  0.5995  1.1113 -0.5502
12174TIP3    H258014   5.780   1.878   4.400  2.7615 -0.5272  0.7218
12175TIP3   OH258015   5.061   4.165   5.037  0.5910  0.3819 -0.3513
12175TIP3    H158016   5.071   4.144   5.130 -0.5977  0.4432 -0.2061
12175TIP3    H258017   5.028   4.085   4.998  2.2803 -0.0635 -0.9811
12176TIP3   OH258018   3.690   4.376   4.993 -0.7320  0.3315  0.6259
12176TIP3    H158019   3.753   4.338   5.054  0.7775  0.9714 -0.4984
12176TIP3    H258020   3.638   4.436   5.046  0.5687  0.8939  1.2834
12177TIP3   OH258021   6.435   4.026  12.682 -0.0562 -0.7093  0.8436
12177TIP3    H158022   6.340   4.034  12.672  0.1289 -1.3344 -3.0712
12177TIP3    H258023   6.467   4.116  12.680 -0.4631 -0.5700 -0.4301
12178TIP3   OH258024   5.579   5.889  13.272  0.5849  0.3527 -0.0748
12178TIP3    H158025   5.566   5.859  13.182  0.5643  1.2656 -0.3786
12178TIP3    H258026   5.674   5.894  13.283  0.6148 -0.5738  0.2434
12179TIP3   OH258027   4.687   2.849   4.810 -0.1385  0.1096  0.2351
12179TIP3    H158028   4.638   2.812   4.883  1.4349 -0.8822  0.8214
12179TIP3    H258029   4.690   2.779   4.745 -1.1087  0.8191 -0.6063
12180TIP3   OH258030   0.420   3.289  13.686  0.0277 -0.1859  0.4599
12180TIP3    H158031   0.501   3.335  13.665  0.6175 -2.0055 -1.8104
12180TIP3    H258032   0.350   3.351  13.664  0.7312  1.4962  2.6921
12181TIP3   OH258033   2.720   0.994  16.255 -0.2501 -0.4125 -0.0097
12181TIP3    H158034   2.707   0.978  16.349  0.4173 -1.4113 -0.0723
12181TIP3    H258035   2.655   1.061  16.233  1.7836  2.4319  1.8950
12182TIP3   OH258036   1.057   6.428   1.924  0.2332  0.2739 -0.4892
12182TIP3    H158037   1.069   6.348   1.874  1.0167  0.4708 -0.6183
12182TIP3    H258038   0.976   6.466   1.889 -1.1604 -1.3533  0.7987
12183TIP3   OH258039   2.696   1.587  14.890 -0.4174 -0.6516  0.6492
12183TIP3    H158040   2.665   1.540  14.967 -1.3666  0.1875  0.7987
12183TIP3    H258041   2.659   1.675  14.899  0.2692 -0.2492 -0.2681
12184TIP3   OH258042   6.622   1.310  15.939 -0.0293  0.0893 -0.1755
12184TIP3    H158043   6.641   1.349  15.853  0.0282  1.1051  0.2822
12184TIP3    H258044   6.701   1.260  15.960  0.7799  1.4235  0.1339
12185TIP3   OH258045   5.952   1.578  14.337  0.7113 -0.7273 -0.3754
12185TIP3    H158046   6.014   1.542  14.400 -0.8330 -0.2773  1.5054
12185TIP3    H258047   5.891   1.506  14.319 -0.7894  0.0449  1.2937
12186TIP3   OH258048   5.629   2.136   2.378 -0.2706  0.2416 -0.2169
12186TIP3    H158049   5.703   2.187   2.344  0.5152 -0.4676  0.3762
12186TIP3    H258050   5.552   2.186   2.353  0.4329  1.2374 -0.4609
12187TIP3   OH258051   6.257   3.594  15.831  0.4912 -0.5231  0.1282
12187TIP3    H158052   6.231   3.569  15.743  0.8646  1.3895 -0.5787
12187TIP3    H258053   6.349   3.568  15.838  0.7837  0.3015 -0.4748
12188TIP3   OH258054   5.132   1.971  15.543  0.2472 -0.9125 -0.4997
12188TIP3    H158055   5.051   1.964  15.594 -0.6101 -0.5502 -1.7357
12188TIP3    H258056   5.201   1.940  15.601 -0.6797 -0.5178  0.8560
12189TIP3   OH258057   1.338   3.703   6.099  0.0673  0.4582  0.1185
12189TIP3    H158058   1.364   3.625   6.150  2.3458  1.0587 -0.0243
12189TIP3    H258059   1.320   3.769   6.166 -0.2229  0.3002  0.2006
12190TIP3   OH258060   5.658   0.706  13.706 -0.0072 -0.4772  0.4869
12190TIP3    H158061   5.639   0.776  13.768  0.6326 -0.1959  0.3778
12190TIP3    H258062   5.699   0.751  13.631  0.0347 -0.9149  0.2456
12191TIP3   OH258063   1.383   0.410   0.670 -0.4726 -0.6425  0.1419
12191TIP3    H158064   1.401   0.357   0.592  0.0425 -0.0780 -0.1393
12191TIP3    H258065   1.339   0.351   0.730  0.4545 -1.5090  0.0019
12192TIP3   OH258066   1.982   4.969  14.104 -0.2603  0.2162  0.2600
12192TIP3    H158067   1.948   4.901  14.162  0.3355 -0.3221 -0.0050
12192TIP3    H258068   2.034   4.922  14.039  1.4324  1.0101  0.9593
12193TIP3   OH258069   5.193   4.485   1.491  0.4455 -0.5209  0.0095
12193TIP3    H158070   5.187   4.521   1.403  1.0506 -1.1065 -0.2877
12193TIP3    H258071   5.287   4.490   1.512  0.3196 -0.4753  0.5828
12194TIP3   OH258072   0.210   3.284   5.396 -0.3604 -0.4643 -0.0390
12194TIP3    H158073   0.263   3.253   5.469  1.0769 -1.6423 -1.5039
12194TIP3    H258074   0.270   3.284   5.321 -2.4561 -2.0938 -1.8288
12195TIP3   OH258075   3.413   0.102   4.776  0.3137  0.1489  0.1306
12195TIP3    H158076   3.400   0.177   4.718 -0.2030 -0.3797 -0.4630
12195TIP3    H258077   3.383   0.131   4.861  0.0542  0.5925 -0.1089
12196TIP3   OH258078   0.940   3.769   3.034 -0.1677 -0.6884  0.4222
12196TIP3    H158079   0.856   3.740   3.070 -0.9396  0.5347 -0.3028
12196TIP3    H258080   0.930   3.864   3.025  0.0869 -0.8542 -2.5816
12197TIP3   OH258081   0.979   5.944  11.419 -0.4866 -0.5324 -0.2628
12197TIP3    H158082   1.005   5.996  11.343  0.8312  0.7386  0.9727
12197TIP3    H258083   1.051   5.956  11.482 -2.0733 -0.4608  1.6652
12198TIP3   OH258084   3.538   5.280  14.951  0.3294  0.3416 -0.3116
12198TIP3    H158085   3.606   5.213  14.959  0.4298  0.5781  1.0472
12198TIP3    H258086   3.464   5.245  15.000  0.1264  0.9005 -0.2076
12199TIP3   OH258087   6.749   3.205  10.202  0.0866 -0.0854 -0.2672
12199TIP3    H158088   6.662   3.215  10.164  0.1974 -0.0063 -0.5103
12199TIP3    H258089   6.752   3.115  10.232  0.5081 -0.6200 -1.8084
12200TIP3   OH258090   1.566   1.483  14.540  0.9359  0.1420  0.6949
12200TIP3    H158091   1.605   1.395  14.542  1.2643  0.2607 -0.1629
12200TIP3    H258092   1.536   1.494  14.450 -1.1168  0.0618  1.3338
12201TIP3   OH258093   5.489   2.258   5.711 -0.1709  0.2927 -0.4611
12201TIP3    H158094   5.559   2.194   5.723 -0.3663  0.0072 -0.8082
12201TIP3    H258095   5.531   2.331   5.665  0.5248  1.2937  1.6247
12202TIP3   OH258096   6.586   2.314  16.424  0.1896 -0.0999  0.0260
12202TIP3    H158097   6.601   2.258  16.348  0.6254 -1.0038  0.7588
12202TIP3    H258098   6.495   2.341  16.415 -0.4119 -1.9144  0.2734
12203TIP3   OH258099   2.236   2.656   6.184 -0.3264 -0.4527 -0.4443
12203TIP3    H158100   2.235   2.752   6.181  0.0372 -0.4426 -0.3032
12203TIP3    H258101   2.322   2.635   6.221 -1.3141 -0.7586  1.8400
12204TIP3   OH258102   1.087   4.430  14.032  0.1925  0.2470 -0.3988
12204TIP3    H158103   1.054   4.433  13.942 -0.0131 -0.7279 -0.3750
12204TIP3    H258104   1.177   4.459  14.025  0.5500 -0.9312 -1.1351
12205TIP3   OH258105   1.635   6.666   4.446  0.0507 -0.3418 -0.2611
12205TIP3    H158106   1.725   6.635   4.454 -0.2400 -0.7907  1.7631
12205TIP3    H258107   1.594   6.643   4.530 -1.7511  0.4865 -0.8670
12206TIP3   OH258108   3.208   3.153  17.019  0.0250 -0.3897  0.0074
12206TIP3    H158109   3.155   3.214  16.968  1.4187  0.3607 -0.6008
12206TIP3    H258110   3.146   3.113  17.080 -1.3261  0.0495 -1.0239
12207TIP3   OH258111   4.449   3.657   4.714  0.0209 -0.2305  0.2705
12207TIP3    H158112   4.369   3.663   4.662  0.3082 -1.6439 -0.3595
12207TIP3    H258113   4.420   3.622   4.798 -0.0795 -0.3365  0.1913
12208TIP3   OH258114   1.889   6.501  11.811 -0.6773  0.3746  0.6314
12208TIP3    H158115   1.818   6.528  11.869 -0.9709 -0.7367  0.8139
12208TIP3    H258116   1.964   6.485  11.869 -0.7683 -0.0507  0.6406
12209TIP3   OH258117   1.525   4.354   0.840  0.3586  0.3128  0.4194
12209TIP3    H158118   1.544   4.440   0.803  0.8526  0.8457  1.8454
12209TIP3    H258119   1.459   4.316   0.781 -1.2248  2.3970  0.7253
12210TIP3   OH258120   2.544   1.879  11.025  0.1645  0.2643 -0.1598
12210TIP3    H158121   2.498   1.877  11.109 -1.3536  0.0478 -0.9500
12210TIP3    H258122   2.491   1.937  10.970 -0.2443 -1.4661 -1.6906
12211TIP3   OH258123   4.702   5.860   0.630 -0.3221  0.1593 -0.1377
12211TIP3    H158124   4.761   5.857   0.706  0.6296  1.1552 -0.8108
12211TIP3    H258125   4.756   5.831   0.556 -1.2721 -0.9087 -0.4494
12212TIP3   OH258126   2.655   4.698  15.484 -0.0778  0.0490  0.5093
12212TIP3    H158127   2.622   4.749  15.410  0.6599 -1.6206 -1.0349
12212TIP3    H258128   2.614   4.612  15.475 -0.3435 -0.0458  2.3412
12213TIP3   OH258129   5.942   0.701   4.813 -0.0776 -0.2776  0.1412
12213TIP3    H158130   5.850   0.720   4.828 -0.0421  1.3141 -1.3264
12213TIP3    H258131   5.947   0.606   4.803 -0.9534 -0.8495  3.7733
12214TIP3   OH258132   3.810   3.728  11.926 -0.4559  0.2105  0.0371
12214TIP3    H158133   3.802   3.744  12.020 -0.3098  1.7809 -0.1948
12214TIP3    H258134   3.806   3.632  11.918  0.1347  0.0052  1.6898
12215TIP3   OH258135   3.744   6.536   5.310  0.3206  0.2649  0.0148
12215TIP3    H158136   3.817   6.504   5.258  0.4146  1.0460 -0.3554
12215TIP3    H258137   3.673   6.474   5.294  0.3601  0.4808 -1.0192
12216TIP3   OH258138   4.674   1.257   0.481  0.0203 -0.2553 -0.1917
12216TIP3    H158139   4.580   1.269   0.468  0.1936  0.5139 -0.8360
12216TIP3    H258140   4.711   1.344   0.468  0.7536 -0.3953  0.7872
12217TIP3   OH258141   0.298   1.290  12.640  0.0461  0.2640 -0.0171
12217TIP3    H158142   0.289   1.258  12.550 -0.9915  1.4553 -0.3648
12217TIP3    H258143   0.392   1.286  12.657  0.0512 -2.2743 -0.2536
12218TIP3   OH258144   5.186   3.617  13.377 -0.3605 -0.4928 -0.2493
12218TIP3    H158145   5.169   3.528  13.347 -0.6750 -1.2469  2.0139
12218TIP3    H258146   5.273   3.612  13.418 -0.6297  0.0894  0.4068
12219TIP3   OH258147   0.028   6.706  13.988  0.0923 -0.2363  0.5115
12219TIP3    H158148  -0.064   6.729  13.993 -0.0179 -0.5690  0.1003
12219TIP3    H258149   0.028   6.616  13.954  0.5586 -0.3059  0.6875
12220TIP3   OH258150   1.478   2.486  15.855  0.3527  0.0854 -0.1583
12220TIP3    H158151   1.532   2.453  15.927 -0.5106 -2.1993 -0.4592
12220TIP3    H258152   1.434   2.563  15.890  2.8735  1.3326  0.4489
12221TIP3   OH258153   4.811   3.423  10.486  0.4111 -0.0677  0.8283
12221TIP3    H158154   4.822   3.336  10.448  2.1930 -0.0885  1.3334
12221TIP3    H258155   4.783   3.406  10.576  0.4678 -0.1136  0.8374
12222TIP3   OH258156   1.605   0.053  16.734  0.2061 -0.4504 -0.0371
12222TIP3    H158157   1.599  -0.036  16.700  0.8977 -0.5734  0.1427
12222TIP3    H258158   1.685   0.088  16.696 -0.3697  0.3116 -0.5889
12223TIP3   OH258159   3.887   5.820  11.582 -0.2278 -0.9670  0.1787
12223TIP3    H158160   3.961   5.874  11.552 -0.6182 -0.9679 -0.8384
12223TIP3    H258161   3.837   5.878  11.640 -0.0890 -0.5633 -0.0950
12224TIP3   OH258162   4.393   0.541  12.895 -0.3403  0.3681 -0.7266
12224TIP3    H158163   4.384   0.533  12.801 -1.9758  2.1780 -0.7812
12224TIP3    H258164   4.312   0.505  12.931  0.0739  0.1024 -0.0229
12225TIP3   OH258165   6.289   5.240   4.471  0.1634 -0.0497 -0.2926
12225TIP3    H158166   6.255   5.313   4.522  0.8732  0.2716 -0.2575
12225TIP3    H258167   6.340   5.188   4.534 -1.5765 -1.4471  0.0394
12226TIP3   OH258168   2.989   1.331   4.489  0.0418  0.4215 -0.3907
12226TIP3    H158169   2.970   1.298   4.401 -1.0465  1.0522 -0.4172
12226TIP3    H258170   2.986   1.427   4.480 -2.0209  0.5283  0.6649
12227TIP3   OH258171   1.412   2.049  15.810  0.2018 -0.4019 -0.1182
12227TIP3    H158172   1.404   2.005  15.726  0.4234 -1.7153  0.5307
12227TIP3    H258173   1.325   2.085  15.827  0.7138  2.0904 -2.0391
12228TIP3   OH258174   2.858   4.291  11.746 -0.0943 -0.1253 -0.5112
12228TIP3    H158175   2.855   4.218  11.684 -1.4834 -0.8775  0.3975
12228TIP3    H258176   2.933   4.344  11.717  0.7638 -1.7392 -1.3629
12229TIP3   OH258177   2.456   3.088  12.432 -0.2175  0.3045  0.4445
12229TIP3    H158178   2.487   3.161  12.378  1.6624 -0.8348 -0.1120
12229TIP3    H258179   2.508   3.013  12.403 -2.4148 -1.4047  0.6712
12230TIP3   OH258180   3.707   4.063   1.237  0.2006 -0.2451  0.0258
12230TIP3    H158181   3.786   4.011   1.225  0.3432 -0.4965  1.8450
12230TIP3    H258182   3.637   3.999   1.245  0.4403 -0.2670  2.7486
12231TIP3   OH258183   1.979   6.276   0.381 -0.2036 -0.0664 -0.0619
12231TIP3    H158184   1.961   6.315   0.467 -2.0349  0.6843 -0.7425
12231TIP3    H258185   2.032   6.199   0.401  0.3437  0.6802  1.6363
12232TIP3   OH258186   5.176   3.654   5.306 -0.4142  0.8331  0.6154
12232TIP3    H158187   5.154   3.647   5.213 -1.7781  2.4975  0.7523
12232TIP3    H258188   5.120   3.590   5.349 -1.8757  1.9947  0.5185
12233TIP3   OH258189   1.400   3.250  10.625  0.1272 -0.4775 -0.2600
12233TIP3    H158190   1.433   3.219  10.541  1.3742 -1.5937  0.6027
12233TIP3    H258191   1.328   3.190  10.646 -1.3608  0.8519 -1.2858
12234TIP3   OH258192   4.141   0.293   1.537 -0.6379 -0.0012 -0.1080
12234TIP3    H158193   4.166   0.381   1.510  1.1926 -0.4387  0.0573
12234TIP3    H258194   4.079   0.306   1.609  0.4869  1.1480  0.6764
12235TIP3   OH258195   3.701   3.613   3.767 -0.4655  0.4569 -0.4280
12235TIP3    H158196   3.724   3.532   3.813  0.2630  1.4101  0.9733
12235TIP3    H258197   3.642   3.585   3.697  1.5695 -1.5551 -1.4551
12236TIP3   OH258198   5.981   2.028  14.375 -0.2721  0.2692 -0.1460
12236TIP3    H158199   6.056   1.990  14.329 -1.3851 -0.9669 -0.9994
12236TIP3    H258200   5.952   2.100  14.319 -0.9197 -0.4998 -0.8022
12237TIP3   OH258201   4.974   1.924   0.324 -0.3453  0.3184  0.1915
12237TIP3    H158202   4.908   1.969   0.376  0.5096  3.2463 -1.0497
12237TIP3    H258203   4.963   1.960   0.236  2.0625 -0.0310 -0.3198
12238TIP3   OH258204   0.551   5.774  14.585 -0.2640  0.1129 -0.0410
12238TIP3    H158205   0.593   5.722  14.516  0.0323  1.1983 -0.7038
12238TIP3    H258206   0.624   5.808  14.636 -0.4845 -0.6892  0.8293
12239TIP3   OH258207   4.604   0.461   6.026  0.3420 -0.0915  0.6834
12239TIP3    H158208   4.643   0.435   5.943 -1.9451  0.8433 -0.7934
12239TIP3    H258209   4.510   0.443   6.015  0.0388 -0.6937  3.3923
12240TIP3   OH258210   1.751   1.557  11.726 -0.1950 -0.0546 -0.6451
12240TIP3    H158211   1.838   1.595  11.741 -0.2779 -0.0991 -0.0537
12240TIP3    H258212   1.743   1.488  11.792 -0.4016 -0.5207 -1.1509
12241TIP3   OH258213   2.993   5.730  15.748 -0.0866  0.0270  0.1903
12241TIP3    H158214   3.026   5.721  15.838 -1.0994 -0.2045  0.5512
12241TIP3    H258215   3.020   5.818  15.722  0.9019 -0.1893  0.4248
12242TIP3   OH258216   2.810   3.215  14.344  0.3942  0.0547 -0.0382
12242TIP3    H158217   2.783   3.125  14.326 -0.4452  0.5339 -1.2814
12242TIP3    H258218   2.906   3.211  14.346  0.3753 -0.8047 -0.3412
12243TIP3   OH258219   5.640   0.871  14.569  0.2729  0.4592  0.1976
12243TIP3    H158220   5.608   0.949  14.524 -1.9678  0.0021  0.8653
12243TIP3    H258221   5.670   0.813  14.499 -0.4734  0.8885 -0.4975
12244TIP3   OH258222   3.573   1.448  11.568 -0.0944 -0.1860  0.1155
12244TIP3    H158223   3.561   1.481  11.479 -0.8096 -1.3349 -0.2307
12244TIP3    H258224   3.616   1.520  11.614 -0.3595  0.6980 -0.9641
12245TIP3   OH258225   1.426   3.678   5.268 -0.0952 -0.2519 -0.5657
12245TIP3    H158226   1.353   3.740   5.277 -1.1929 -1.6015  0.3429
12245TIP3    H258227   1.443   3.648   5.358  1.1648 -0.4292 -0.8506
12246TIP3   OH258228   2.852   0.231   0.261  0.1062 -0.0952  0.2801
12246TIP3    H158229   2.920   0.219   0.328 -0.4896  1.0589  1.1291
12246TIP3    H258230   2.892   0.198   0.181  1.3067 -0.3583  0.9530
12247TIP3   OH258231   0.541   2.865  12.276  0.1928  0.5697  0.4523
12247TIP3    H158232   0.518   2.883  12.185 -0.8521 -2.5105  0.0015
12247TIP3    H258233   0.459   2.836  12.316  1.2474 -1.1014  1.5127
12248TIP3   OH258234   2.929   1.694   5.582 -0.2266  0.5117  0.3281
12248TIP3    H158235   2.934   1.741   5.499  1.6291 -0.2384 -0.0194
12248TIP3    H258236   2.911   1.603   5.557 -0.6225  0.4507  0.8157
12249TIP3   OH258237   1.359   5.530   1.911  0.2752  0.4147 -0.0477
12249TIP3    H158238   1.420   5.466   1.875  0.3033 -0.7142  1.8289
12249TIP3    H258239   1.285   5.477   1.941 -1.2706  1.6592 -1.4662
12250TIP3   OH258240   4.037   3.697  12.975 -0.3792  0.0096  0.1312
12250TIP3    H158241   3.956   3.676  12.927  0.4348 -0.0700 -1.2765
12250TIP3    H258242   4.063   3.783  12.941  0.9094 -0.6251 -0.5659
12251TIP3   OH258243   2.614   1.373   2.175  0.2111  0.1203  0.8539
12251TIP3    H158244   2.585   1.352   2.086  0.1828  1.5491  0.5089
12251TIP3    H258245   2.563   1.315   2.231 -0.8156  0.2087  0.0289
12252TIP3   OH258246   1.469   2.009   4.033  0.2808  0.0048 -0.2378
12252TIP3    H158247   1.501   2.095   4.004  0.3323 -0.1052 -0.5091
12252TIP3    H258248   1.478   2.012   4.128  0.7657  0.1143 -0.2808
12253TIP3   OH258249   4.422   4.603  14.685 -0.0674 -0.2624 -0.0205
12253TIP3    H158250   4.368   4.640  14.615  2.1086  3.3636  0.0046
12253TIP3    H258251   4.474   4.535  14.641 -0.8718 -0.1331 -1.2221
12254TIP3   OH258252   1.693   3.199   0.704 -0.4607  0.6360  0.0757
12254TIP3    H158253   1.772   3.157   0.670 -1.4485 -0.1882 -1.3239
12254TIP3    H258254   1.720   3.289   0.725  0.9293  0.2430  0.0219
12255TIP3   OH258255   4.244   0.105  14.059  0.4812 -0.2464  0.0561
12255TIP3    H158256   4.170   0.082  14.115  0.0049  0.2285 -0.3656
12255TIP3    H258257   4.226   0.061  13.976 -0.5257  1.7191 -0.8165
12256TIP3   OH258258   1.733   3.037  11.248 -0.3774 -0.4353  0.2808
12256TIP3    H158259   1.725   3.037  11.344 -2.6911 -1.2875  0.1610
12256TIP3    H258260   1.776   2.954  11.228 -0.1046 -0.3664  0.5698
12257TIP3   OH258261   5.436   3.983  16.833  0.4424  0.2865  0.5424
12257TIP3    H158262   5.454   3.974  16.740 -0.0752 -0.2079  0.4869
12257TIP3    H258263   5.520   3.963  16.875  0.3888 -0.6550  0.2288
12258TIP3   OH258264   0.245   2.947   3.712  1.2010 -0.5933  0.3645
12258TIP3    H158265   0.311   2.932   3.645  2.3248 -0.5791  1.4290
12258TIP3    H258266   0.266   2.883   3.781  1.0108  0.3737  1.3514
12259TIP3   OH258267   0.047   6.320  16.949 -0.1781  0.1330 -0.0090
12259TIP3    H158268   0.005   6.277  17.024 -0.5237 -1.8570 -1.2751
12259TIP3    H258269   0.103   6.387  16.988  0.8823 -1.8806  2.1521
12260TIP3   OH258270   1.045   0.161  11.159 -1.2761  0.2676  0.1686
12260TIP3    H158271   1.096   0.171  11.238  0.3801 -0.3923 -0.7759
12260TIP3    H258272   1.107   0.129  11.093 -2.9637 -0.9088 -0.9415
12261TIP3   OH258273   5.169   2.386  16.382 -0.1399 -0.2108  0.1691
12261TIP3    H158274   5.244   2.327  16.376 -0.3181 -0.6467  1.7327
12261TIP3    H258275   5.201   2.460  16.433 -0.6832 -0.2637  0.5956
12262TIP3   OH258276   5.531   5.897   4.902 -0.4443  0.1580  0.5523
12262TIP3    H158277   5.475   5.873   4.829  1.7779  0.9583 -1.5359
12262TIP3    H258278   5.471   5.909   4.975 -2.5653 -2.4829 -0.6146
12263TIP3   OH258279   2.057   1.628  11.412  0.1801 -0.0747  0.0211
12263TIP3    H158280   2.152   1.640  11.412  0.3525 -1.1254 -1.5489
12263TIP3    H258281   2.032   1.634  11.320 -1.2976  0.2314  0.4178
12264TIP3   OH258282   4.414   1.978  13.921 -0.1253 -0.3743  0.5009
12264TIP3    H158283   4.453   1.904  13.875  0.0652 -0.3985  0.7011
12264TIP3    H258284   4.426   1.958  14.014 -3.3579 -1.9353  0.7444
12265TIP3   OH258285   0.863   4.757   0.068 -0.8526 -0.0810 -0.1112
12265TIP3    H158286   0.921   4.786  -0.003  0.1175 -1.0688  0.2477
12265TIP3    H258287   0.778   4.747   0.026 -0.5701  0.5421 -0.8571
12266TIP3   OH258288   4.734   4.333   3.710  0.4986 -0.1998 -0.3219
12266TIP3    H158289   4.812   4.369   3.666  0.9291 -0.3744  0.2740
12266TIP3    H258290   4.732   4.242   3.684  0.3664 -0.1381 -0.5209
12267TIP3   OH258291   0.954   6.213   4.702  0.4628 -0.0137  0.3453
12267TIP3    H158292   0.885   6.272   4.671  0.1213 -1.3000 -1.4824
12267TIP3    H258293   1.010   6.269   4.756  0.4953  2.1853 -1.7886
12268TIP3   OH258294   6.282   4.450   4.043 -0.0569 -0.4906 -0.1302
12268TIP3    H158295   6.222   4.502   3.989 -0.0385 -1.8097 -1.4635
12268TIP3    H258296   6.354   4.427   3.985  1.0245 -0.2243  1.0373
12269TIP3   OH258297   3.778   5.300   4.687  0.2153 -0.2159 -0.3465
12269TIP3    H158298   3.841   5.345   4.631  1.6070 -1.7827 -0.1182
12269TIP3    H258299   3.779   5.209   4.657 -2.1511 -0.2664 -0.4877
12270TIP3   OH258300   4.838   3.024   2.346 -0.6462 -0.3125  0.2614
12270TIP3    H158301   4.844   2.929   2.336  0.1510 -0.2944  0.5527
12270TIP3    H258302   4.746   3.044   2.326 -1.1836 -1.3144  1.5802
12271TIP3   OH258303   1.268   3.337   4.632  0.1248  0.1256  0.5763
12271TIP3    H158304   1.336   3.387   4.676  0.3958  0.6348 -0.3975
12271TIP3    H258305   1.196   3.399   4.622  0.8785  0.7318 -1.6631
12272TIP3   OH258306   3.906   2.086   5.573  0.4434 -0.2182  0.3258
12272TIP3    H158307   3.976   2.104   5.636  0.3706 -0.7588  0.5692
12272TIP3    H258308   3.826   2.115   5.618  0.1862 -2.1014  1.1811
12273TIP3   OH258309   4.564   4.424  14.114  0.0619 -0.1934 -0.0301
12273TIP3    H158310   4.558   4.356  14.181 -0.8725 -0.1993 -0.1071
12273TIP3    H258311   4.482   4.416  14.065  0.2333  0.5639 -0.4477
12274TIP3   OH258312   1.489   3.581  13.522  0.6222 -0.0502 -0.0967
12274TIP3    H158313   1.439   3.662  13.534  0.2391  0.0173 -1.8155
12274TIP3    H258314   1.457   3.523  13.591  0.7084  1.1534  0.9891
12275TIP3   OH258315   2.332   6.280   0.873  0.2118 -0.4120 -0.0079
12275TIP3    H158316   2.296   6.344   0.812 -1.9987 -2.6149 -1.2385
12275TIP3    H258317   2.267   6.274   0.943 -0.6557 -2.5435 -0.8902
12276TIP3   OH258318   6.249   5.591  12.521  0.5129 -0.6052  0.2384
12276TIP3    H158319   6.160   5.577  12.552 -0.4404  1.3627 -1.3160
12276TIP3    H258320   6.279   5.504  12.494 -2.4617 -0.9353 -2.8136
12277TIP3   OH258321   6.041   5.285   6.120  0.0982 -0.5102  0.7562
12277TIP3    H158322   5.989   5.207   6.139  1.6714 -1.8349 -0.0780
12277TIP3    H258323   6.131   5.253   6.115  1.4019  1.9640  4.1786
12278TIP3   OH258324   0.209   0.730   3.965  0.4308  0.5726 -0.3932
12278TIP3    H158325   0.193   0.681   4.046  0.3856  0.5963 -0.3876
12278TIP3    H258326   0.253   0.810   3.993  0.6041  0.4860 -0.4133
12279TIP3   OH258327   4.371   4.290   4.010 -0.1684  0.3924 -0.4949
12279TIP3    H158328   4.336   4.283   3.921  1.3504  0.2702 -1.1068
12279TIP3    H258329   4.309   4.347   4.055 -1.2191  0.0926 -1.4893
12280TIP3   OH258330   1.297   6.808  16.471 -0.0911  0.2589 -0.2662
12280TIP3    H158331   1.340   6.723  16.473  1.0813  0.8447  0.2075
12280TIP3    H258332   1.309   6.839  16.381  0.5334  0.4354 -0.1268
12281TIP3   OH258333   5.190   5.535   4.992 -0.1935 -0.1330  0.2255
12281TIP3    H158334   5.181   5.464   5.056 -1.7259 -0.6038 -0.4494
12281TIP3    H258335   5.126   5.514   4.924  1.6910  0.1178 -1.7164
12282TIP3   OH258336   1.364   2.923  13.708 -0.3303 -0.3861 -0.2384
12282TIP3    H158337   1.421   2.996  13.684 -1.6717  0.6383 -0.4544
12282TIP3    H258338   1.423   2.851  13.728  1.0006  0.2659 -1.6294
12283TIP3   OH258339   1.101   2.996   2.837  0.1101  0.0643  0.0640
12283TIP3    H158340   1.086   3.085   2.805  3.0063  0.6003 -0.0612
12283TIP3    H258341   1.039   2.987   2.910 -0.3731  2.1293 -0.0171
12284TIP3   OH258342   5.179   1.398   2.599  0.2841  0.2955  0.0802
12284TIP3    H158343   5.211   1.392   2.689  0.8316  0.2617 -0.1144
12284TIP3    H258344   5.180   1.307   2.567 -0.9463  0.1565  0.3885
12285TIP3   OH258345   4.718   3.164  11.827  0.0925 -0.2230 -0.3361
12285TIP3    H158346   4.793   3.133  11.775  2.1992  3.8483 -0.1539
12285TIP3    H258347   4.756   3.190  11.911 -2.1752 -0.8661  0.9835
12286TIP3   OH258348   6.215   6.726   1.236 -0.0960 -0.3495 -0.0051
12286TIP3    H158349   6.265   6.689   1.309 -0.1136  0.8520  0.6414
12286TIP3    H258350   6.266   6.704   1.158 -0.0108 -1.5333  0.3615
12287TIP3   OH258351   5.606   5.674  11.811  0.2394  0.2948  0.4549
12287TIP3    H158352   5.667   5.605  11.836  0.9794  0.8507  0.2255
12287TIP3    H258353   5.627   5.694  11.720 -0.1993  0.5866  0.4117
12288TIP3   OH258354   0.334   0.927  14.427  1.1731 -1.1168  0.3507
12288TIP3    H158355   0.283   0.884  14.496  1.2801  0.7797  1.6919
12288TIP3    H258356   0.338   0.863  14.356 -0.1535 -2.6017  1.5546
12289TIP3   OH258357   5.046   0.330   1.947 -0.1444  0.1162 -0.0599
12289TIP3    H158358   5.087   0.255   1.989 -1.2228  0.1538  1.1215
12289TIP3    H258359   5.060   0.316   1.853 -0.4139 -1.6115  0.1293
12290TIP3   OH258360   5.893   1.345  13.384  0.0066 -0.3700 -0.2594
12290TIP3    H158361   5.840   1.399  13.442  0.1776  0.1857 -0.6121
12290TIP3    H258362   5.898   1.395  13.302 -1.5822 -1.8606 -1.3335
12291TIP3   OH258363   3.160   5.390  15.361  0.2751 -0.5429  0.1135
12291TIP3    H158364   3.096   5.450  15.398 -0.7458 -1.2119 -0.5226
12291TIP3    H258365   3.235   5.445  15.339  0.1532  0.1602  1.3728
12292TIP3   OH258366   5.622   0.264  16.544 -0.7695  0.3042 -0.0979
12292TIP3    H158367   5.633   0.358  16.559  0.5582 -0.0579  1.5652
12292TIP3    H258368   5.657   0.250  16.456 -1.2351  1.3973 -0.4742
12293TIP3   OH258369   6.244   3.988  16.807  0.1086 -0.0971  0.1295
12293TIP3    H158370   6.173   4.050  16.794 -1.0038 -1.1945  0.7452
12293TIP3    H258371   6.260   3.988  16.901 -0.1367 -0.9714  0.1807
12294TIP3   OH258372   4.803   5.100   2.730  0.5059 -0.1979  0.4379
12294TIP3    H158373   4.895   5.120   2.718  0.8059  0.4531  3.3314
12294TIP3    H258374   4.757   5.169   2.683  1.4077 -0.9685 -1.7090
12295TIP3   OH258375   1.805   5.541  15.798  0.4626 -0.0227 -0.2605
12295TIP3    H158376   1.841   5.533  15.710  1.4472  1.0508  0.0252
12295TIP3    H258377   1.865   5.490  15.853 -0.3670 -1.0171 -0.2444
12296TIP3   OH258378   1.787   6.261   4.515  0.0381 -0.0982 -0.1706
12296TIP3    H158379   1.735   6.203   4.461  0.1480 -0.7112  0.3807
12296TIP3    H258380   1.877   6.228   4.506  0.0469 -0.2429  0.4383
12297TIP3   OH258381   6.395   3.307  12.919  1.2556  1.0203 -0.0650
12297TIP3    H158382   6.410   3.401  12.906  0.7268  1.0441 -0.5303
12297TIP3    H258383   6.398   3.269  12.831  0.0899  0.8143 -0.0371
12298TIP3   OH258384   5.812   0.374   1.501  0.0316  0.3108 -0.1831
12298TIP3    H158385   5.843   0.347   1.415  2.2100  2.0098 -0.0413
12298TIP3    H258386   5.744   0.311   1.524  0.8525 -1.4329 -2.2391
12299TIP3   OH258387   2.548   2.871   4.788  0.5899  0.1733  0.6257
12299TIP3    H158388   2.506   2.946   4.747  1.3556  0.7697  0.9243
12299TIP3    H258389   2.516   2.796   4.737  1.8559  0.9148 -1.3852
12300TIP3   OH258390   0.624   3.025  16.043  0.2261  0.1935  0.0630
12300TIP3    H158391   0.664   2.970  15.976  0.8275  0.4195  0.2303
12300TIP3    H258392   0.635   3.114  16.009  2.4204  0.5056  1.3851
12301TIP3   OH258393   3.413   3.726   0.256 -0.0215  0.3167 -0.3154
12301TIP3    H158394   3.333   3.712   0.308  0.3657  1.0817  0.5132
12301TIP3    H258395   3.453   3.804   0.294  2.2556 -1.2512  0.7301
12302TIP3   OH258396   6.390   0.595  14.947 -0.4235 -0.5623  0.3689
12302TIP3    H158397   6.468   0.577  14.894  0.3130 -0.6943  1.4444
12302TIP3    H258398   6.403   0.542  15.026  0.2471  2.1730  2.2392
12303TIP3   OH258399   5.608   1.953  14.411 -0.3115 -0.1948 -0.1813
12303TIP3    H158400   5.626   1.964  14.504  1.5953  3.3243 -0.8262
12303TIP3    H258401   5.686   1.910  14.376  0.3846  1.3521 -0.5966
12304TIP3   OH258402   3.377   2.544  11.221  0.6108 -0.3302  0.3825
12304TIP3    H158403   3.441   2.479  11.192 -0.4621 -1.6747  0.9027
12304TIP3    H258404   3.297   2.520  11.174  1.0504  3.0124 -2.4846
12305TIP3   OH258405   0.522   4.809  12.531  0.1727 -0.3422 -0.0748
12305TIP3    H158406   0.524   4.864  12.609 -1.2677 -0.5330  0.1285
12305TIP3    H258407   0.518   4.871  12.458 -0.9600 -0.1368  0.1337
12306TIP3   OH258408   0.126   2.888  13.246  0.0175 -0.2007  0.7204
12306TIP3    H158409   0.050   2.939  13.219 -0.6049 -1.2413  0.4392
12306TIP3    H258410   0.103   2.854  13.332  0.7913  0.6853  1.3004
12307TIP3   OH258411   1.498   6.402  13.438 -0.3165 -0.3739  0.0842
12307TIP3    H158412   1.506   6.393  13.533 -1.7233 -2.3574  0.0908
12307TIP3    H258413   1.522   6.315  13.404  1.0317  0.5427 -1.4776
12308TIP3   OH258414   4.458   6.624  14.869  0.8193 -0.0192  0.3789
12308TIP3    H158415   4.439   6.676  14.791 -0.0880  0.4516  0.9013
12308TIP3    H258416   4.457   6.533  14.838 -0.1371  0.1235 -0.0438
12309TIP3   OH258417   3.693   4.328  14.846 -0.2576 -0.6160  0.2449
12309TIP3    H158418   3.666   4.301  14.935 -0.7589 -0.4447  0.1512
12309TIP3    H258419   3.752   4.259  14.817 -1.8484 -1.8782 -0.1540
12310TIP3   OH258420   1.384   4.011   0.588  0.1868  0.1242  0.2415
12310TIP3    H158421   1.342   3.926   0.596  1.8267 -0.8327 -0.6807
12310TIP3    H258422   1.450   3.999   0.519  0.9458  1.9440  0.5845
12311TIP3   OH258423   1.071   2.409  12.194 -0.5922 -0.2955  0.4151
12311TIP3    H158424   1.061   2.496  12.156  0.6592 -0.6412 -0.8000
12311TIP3    H258425   1.015   2.410  12.272  1.3450  2.4328  1.9350
12312TIP3   OH258426   5.118   1.735  16.133  0.2342  0.2472 -0.2570
12312TIP3    H158427   5.121   1.641  16.154  1.6293  0.6315  1.5239
12312TIP3    H258428   5.201   1.769  16.167  0.1525  1.9936 -1.6854
12313TIP3   OH258429   2.058   1.387  11.201  0.5886 -0.4758 -0.0263
12313TIP3    H158430   2.139   1.435  11.184  0.0674  0.4235 -0.0377
12313TIP3    H258431   1.991   1.455  11.207 -0.0463 -1.1492  0.7255
12314TIP3   OH258432   5.417   4.187   0.898 -0.6345  0.2843  0.0374
12314TIP3    H158433   5.433   4.181   0.992 -0.5455  1.1676  0.0832
12314TIP3    H258434   5.470   4.261   0.869 -0.6943  0.0475 -0.7041
12315TIP3   OH258435   0.413   6.496  11.880  0.0811  0.2688 -0.7455
12315TIP3    H158436   0.471   6.475  11.953  1.7109  1.1584 -1.7372
12315TIP3    H258437   0.325   6.485  11.917  0.8201 -1.2261  0.7726
12316TIP3   OH258438   5.115   0.810   5.333  0.3555  0.6736 -0.0116
12316TIP3    H158439   5.203   0.774   5.342  0.2012  0.1457 -0.5210
12316TIP3    H258440   5.060   0.734   5.314 -0.4372  0.8012  1.5910
12317TIP3   OH258441   6.033   5.529  15.590 -0.5052  0.0685 -0.5440
12317TIP3    H158442   6.024   5.476  15.669 -0.1046 -0.5869 -0.9252
12317TIP3    H258443   5.964   5.497  15.532 -1.0249  0.7884 -0.3391
12318TIP3   OH258444   1.178   0.448  13.913  0.5946  0.0486  0.3180
12318TIP3    H158445   1.243   0.390  13.872  1.7296  0.4069  1.5271
12318TIP3    H258446   1.206   0.454  14.004 -1.2793  0.0781  0.9231
12319TIP3   OH258447   6.146   4.607  10.842 -0.5075 -0.1289 -0.5282
12319TIP3    H158448   6.198   4.589  10.763 -0.0321 -0.1163 -0.2230
12319TIP3    H258449   6.099   4.526  10.859  0.6562 -0.6963  0.1138
12320TIP3   OH258450   6.034   3.515  16.141 -0.2592 -0.4649  1.0426
12320TIP3    H158451   6.030   3.419  16.133 -0.7626 -0.3626 -0.2304
12320TIP3    H258452   5.958   3.546  16.090  2.0682  0.7392 -2.0007
12321TIP3   OH258453   4.991   2.795   4.878 -0.0210 -0.1962 -0.0619
12321TIP3    H158454   4.912   2.781   4.826  0.0907 -2.1908  0.2503
12321TIP3    H258455   4.959   2.806   4.968  0.0417 -0.9996  0.0639
12322TIP3   OH258456   0.201   3.376   1.284  0.4233 -0.3705  0.3197
12322TIP3    H158457   0.248   3.293   1.297 -0.2232 -0.7834  0.0420
12322TIP3    H258458   0.206   3.391   1.190 -0.7596 -0.8840  0.1523
12323TIP3   OH258459   6.506   0.968   1.399  0.0950  0.4577 -0.9719
12323TIP3    H158460   6.581   1.009   1.443  0.5340 -0.5060 -0.8028
12323TIP3    H258461   6.480   0.897   1.457 -1.0423  0.8552 -0.9757
12324TIP3   OH258462   2.539   0.633  13.977  0.0148 -0.7251 -0.7935
12324TIP3    H158463   2.518   0.544  13.948 -1.2316 -0.3368 -1.1537
12324TIP3    H258464   2.628   0.648  13.946  0.0649 -1.6829 -1.1373
12325TIP3   OH258465   3.307   4.540   1.559 -0.0833 -0.4993 -0.4670
12325TIP3    H158466   3.373   4.599   1.595  1.0795 -2.6469  1.1880
12325TIP3    H258467   3.240   4.598   1.521  1.1961  1.8093  0.6056
12326TIP3   OH258468   3.102   0.574  17.034  0.4656  0.5747  0.2227
12326TIP3    H158469   3.076   0.548  17.122  1.3102 -0.4400  0.1962
12326TIP3    H258470   3.099   0.493  16.983  1.5230  0.8379 -0.2892
12327TIP3   OH258471   0.300   0.261  12.610  0.1595 -0.3768 -0.1617
12327TIP3    H158472   0.357   0.191  12.579  0.6430  0.0418 -0.2299
12327TIP3    H258473   0.357   0.318  12.663 -0.1225  0.1946 -0.4561
12328TIP3   OH258474   1.988   2.602  15.038 -0.0433 -0.0009  0.3858
12328TIP3    H158475   2.017   2.533  14.979  0.1905 -0.2353  0.7666
12328TIP3    H258476   2.020   2.683  14.998 -0.7820 -0.0579 -0.3402
12329TIP3   OH258477   6.837   6.578  16.509  0.5408  0.1707  0.1069
12329TIP3    H158478   6.881   6.501  16.472  1.5005  1.3172 -1.2897
12329TIP3    H258479   6.895   6.606  16.580 -0.0879 -0.6810  0.9748
12330TIP3   OH258480   6.403   1.576  11.464  0.0179 -0.2964  0.2103
12330TIP3    H158481   6.391   1.653  11.409 -0.1307 -0.1405  0.4615
12330TIP3    H258482   6.342   1.512  11.428 -1.1772  0.2946  1.1031
12331TIP3   OH258483   2.336   5.407  15.880  0.3452  0.0589 -0.3517
12331TIP3    H158484   2.297   5.488  15.845  1.0499  1.0570  1.0728
12331TIP3    H258485   2.268   5.341  15.867 -0.9653  1.2711  0.0558
12332TIP3   OH258486   1.718   5.936   4.617 -0.0094  0.7464 -0.3871
12332TIP3    H158487   1.796   5.977   4.655  1.0311 -0.0866 -1.5144
12332TIP3    H258488   1.698   5.990   4.541  0.5709 -0.0338 -1.1179
12333TIP3   OH258489   6.302   4.169  11.482 -0.1750 -1.0206  0.2529
12333TIP3    H158490   6.240   4.241  11.475 -1.2266 -1.9278  0.1103
12333TIP3    H258491   6.377   4.207  11.529 -1.0332 -0.0469  0.8820
12334TIP3   OH258492   0.526   5.212   4.193  0.2727  0.3526  0.1587
12334TIP3    H158493   0.608   5.236   4.236  1.3193  1.8562 -2.4686
12334TIP3    H258494   0.488   5.296   4.165  0.8245 -0.5184 -3.7239
12335TIP3   OH258495   1.127   1.969   0.264 -0.0869 -0.0399 -0.2958
12335TIP3    H158496   1.086   2.043   0.308 -1.2703  0.1990 -1.7103
12335TIP3    H258497   1.150   1.909   0.334  2.3438  2.2844  1.0595
12336TIP3   OH258498   3.370   4.306   2.198  0.0992  0.2338 -0.3274
12336TIP3    H158499   3.377   4.362   2.276  0.0940 -1.8136  1.2335
12336TIP3    H258500   3.449   4.253   2.199  0.1578  0.2442 -1.8242
12337TIP3   OH258501   4.131   5.309  11.415 -0.1964  0.0507 -0.0988
12337TIP3    H158502   4.171   5.384  11.457 -2.8762  0.8617  1.1508
12337TIP3    H258503   4.170   5.307  11.327  1.3155  1.7050  0.4924
12338TIP3   OH258504   3.629   2.950  12.659  0.1579 -0.5621 -0.1577
12338TIP3    H158505   3.560   3.016  12.662  0.1913 -0.5744  2.3790
12338TIP3    H258506   3.665   2.948  12.748  2.5206 -1.5242 -1.0391
12339TIP3   OH258507   5.044   5.044   4.657  0.0469 -0.5848  0.0028
12339TIP3    H158508   4.988   4.975   4.694  0.4333 -0.8844  0.0398
12339TIP3    H258509   5.064   5.014   4.569  0.8303 -0.8927  0.2773
12340TIP3   OH258510   0.731   0.858   6.042  0.1438 -0.1043  0.7659
12340TIP3    H158511   0.822   0.881   6.061  0.7790 -1.2424 -0.6981
12340TIP3    H258512   0.683   0.939   6.052  1.7922  1.2191 -1.2770
12341TIP3   OH258513   3.768   5.805  14.512 -0.5841  0.9211  0.4348
12341TIP3    H158514   3.838   5.852  14.559 -1.2688 -0.0470  2.5421
12341TIP3    H258515   3.688   5.852  14.536 -0.9051  0.6635 -0.1290
12342TIP3   OH258516   6.468   2.109   4.196 -0.2229  0.6000 -0.0338
12342TIP3    H158517   6.412   2.034   4.175  0.1289  0.6543 -1.2841
12342TIP3    H258518   6.415   2.185   4.173 -0.5405  0.7414  1.1356
12343TIP3   OH258519   5.949   5.254  14.823  0.4199  0.0300 -0.1813
12343TIP3    H158520   5.940   5.232  14.916  0.1752 -0.1162 -0.2407
12343TIP3    H258521   5.972   5.347  14.824 -0.7333  0.3317 -0.0092
12344TIP3   OH258522   6.419   3.580  11.907 -0.8955  0.3727 -0.0463
12344TIP3    H158523   6.346   3.521  11.924 -1.0490  0.9514  1.4185
12344TIP3    H258524   6.456   3.598  11.993  0.6244  0.5455 -0.7076
12345TIP3   OH258525   0.672   4.977   2.182  0.4788 -0.1094 -0.4031
12345TIP3    H158526   0.641   4.945   2.097 -0.0776  0.6544 -0.5004
12345TIP3    H258527   0.660   4.903   2.242  0.6447 -0.5721 -0.9365
12346TIP3   OH258528   5.435   3.315   0.256  0.3292  0.1720 -0.0505
12346TIP3    H158529   5.458   3.370   0.330 -2.5225 -0.6111  1.5488
12346TIP3    H258530   5.420   3.228   0.293 -0.6301 -0.3901 -1.6314
12347TIP3   OH258531   3.768   2.795  16.765 -0.2638  0.6594 -0.6022
12347TIP3    H158532   3.743   2.703  16.766 -0.5595  0.6658 -2.9241
12347TIP3    H258533   3.686   2.842  16.778  0.0102  0.6370  1.5037
12348TIP3   OH258534   2.790   6.604   3.386  0.0852 -0.0219  0.1020
12348TIP3    H158535   2.771   6.525   3.436 -2.9120 -0.6302 -1.7457
12348TIP3    H258536   2.715   6.661   3.402 -0.4947  0.1514 -2.7577
12349TIP3   OH258537   5.467   0.013   1.723 -0.2671 -0.4392 -1.0710
12349TIP3    H158538   5.426   0.004   1.809  1.5890  0.6030 -0.0012
12349TIP3    H258539   5.432  -0.059   1.671 -1.3873 -1.1243  0.5787
12350TIP3   OH258540   3.779   2.304   2.056 -0.1680 -0.1797  0.1784
12350TIP3    H158541   3.816   2.217   2.039 -0.2634 -0.6325  2.0494
12350TIP3    H258542   3.824   2.361   1.994  0.8978 -1.3475 -0.1785
12351TIP3   OH258543   2.499   6.484   2.454 -0.3403  0.3567 -0.0276
12351TIP3    H158544   2.481   6.399   2.412  0.1941 -0.4845  1.3722
12351TIP3    H258545   2.534   6.461   2.540 -0.1342  2.0177  0.3620
12352TIP3   OH258546   1.484   0.745  13.433  0.5203 -0.3913  0.4060
12352TIP3    H158547   1.564   0.781  13.472  0.6339 -0.2606  0.0577
12352TIP3    H258548   1.486   0.652  13.456  1.3051 -0.6148 -0.4547
12353TIP3   OH258549   4.158   4.234   0.025  0.0355 -0.5053  0.2167
12353TIP3    H158550   4.070   4.230   0.064  0.0443 -0.4629  0.2407
12353TIP3    H258551   4.174   4.327   0.012  0.9905 -0.3364  2.2640
12354TIP3   OH258552   3.744   3.562  13.351  0.2922 -0.1587  0.0517
12354TIP3    H158553   3.754   3.656  13.339  0.4077 -0.3194 -1.3310
12354TIP3    H258554   3.830   3.526  13.327 -0.0787 -0.6901 -0.5201
12355TIP3   OH258555   0.182   2.489  11.390  0.4631  0.2341  0.0416
12355TIP3    H158556   0.189   2.554  11.319  0.0247  1.6541  1.2493
12355TIP3    H258557   0.273   2.462  11.406  0.6430  0.4759 -0.5292
12356TIP3   OH258558   3.552   0.799   3.268  0.3022 -0.5346  0.1370
12356TIP3    H158559   3.594   0.875   3.229  0.4268 -1.1635 -1.0109
12356TIP3    H258560   3.464   0.828   3.289  0.2452 -0.1600 -0.5888
12357TIP3   OH258561   6.444   0.081   4.840  0.1360  0.1446 -0.0869
12357TIP3    H158562   6.466  -0.010   4.859  1.3753  0.5060  0.3095
12357TIP3    H258563   6.502   0.132   4.897 -0.0957  1.1834 -0.7512
12358TIP3   OH258564   0.368   3.920  10.413 -0.3012 -0.5501  0.1036
12358TIP3    H158565   0.307   3.993  10.415 -1.8259 -1.7675  1.6592
12358TIP3    H258566   0.454   3.959  10.429 -1.3244  0.7272  3.2310
12359TIP3   OH258567   5.695   2.716   4.713 -1.3332 -0.8791  0.1434
12359TIP3    H158568   5.701   2.645   4.778 -0.6499 -1.0613 -0.1174
12359TIP3    H258569   5.675   2.794   4.765  0.3751 -0.7946  0.7360
12360TIP3   OH258570   0.849   6.199  13.118 -0.0237 -0.0525 -0.1571
12360TIP3    H158571   0.773   6.171  13.067  1.2034 -1.8834 -1.0947
12360TIP3    H258572   0.889   6.268  13.065 -0.8099  0.7056  0.1960
12361TIP3   OH258573   3.839   6.598   0.253  0.2164 -0.4366 -0.1740
12361TIP3    H158574   3.773   6.538   0.290 -0.0627 -0.8674 -1.3380
12361TIP3    H258575   3.922   6.553   0.267  0.2696  0.0201  1.1262
12362TIP3   OH258576   4.043   5.401   0.210 -0.1691  0.5544  0.7185
12362TIP3    H158577   4.111   5.400   0.142  1.7530  0.8555  2.5221
12362TIP3    H258578   3.969   5.447   0.170  0.4973 -0.2018 -1.4818
12363TIP3   OH258579   5.586   6.801   0.048 -0.0753 -0.4769 -0.0536
12363TIP3    H158580   5.669   6.760   0.073 -0.7017 -0.4375  2.3185
12363TIP3    H258581   5.531   6.728   0.020  0.5523 -0.5680 -1.0954
12364TIP3   OH258582   2.330   2.751   0.407  0.5513 -0.1748  0.2413
12364TIP3    H158583   2.269   2.825   0.401  1.4460  0.6315  0.8216
12364TIP3    H258584   2.381   2.756   0.326  0.1634 -0.5740 -0.0322
12365TIP3   OH258585   1.680   3.511  16.540  0.1655 -0.2670  0.0899
12365TIP3    H158586   1.656   3.464  16.620 -0.0231 -1.5008 -0.6600
12365TIP3    H258587   1.753   3.567  16.566 -1.9215  1.8286  1.8839
12366TIP3   OH258588   1.163   5.113   2.812  0.2027  0.3416  0.2079
12366TIP3    H158589   1.089   5.082   2.864 -0.0195 -0.3098 -0.4680
12366TIP3    H258590   1.122   5.147   2.731  0.6137  0.3251 -0.0092
12367TIP3   OH258591   2.476   2.254   4.780  0.0996  0.1543  0.1211
12367TIP3    H158592   2.530   2.304   4.840 -0.7674  0.8220  0.3681
12367TIP3    H258593   2.386   2.281   4.800 -0.2578 -0.1760 -0.9590
12368TIP3   OH258594   1.496   2.071  12.290  0.7200 -0.8395 -0.2202
12368TIP3    H158595   1.492   2.061  12.195  2.0013  1.2675 -0.5497
12368TIP3    H258596   1.511   2.164  12.304  1.3737 -1.2284  2.0308
12369TIP3   OH258597   2.329   4.124  12.522  0.0401  0.2119 -0.6566
12369TIP3    H158598   2.347   4.214  12.551  1.0126 -0.4934  1.1386
12369TIP3    H258599   2.331   4.129  12.427  1.3493  1.8733 -0.6077
12370TIP3   OH258600   6.232   5.811  11.635 -0.4051 -0.5108  0.2813
12370TIP3    H158601   6.217   5.722  11.668  1.1691 -1.1774 -0.6811
12370TIP3    H258602   6.145   5.841  11.608 -0.7392 -2.4727 -1.0770
12371TIP3   OH258603   3.661   6.731   3.806 -0.0610 -0.1964 -0.3137
12371TIP3    H158604   3.574   6.695   3.791  0.1437 -1.0838  0.4810
12371TIP3    H258605   3.719   6.674   3.755  0.1489 -0.2242 -0.0468
12372TIP3   OH258606   2.126   6.440  13.513 -0.1583  0.4630 -0.2183
12372TIP3    H158607   2.163   6.493  13.584  1.4073 -0.8090 -0.0253
12372TIP3    H258608   2.033   6.433  13.535  0.2477  0.2565  1.6326
12373TIP3   OH258609   0.253   3.498   4.976 -0.0246 -0.0663 -0.4259
12373TIP3    H158610   0.261   3.593   4.970 -1.7483  0.2518  1.3504
12373TIP3    H258611   0.253   3.468   4.885 -3.4979  2.0513 -1.3106
12374TIP3   OH258612   2.553   2.455   4.388 -0.3610  0.1226 -0.3657
12374TIP3    H158613   2.635   2.505   4.387  0.4073 -0.9259 -3.6641
12374TIP3    H258614   2.564   2.394   4.461  1.2456  0.8498  0.0527
12375TIP3   OH258615   3.299   4.954   0.043 -0.1921  0.3024  0.4079
12375TIP3    H158616   3.297   5.050   0.042  0.6145  0.3329  1.1162
12375TIP3    H258617   3.272   4.929  -0.045 -1.1012  1.1628  0.4168
12376TIP3   OH258618   6.518   2.912  14.252 -0.0063 -0.1472  0.2191
12376TIP3    H158619   6.458   2.867  14.312  1.2211 -1.1632  0.7468
12376TIP3    H258620   6.512   2.862  14.171 -0.0030 -0.1468  0.2185
12377TIP3   OH258621   0.709   6.092   0.400  0.6279 -0.3423 -0.1422
12377TIP3    H158622   0.768   6.153   0.445  0.3356 -0.2545  0.1236
12377TIP3    H258623   0.623   6.134   0.404  0.4134 -0.7948  0.0817
12378TIP3   OH258624   4.909   0.280   0.413 -0.3124 -0.0904  0.4189
12378TIP3    H158625   4.916   0.339   0.488  0.4419  0.8841 -0.3746
12378TIP3    H258626   4.861   0.330   0.347 -0.2538 -0.6128 -0.0301
12379TIP3   OH258627   6.499   5.703   1.227 -0.4079  0.0278 -0.5896
12379TIP3    H158628   6.479   5.749   1.307 -0.1969 -1.7782  0.5696
12379TIP3    H258629   6.564   5.637   1.253 -1.0160 -1.2027 -2.0268
12380TIP3   OH258630   5.375   3.708  15.051 -0.4930  0.1491 -0.1047
12380TIP3    H158631   5.432   3.642  15.092 -1.8845 -0.0185  1.6752
12380TIP3    H258632   5.347   3.668  14.969  0.6556 -0.4286 -0.2342
12381TIP3   OH258633   1.446   3.638   3.884 -0.0283  0.1520  0.1687
12381TIP3    H158634   1.453   3.693   3.962 -1.1142 -0.5881  0.8143
12381TIP3    H258635   1.517   3.574   3.893  1.3852  1.5191 -0.6972
12382TIP3   OH258636   1.451   4.409   0.275 -0.3381 -0.5998 -0.1378
12382TIP3    H158637   1.359   4.388   0.290 -0.4609  0.2213  0.2969
12382TIP3    H258638   1.450   4.502   0.249  0.4402 -0.3556  0.6834
12383TIP3   OH258639   6.178   5.813  14.577  0.5363  0.3828 -0.0805
12383TIP3    H158640   6.206   5.904  14.587  2.3336 -0.1511 -0.0325
12383TIP3    H258641   6.219   5.784  14.496  0.0160 -0.4085 -0.0728
12384TIP3   OH258642   6.587   2.152  13.060 -0.5406 -0.2584 -0.5093
12384TIP3    H158643   6.618   2.242  13.060 -2.5630  0.5189 -2.3803
12384TIP3    H258644   6.661   2.101  13.095  1.2171  1.9030 -0.8847
12385TIP3   OH258645   3.213   2.132  12.758  0.2185  0.2816  0.2723
12385TIP3    H158646   3.194   2.144  12.851 -0.6334  1.4291 -0.0312
12385TIP3    H258647   3.243   2.042  12.751 -0.9825 -0.2442  1.4634
12386TIP3   OH258648   4.973   0.603  12.267 -0.1766  0.6378 -0.1811
12386TIP3    H158649   4.886   0.615  12.305 -0.9697  0.2694 -1.8192
12386TIP3    H258650   5.027   0.669  12.311 -1.1372  0.5470  1.2160
12387TIP3   OH258651   1.736   6.504  10.574 -0.0602  0.7938  0.0237
12387TIP3    H158652   1.829   6.493  10.596 -0.0098  0.9177 -0.1341
12387TIP3    H258653   1.735   6.567  10.502 -0.2087  0.1606 -0.5374
12388TIP3   OH258654   1.943   4.334  16.768  0.3034  0.3827 -0.4034
12388TIP3    H158655   1.978   4.419  16.742 -0.8215  0.2576 -2.5897
12388TIP3    H258656   1.850   4.338  16.743  0.2963 -1.5778 -0.8490
12389TIP3   OH258657   2.463   5.988  13.394 -0.2266  0.2376 -0.1286
12389TIP3    H158658   2.441   6.066  13.343 -0.7527 -0.3578 -0.8529
12389TIP3    H258659   2.427   5.915  13.342  0.3450 -0.4902  0.4739
12390TIP3   OH258660   4.392   3.194   4.008 -0.2900 -0.2221 -0.1099
12390TIP3    H158661   4.372   3.226   4.096  0.4148 -0.5199  0.1620
12390TIP3    H258662   4.371   3.100   4.011 -1.4005 -0.0166 -0.6175
12391TIP3   OH258663   0.767   1.947  15.177 -0.0907 -0.3297  0.0428
12391TIP3    H158664   0.818   1.873  15.210  1.5506  0.2767 -0.9910
12391TIP3    H258665   0.723   1.914  15.100  2.2972  0.2113 -1.6662
12392TIP3   OH258666   4.755   5.028   3.416  0.1870  0.4951  0.0355
12392TIP3    H158667   4.774   5.121   3.431 -0.0907  0.4917  0.4311
12392TIP3    H258668   4.678   5.028   3.359  0.1242  0.5094  0.1196
12393TIP3   OH258669   5.066   0.617  15.686 -0.3526  0.2616 -0.1209
12393TIP3    H158670   5.008   0.670  15.741 -0.0397 -0.6186  1.0895
12393TIP3    H258671   5.009   0.586  15.615 -0.0142  4.2122 -2.3862
12394TIP3   OH258672   0.265   6.201  14.531 -0.1458 -0.0816 -0.4920
12394TIP3    H158673   0.228   6.169  14.613  2.6737  0.9893  1.3260
12394TIP3    H258674   0.288   6.121  14.483 -0.5753 -0.7321  0.3505
12395TIP3   OH258675   5.491   5.912   3.031  0.4202 -0.4862  0.4533
12395TIP3    H158676   5.528   5.832   3.069 -0.0424 -0.7809  0.2828
12395TIP3    H258677   5.489   5.974   3.105  1.2108 -0.4748  0.4777
12396TIP3   OH258678   2.784   1.006  14.337  0.0396  0.8642 -0.2054
12396TIP3    H158679   2.836   1.028  14.414  0.5232 -0.5459 -0.0929
12396TIP3    H258680   2.848   0.998  14.266  0.2750 -2.1997  0.2085
12397TIP3   OH258681   3.926   6.260   6.906 -0.2848 -0.0644 -0.3873
12397TIP3    H158682   3.924   6.347   6.866 -2.8953  0.3873  0.5629
12397TIP3    H258683   4.019   6.239   6.912  0.3938  2.3432 -1.3017
12398TIP3   OH258684   6.349   3.429  16.177 -0.1533 -0.0779 -0.4887
12398TIP3    H158685   6.406   3.473  16.240  1.1304  0.5986 -2.0617
12398TIP3    H258686   6.266   3.476  16.182  0.5135  1.1374 -0.5931
12399TIP3   OH258687   5.330   0.351  15.393 -0.9390 -0.3223  0.3247
12399TIP3    H158688   5.307   0.391  15.477 -0.5841 -0.3368  0.4302
12399TIP3    H258689   5.381   0.274  15.417 -2.4112 -1.4055  0.1709
12400TIP3   OH258690   4.139   3.856  14.017  0.2979 -0.1627  0.0363
12400TIP3    H158691   4.092   3.775  13.999  0.8485 -0.7324  1.0276
12400TIP3    H258692   4.078   3.908  14.069  0.1460 -0.1766 -0.1272
12401TIP3   OH258693   2.874   5.153   3.606 -0.1633  0.6464  0.7411
12401TIP3    H158694   2.864   5.246   3.584  1.2088  1.1614  2.0399
12401TIP3    H258695   2.891   5.110   3.523 -2.3606  1.2887 -0.0860
12402TIP3   OH258696   0.175   3.429   4.737  0.1570  0.5177 -0.3358
12402TIP3    H158697   0.144   3.456   4.651 -1.3877  0.1064  0.0720
12402TIP3    H258698   0.105   3.374   4.772  0.3415  1.4215  1.5569
12403TIP3   OH258699   4.690   0.352  13.540  0.7633 -0.6188 -0.1985
12403TIP3    H158700   4.770   0.403  13.529 -0.2036  0.5656 -2.2901
12403TIP3    H258701   4.709   0.268  13.497  0.8574 -0.3168 -0.7463
12404TIP3   OH258702   1.633   0.010  13.186 -0.1633 -0.4844  0.0384
12404TIP3    H158703   1.551   0.028  13.231 -0.5386 -1.4785 -0.2365
12404TIP3    H258704   1.612  -0.058  13.123  0.8498 -0.6678 -0.1214
12405TIP3   OH258705   5.478   1.501   0.915 -0.4356 -0.1448 -0.3300
12405TIP3    H158706   5.383   1.505   0.902 -0.3573  1.1997 -0.6671
12405TIP3    H258707   5.498   1.583   0.960  0.5840 -0.3964 -0.3193
12406TIP3   OH258708   1.382   0.760  13.178  0.3918  0.2472  0.3217
12406TIP3    H158709   1.433   0.758  13.258  0.8790 -0.3677  0.0064
12406TIP3    H258710   1.292   0.777  13.206  0.6341  0.5106  0.9456
12407TIP3   OH258711   6.053   4.793  15.318 -0.8359 -0.0434  0.0527
12407TIP3    H158712   5.986   4.846  15.273 -0.4856  1.1197  0.8521
12407TIP3    H258713   6.114   4.768  15.249 -0.8392  0.8795 -0.3018
12408TIP3   OH258714   4.297   1.474  16.342  0.1719  0.0192  0.3596
12408TIP3    H158715   4.267   1.403  16.399  1.6656 -1.2628 -0.3458
12408TIP3    H258716   4.271   1.446  16.254  1.0788  0.1665  0.0358
12409TIP3   OH258717   1.457   0.870   0.034 -0.4132 -0.0429  0.1860
12409TIP3    H158718   1.469   0.781   0.001  0.1271  0.1570 -0.1604
12409TIP3    H258719   1.470   0.862   0.129  0.3587 -0.2070  0.0726
12410TIP3   OH258720   6.327   0.037   5.105 -0.1310 -0.2536  0.6594
12410TIP3    H158721   6.259   0.082   5.155 -1.0733  0.4698 -1.1613
12410TIP3    H258722   6.296   0.040   5.015  0.9612 -2.4582  0.1305
12411TIP3   OH258723   2.510   5.359  11.544  0.7538 -0.1390  0.3250
12411TIP3    H158724   2.498   5.268  11.515  0.8378 -0.1256  0.2484
12411TIP3    H258725   2.451   5.410  11.490 -0.1748 -0.2853  1.1688
12412TIP3   OH258726   0.745   6.188   3.601 -0.3252  0.0904 -0.0543
12412TIP3    H158727   0.719   6.278   3.617 -1.7695 -0.4834  1.1578
12412TIP3    H258728   0.716   6.141   3.679 -1.8917 -1.8319 -1.6677
12413TIP3   OH258729   2.261   2.783   4.865  0.1822 -0.3282 -0.4851
12413TIP3    H158730   2.296   2.720   4.928  0.7100 -0.3963 -0.8374
12413TIP3    H258731   2.222   2.729   4.796 -2.7896 -0.2903  1.0042
12414TIP3   OH258732   5.015   0.908  15.592 -0.3413 -0.5182  0.1181
12414TIP3    H158733   4.945   0.973  15.588  0.1606  0.1001  1.0252
12414TIP3    H258734   4.987   0.847  15.661 -1.3211 -1.9113 -1.4412
12415TIP3   OH258735   3.978   5.413   0.941 -0.1212  0.2676 -0.8476
12415TIP3    H158736   3.943   5.329   0.968 -1.3476  0.7254 -0.9494
12415TIP3    H258737   3.917   5.477   0.977  1.6129  1.2400  0.5827
12416TIP3   OH258738   3.722   2.999   0.349 -0.1110 -0.1572  0.2435
12416TIP3    H158739   3.739   3.032   0.437  1.6565 -3.8165  1.4769
12416TIP3    H258740   3.631   2.970   0.351  0.4598 -2.0520  1.6587
12417TIP3   OH258741   3.287   2.665  11.998  0.2190  0.0504  0.0799
12417TIP3    H158742   3.266   2.748  11.955  1.8914 -0.0317 -0.9671
12417TIP3    H258743   3.233   2.601  11.953  1.7469  0.0094 -1.7938
12418TIP3   OH258744   4.266   1.292   1.488 -0.3309  0.1521  0.4075
12418TIP3    H158745   4.286   1.351   1.415  1.6937 -0.7995  0.1227
12418TIP3    H258746   4.259   1.206   1.448 -0.3339 -0.2189  1.1890
12419TIP3   OH258747   5.715   2.029   0.520 -0.3481 -0.3559  0.6407
12419TIP3    H158748   5.620   2.019   0.513 -0.0916 -2.0973 -2.5432
12419TIP3    H258749   5.736   2.101   0.461  0.4845 -2.2071 -1.4746
12420TIP3   OH258750   3.238   3.867  16.686  0.0353  0.4663  0.0514
12420TIP3    H158751   3.322   3.913  16.682  0.8941 -1.1245 -1.3233
12420TIP3    H258752   3.214   3.851  16.595 -0.9826 -0.4843  0.4526
12421TIP3   OH258753   1.614   6.026   2.871 -0.1368 -0.4336  0.1770
12421TIP3    H158754   1.648   6.105   2.912 -0.5119  0.6061 -1.4381
12421TIP3    H258755   1.657   5.954   2.918 -2.6520  0.4607  4.3836
12422TIP3   OH258756   0.509   3.669  14.157 -0.1126  0.1003 -0.2554
12422TIP3    H158757   0.603   3.676  14.143 -0.2463  0.1272 -1.2407
12422TIP3    H258758   0.499   3.663  14.252  0.8557  0.4022 -0.1221
12423TIP3   OH258759   2.782   1.007  15.515 -0.1669 -0.4350  0.1974
12423TIP3    H158760   2.802   1.089  15.471 -2.3176 -0.8355 -1.7447
12423TIP3    H258761   2.812   1.019  15.605 -2.5628  3.4338  0.6861
12424TIP3   OH258762   3.074   5.976  15.407  0.7224 -0.5070  0.0612
12424TIP3    H158763   2.992   5.938  15.436  0.0513  1.2811  0.6671
12424TIP3    H258764   3.053   6.020  15.324  0.2755  2.3597  1.5635
12425TIP3   OH258765   3.185   1.954   2.429  0.3828  0.0564  0.3624
12425TIP3    H158766   3.279   1.968   2.429  0.6960 -1.3311 -2.4605
12425TIP3    H258767   3.150   2.020   2.369 -0.2242 -0.4531  0.1394
12426TIP3   OH258768   6.056   0.913   0.506 -0.1613 -0.1302 -0.3286
12426TIP3    H158769   6.029   0.830   0.468  1.6658 -0.2151 -1.5772
12426TIP3    H258770   6.007   0.979   0.457 -1.3366 -0.4228  0.4148
12427TIP3   OH258771   3.583   6.421  13.835 -0.1802 -0.3758 -0.6640
12427TIP3    H158772   3.604   6.424  13.929  2.0295  0.1723 -1.1117
12427TIP3    H258773   3.496   6.460  13.829 -1.4390 -2.5909  1.3739
12428TIP3   OH258774   5.963   3.057   3.508  0.1423 -0.0956 -0.1634
12428TIP3    H158775   5.932   3.056   3.599 -1.3400  0.0102 -0.6489
12428TIP3    H258776   5.885   3.040   3.456  1.2729 -1.8757 -1.3602
12429TIP3   OH258777   5.879   3.026  12.159  0.3050  0.3303 -0.5669
12429TIP3    H158778   5.907   3.027  12.250 -0.0214 -0.2187 -0.4600
12429TIP3    H258779   5.816   2.955  12.153  1.7957 -0.9790 -1.6576
12430TIP3   OH258780   5.983   5.163  14.554  0.1916 -0.6744 -0.5185
12430TIP3    H158781   5.965   5.071  14.576 -0.6558 -0.3726  0.0831
12430TIP3    H258782   5.937   5.213  14.621  1.2468  0.1842 -0.4090
12431TIP3   OH258783   4.061   3.602   5.351 -0.6337  0.0106  0.2779
12431TIP3    H158784   4.031   3.511   5.356  0.3488 -0.2748  1.5774
12431TIP3    H258785   4.037   3.639   5.436  3.4756 -0.5610  1.9302
12432TIP3   OH258786   3.349   1.811   4.911  0.5660  0.1125  0.0466
12432TIP3    H158787   3.389   1.843   4.830 -1.3897  0.7149 -0.7332
12432TIP3    H258788   3.362   1.882   4.973  0.9651  0.1794 -0.1090
12433TIP3   OH258789   5.496   2.446  16.006  0.0114  0.3211 -0.4706
12433TIP3    H158790   5.407   2.411  16.016 -0.0595  0.4813 -0.5445
12433TIP3    H258791   5.486   2.522  15.949  0.2009  0.3205 -0.5062
12434TIP3   OH258792   6.526   2.049  12.411 -0.0182  0.1984  0.1073
12434TIP3    H158793   6.543   1.977  12.471 -0.3530  0.0930  0.0754
12434TIP3    H258794   6.612   2.070  12.374 -0.0238 -0.5994 -0.3620
12435TIP3   OH258795   1.007   4.556  10.264 -0.0867 -0.4091 -0.5913
12435TIP3    H158796   1.027   4.647  10.283  1.2744 -0.2799 -2.4865
12435TIP3    H258797   0.913   4.556  10.246 -0.4995  0.2353  1.2950
12436TIP3   OH258798   3.840   2.629   1.535  0.1103  0.4729 -0.4985
12436TIP3    H158799   3.758   2.580   1.546  0.1443  0.1217 -1.6787
12436TIP3    H258800   3.869   2.648   1.625 -0.6303 -0.4549 -0.0464
12437TIP3   OH258801   3.051   2.204  15.494 -0.1976 -0.1236  0.1773
12437TIP3    H158802   2.969   2.160  15.474  0.3518 -0.6888 -0.9501
12437TIP3    H258803   3.074   2.250  15.413  0.4902  0.1969  0.5374
12438TIP3   OH258804   1.600   1.093  12.136  0.5319 -0.0831 -0.1136
12438TIP3    H158805   1.542   1.073  12.210  0.0816  1.3851 -0.0484
12438TIP3    H258806   1.576   1.029  12.069 -2.2043  1.3381 -0.6338
12439TIP3   OH258807   2.936   1.233   2.657  0.2367 -0.0545 -1.0293
12439TIP3    H158808   2.875   1.268   2.722  0.7054  1.3949 -1.3361
12439TIP3    H258809   3.012   1.206   2.707  0.3409  0.4636 -0.9051
12440TIP3   OH258810   1.221   4.403   1.506 -0.0092 -0.6348  0.0006
12440TIP3    H158811   1.249   4.494   1.496  0.5527 -0.7761  0.2782
12440TIP3    H258812   1.125   4.407   1.502 -0.0994  0.2063  1.8072
12441TIP3   OH258813   6.744   4.706  16.554 -0.1120  0.3760  0.4962
12441TIP3    H158814   6.754   4.781  16.494  2.0784 -0.4910 -0.3282
12441TIP3    H258815   6.680   4.650  16.511  1.5183 -0.2934 -1.2178
12442TIP3   OH258816   5.013   0.322  12.800  0.4400 -0.0432 -0.7289
12442TIP3    H158817   4.945   0.386  12.818  1.2976  0.8018 -0.4151
12442TIP3    H258818   5.094   0.372  12.799  1.5152 -1.5022  2.3453
12443TIP3   OH258819   2.577   6.036  12.729  0.8505  0.4290  0.7240
12443TIP3    H158820   2.598   6.085  12.649 -0.7621 -2.1863 -1.5336
12443TIP3    H258821   2.486   6.059  12.748 -0.3666 -2.2100 -1.0912
12444TIP3   OH258822   3.301   5.391  12.869  0.3619 -0.0284  0.0039
12444TIP3    H158823   3.331   5.341  12.945  0.1126 -4.1733 -2.3386
12444TIP3    H258824   3.363   5.368  12.799 -0.8012  1.6901 -1.7024
12445TIP3   OH258825   2.387   4.390   0.203 -0.0019 -0.1470 -0.0782
12445TIP3    H158826   2.442   4.455   0.246  0.9389  0.8575 -2.5944
12445TIP3    H258827   2.421   4.386   0.114 -2.7040 -1.0452 -1.1572
12446TIP3   OH258828   3.983   6.117   6.128 -0.0270  0.1587  0.1267
12446TIP3    H158829   4.005   6.210   6.132  1.1988 -0.1516  1.7551
12446TIP3    H258830   3.909   6.107   6.188  0.5513 -0.0688  0.8206
12447TIP3   OH258831   0.843   5.100  16.176  0.3895 -0.3391  0.2976
12447TIP3    H158832   0.918   5.137  16.130  0.2486 -0.7219 -0.2534
12447TIP3    H258833   0.855   5.125  16.268  0.8484  0.1461  0.1029
12448TIP3   OH258834   4.673   0.850  13.035 -0.4444 -0.4855  0.6066
12448TIP3    H158835   4.720   0.926  13.001 -1.2623 -0.2925 -0.1146
12448TIP3    H258836   4.672   0.788  12.963  0.8562 -1.5217  1.4099
12449TIP3   OH258837   2.729   2.681   4.470 -0.1587 -0.4003 -0.4027
12449TIP3    H158838   2.691   2.769   4.475  1.3836  0.3325 -0.7795
12449TIP3    H258839   2.707   2.640   4.553 -1.8178 -0.0791 -0.6329
12450TIP3   OH258840   2.826   5.044  14.436  0.2982 -0.5269  0.2709
12450TIP3    H158841   2.867   5.073  14.355  0.3798 -0.9208  0.1678
12450TIP3    H258842   2.856   5.106  14.502 -0.1729  0.0926 -0.0918
12451TIP3   OH258843   3.707   3.424  12.958 -0.0324 -0.3273 -0.3453
12451TIP3    H158844   3.637   3.387  13.012  2.5772 -3.0873  1.4708
12451TIP3    H258845   3.696   3.519  12.967 -3.4896 -0.6017 -0.2546
12452TIP3   OH258846   4.221   3.204   3.791  0.6948  0.4989  0.2222
12452TIP3    H158847   4.249   3.276   3.735 -0.0940  2.9822  2.7367
12452TIP3    H258848   4.290   3.196   3.857  1.1797 -1.7186 -0.4699
12453TIP3   OH258849   1.065   6.484   0.433  0.2270 -1.1367 -0.6590
12453TIP3    H158850   1.057   6.580   0.435 -0.0991 -1.1439  2.0738
12453TIP3    H258851   1.139   6.467   0.376  0.1783  0.7251 -1.3537
12454TIP3   OH258852   0.481   3.330  16.341  0.1160 -0.5186  0.1676
12454TIP3    H158853   0.535   3.330  16.420 -0.9952 -1.0340  0.9577
12454TIP3    H258854   0.473   3.237  16.318 -0.8445 -0.4956  0.3654
12455TIP3   OH258855   1.682   0.801   4.048  0.1268  0.5565  0.2124
12455TIP3    H158856   1.634   0.871   4.092  0.0911  0.0337  1.0195
12455TIP3    H258857   1.615   0.753   3.999  0.3538  1.9401 -1.5441
12456TIP3   OH258858   0.845   3.230  16.330 -0.5041 -0.1449 -0.5379
12456TIP3    H158859   0.851   3.323  16.351  0.0378 -0.1821 -0.5079
12456TIP3    H258860   0.911   3.216  16.263 -0.5259 -0.5249 -0.4835
12457TIP3   OH258861   5.104   5.342  13.526 -0.6657  0.0499 -0.3029
12457TIP3    H158862   5.131   5.410  13.464  2.5074  0.4085  1.2493
12457TIP3    H258863   5.183   5.290  13.539 -1.2059 -0.1272  3.2471
12458TIP3   OH258864   1.836   2.344   6.485  0.8584 -0.2741  0.1441
12458TIP3    H158865   1.797   2.363   6.400 -2.2587 -0.7318  1.3344
12458TIP3    H258866   1.890   2.420   6.505 -0.6418  1.1442 -0.9945
12459TIP3   OH258867   0.658   2.432   2.870 -0.2191 -0.1337 -0.6848
12459TIP3    H158868   0.568   2.418   2.898 -0.3737  2.2501  0.2094
12459TIP3    H258869   0.657   2.413   2.776 -1.0375 -2.5251 -0.2462
12460TIP3   OH258870   2.314   6.134  12.712  0.1859 -0.4796 -0.7213
12460TIP3    H158871   2.298   6.228  12.724 -1.6054 -0.9188  0.8771
12460TIP3    H258872   2.252   6.108  12.644 -2.2219 -1.1473  1.5665
12461TIP3   OH258873   2.431   6.275  14.371 -0.5169 -0.0400  0.1343
12461TIP3    H158874   2.448   6.265  14.278  0.6810 -0.1122  0.3490
12461TIP3    H258875   2.433   6.370  14.386 -2.3232  0.0910 -0.1748
12462TIP3   OH258876   4.398   1.063  15.602  0.9476  0.2087 -0.0998
12462TIP3    H158877   4.382   0.971  15.580 -2.2034  0.2319  1.6292
12462TIP3    H258878   4.433   1.060  15.691 -4.0764  0.6484  2.1927
12463TIP3   OH258879   0.860   1.564   5.005 -0.2539  0.0659  0.3847
12463TIP3    H158880   0.870   1.470   4.990 -1.1886 -0.2080  1.3512
12463TIP3    H258881   0.802   1.592   4.934  3.0780  0.7442 -2.3222
12464TIP3   OH258882   1.551   1.255  14.127  0.2167 -0.0773  0.2350
12464TIP3    H158883   1.643   1.249  14.151 -0.0337 -1.8028  0.8705
12464TIP3    H258884   1.552   1.260  14.031  0.9750 -0.0569  0.2390
12465TIP3   OH258885   3.336   0.375  16.265  0.1292 -0.3958  0.1259
12465TIP3    H158886   3.413   0.363  16.320 -0.9626  0.8099  2.0686
12465TIP3    H258887   3.300   0.459  16.294 -0.4449  0.3934 -2.5978
12466TIP3   OH258888   0.511   0.917   3.315  0.3320  0.0535 -0.0060
12466TIP3    H158889   0.575   0.862   3.360  0.5941  1.3938  1.3363
12466TIP3    H258890   0.546   1.006   3.323 -1.4108  0.7486  0.2712
12467TIP3   OH258891   0.568   3.823  13.229 -0.3699  0.1414 -1.0303
12467TIP3    H158892   0.482   3.847  13.265 -0.5235  1.4673 -2.2184
12467TIP3    H258893   0.563   3.728  13.219 -1.3423  0.0779 -0.2000
12468TIP3   OH258894   1.412   0.814   2.708  0.8287  0.1517  0.0934
12468TIP3    H158895   1.398   0.897   2.754  0.8036  0.6569 -0.7929
12468TIP3    H258896   1.363   0.749   2.759  1.0795  0.6208  0.9587
12469TIP3   OH258897   2.820   0.076  15.921  0.0891 -0.1945 -0.1794
12469TIP3    H158898   2.750   0.080  15.987  0.5441 -0.2989  0.3205
12469TIP3    H258899   2.860  -0.010  15.934 -0.4313 -0.6162 -1.2457
12470TIP3   OH258900   5.469   2.279  11.809  0.2273 -0.1248 -0.0336
12470TIP3    H158901   5.404   2.225  11.764  0.3341 -0.7125  0.4899
12470TIP3    H258902   5.463   2.251  11.901  0.6126  0.4298  0.1632
12471TIP3   OH258903   2.975   3.255  11.558 -0.1252  0.1654 -0.2348
12471TIP3    H158904   2.912   3.224  11.493 -1.0226 -1.2649  1.2421
12471TIP3    H258905   3.016   3.331  11.517 -3.1263  1.4581 -1.1236
12472TIP3   OH258906   1.248   0.155  14.149 -0.5140  0.2288 -0.4412
12472TIP3    H158907   1.169   0.116  14.112  0.1126 -0.9986 -0.5398
12472TIP3    H258908   1.230   0.163  14.243 -1.3169  1.3992 -0.6736
12473TIP3   OH258909   3.124   3.789  11.546  0.4783 -0.2236  0.4016
12473TIP3    H158910   3.198   3.756  11.597  0.6719 -1.4366 -0.6115
12473TIP3    H258911   3.120   3.882  11.567  2.6360 -0.0026  0.0778
12474TIP3   OH258912   0.549   0.082   3.294 -0.1636 -0.7365  0.1757
12474TIP3    H158913   0.614   0.012   3.301  2.7010  1.4305 -2.0738
12474TIP3    H258914   0.574   0.145   3.362 -1.3554 -0.8432  0.7431
12475TIP3   OH258915   3.169   5.304  11.658 -0.3722 -0.3595 -0.3794
12475TIP3    H158916   3.223   5.276  11.584  1.3095  0.5535  0.4448
12475TIP3    H258917   3.106   5.365  11.620 -0.2255 -0.7176 -1.2189
12476TIP3   OH258918   2.811   6.037   3.725  0.2113  0.3268 -0.0734
12476TIP3    H158919   2.829   5.981   3.801  0.6393  0.6304  0.0521
12476TIP3    H258920   2.762   5.980   3.666 -0.3025  0.1470  0.5101
12477TIP3   OH258921   4.817   5.618   6.374  0.0326 -0.1445  0.2494
12477TIP3    H158922   4.726   5.592   6.385  0.1880 -1.6177 -1.3692
12477TIP3    H258923   4.840   5.661   6.456 -1.5137 -1.5580  1.5098
12478TIP3   OH258924   0.019   6.520   0.576  0.0091  0.5521  0.2532
12478TIP3    H158925  -0.027   6.601   0.555  0.7301  0.7997 -0.4308
12478TIP3    H258926  -0.046   6.466   0.622 -0.0413  2.1035  2.1129
12479TIP3   OH258927   3.406   6.076  11.248  0.0646  0.3428  0.3141
12479TIP3    H158928   3.499   6.086  11.227 -0.3615  0.1902 -1.8824
12479TIP3    H258929   3.376   6.165  11.266 -0.0465  0.9395 -2.3666
12480TIP3   OH258930   1.110   6.832   3.499 -0.3340  0.1162  0.0263
12480TIP3    H158931   1.166   6.758   3.478  0.5524  1.0276 -0.9991
12480TIP3    H258932   1.037   6.826   3.437 -1.9151 -1.5535  1.9181
12481TIP3   OH258933   4.114   6.459  14.799  0.2828 -0.3348  0.0573
12481TIP3    H158934   4.209   6.445  14.798  0.6837  1.8943 -0.6558
12481TIP3    H258935   4.096   6.493  14.887  0.1521 -0.7371  0.1850
12482TIP3   OH258936   2.108   4.947  13.406  0.3462  0.2816  0.1698
12482TIP3    H158937   2.153   4.876  13.360 -2.1201 -0.5011 -1.2524
12482TIP3    H258938   2.097   5.015  13.340  1.9740  1.7268  1.3055
12483TIP3   OH258939   5.391   5.908   2.454 -0.2445  0.4178  0.3945
12483TIP3    H158940   5.432   5.822   2.453 -0.2161  0.4324  0.2806
12483TIP3    H258941   5.360   5.921   2.364 -0.3924  0.4573  0.4521
12484TIP3   OH258942   3.396   4.114  11.560  0.0269 -0.6086 -0.1720
12484TIP3    H158943   3.435   4.200  11.545  0.3029 -0.6292  0.3863
12484TIP3    H258944   3.414   4.065  11.480 -0.8062  0.0900 -0.8109
12485TIP3   OH258945   5.976   4.730   3.230  0.2469 -0.3100 -0.4439
12485TIP3    H158946   6.010   4.774   3.308  3.4961 -0.2955 -1.6874
12485TIP3    H258947   6.047   4.738   3.166 -2.7354  0.9393 -3.9540
12486TIP3   OH258948   2.908   3.103   2.121 -0.2118  0.0851  1.1175
12486TIP3    H158949   2.936   3.127   2.209  2.5331  0.8504  0.1380
12486TIP3    H258950   2.884   3.186   2.080  0.5326  0.0266  0.5379
12487TIP3   OH258951   6.528   0.741   2.808  0.0664  0.2433 -0.2418
12487TIP3    H158952   6.531   0.752   2.713  0.5496  0.4044 -0.2063
12487TIP3    H258953   6.448   0.787   2.834 -0.1876  0.0093 -0.5921
12488TIP3   OH258954   3.717   1.655  16.883  0.1428 -0.0328 -0.0691
12488TIP3    H158955   3.676   1.721  16.940 -0.3661  1.0333 -1.5849
12488TIP3    H258956   3.811   1.666  16.897  0.0430  0.6553  0.1239
12489TIP3   OH258957   3.670   6.529   1.840  0.4925 -0.0372 -0.1031
12489TIP3    H158958   3.740   6.538   1.775  0.7685 -1.4471 -0.0277
12489TIP3    H258959   3.653   6.435   1.843 -1.6884  0.3032 -0.4092
12490TIP3   OH258960   3.205   1.866   3.988 -0.2708  0.3454 -0.3914
12490TIP3    H158961   3.263   1.797   4.021 -1.1425 -0.9947 -1.4985
12490TIP3    H258962   3.167   1.906   4.066  1.3750  0.5792  0.3123
12491TIP3   OH258963   2.565   6.042   1.172 -0.4850  0.2591  0.2285
12491TIP3    H158964   2.516   6.105   1.225 -1.6617  0.0186 -0.5355
12491TIP3    H258965   2.520   5.959   1.186  1.3977 -0.5881  1.6824
12492TIP3   OH258966   5.566   2.661   2.412  0.2587  0.2800  0.1243
12492TIP3    H158967   5.652   2.627   2.386  0.2549 -0.2710  0.8076
12492TIP3    H258968   5.584   2.750   2.442  0.8732 -0.3563  1.7757
12493TIP3   OH258969   0.919   1.428  11.190  0.3521 -0.0610  0.0379
12493TIP3    H158970   0.969   1.356  11.150 -0.3892 -0.8758  0.5481
12493TIP3    H258971   0.851   1.385  11.241  0.7039  0.9694  1.4484
12494TIP3   OH258972   4.265   0.741  13.433  0.1013 -0.0363 -0.0975
12494TIP3    H158973   4.325   0.753  13.359  0.6593 -0.7276  0.2304
12494TIP3    H258974   4.264   0.826  13.476 -0.5174  0.4850 -1.0998
12495TIP3   OH258975   0.030   6.399  16.205 -0.0424  0.3276  0.8590
12495TIP3    H158976  -0.050   6.442  16.175 -0.1245  1.5191  2.6356
12495TIP3    H258977   0.065   6.357  16.127 -1.6765  0.9333 -0.2564
12496TIP3   OH258978   2.067   6.690  13.959  0.2050 -0.2206 -0.1695
12496TIP3    H158979   1.995   6.657  14.012 -0.4604  0.3752 -0.6846
12496TIP3    H258980   2.140   6.699  14.020 -0.6364  0.7506  0.7186
12497TIP3   OH258981   6.594   1.998  15.158 -0.0691  0.3423  0.2074
12497TIP3    H158982   6.662   1.981  15.223 -0.7714 -0.1892  0.8164
12497TIP3    H258983   6.642   2.016  15.077  0.7860 -0.5860  0.4928
12498TIP3   OH258984   3.136   6.538   0.891 -0.1448 -0.3158  0.1135
12498TIP3    H158985   3.047   6.563   0.863 -0.0475  1.0198  0.9323
12498TIP3    H258986   3.175   6.619   0.922  2.4343 -0.2007 -2.8831
12499TIP3   OH258987   5.632   2.341  13.323  0.1298  0.1117 -0.5199
12499TIP3    H158988   5.698   2.411  13.320  1.0566 -0.7719 -1.5239
12499TIP3    H258989   5.630   2.315  13.415 -0.3572  1.5581 -0.0970
12500TIP3   OH258990   4.764   4.808   2.391 -0.0240 -0.0753  0.3784
12500TIP3    H158991   4.712   4.887   2.407  0.1768  0.3973 -1.1380
12500TIP3    H258992   4.845   4.841   2.351 -0.0600 -1.0514 -0.5472
12501TIP3   OH258993   6.597   6.812   1.986  0.1003 -0.4582 -0.3285
12501TIP3    H158994   6.566   6.889   2.033  0.5624 -1.8460  2.4628
12501TIP3    H258995   6.541   6.741   2.017  1.2467 -1.6776 -0.9418
12502TIP3   OH258996   5.892   1.220   5.096  0.3393  0.2008 -0.4801
12502TIP3    H158997   5.811   1.266   5.076 -0.0104 -0.3380 -0.3232
12502TIP3    H258998   5.961   1.285   5.081 -0.1463  0.7856 -0.2211
12503TIP3   OH258999   2.333   3.290  10.598  0.3755  0.4939  0.0683
12503TIP3    H159000   2.373   3.298  10.685 -0.1289  1.2542  0.2395
12503TIP3    H259001   2.394   3.236  10.548  2.0366  2.2761  0.0555
12504TIP3   OH259002   4.211   6.350  15.924 -0.0007  0.0715 -0.1311
12504TIP3    H159003   4.248   6.417  15.981 -2.0431  0.0637  1.3159
12504TIP3    H259004   4.230   6.267  15.969  0.6437 -0.1550 -0.8107
12505TIP3   OH259005   1.367   6.027  13.954  0.0516  0.5122  0.0884
12505TIP3    H159006   1.304   6.077  14.005 -0.7574  0.6110 -0.9817
12505TIP3    H259007   1.336   6.034  13.864  0.4961 -1.0592 -0.2159
12506TIP3   OH259008   1.849   0.188   4.570 -0.2650  0.2036 -0.6608
12506TIP3    H159009   1.895   0.260   4.526  0.1280  0.6707  0.4899
12506TIP3    H259010   1.783   0.160   4.507 -0.2972  1.4415 -1.2012
12507TIP3   OH259011   4.011   3.936   3.675 -0.1758 -0.4454  0.5260
12507TIP3    H159012   4.082   3.877   3.701 -0.3946  0.3052  3.1392
12507TIP3    H259013   3.953   3.938   3.752 -1.4932  1.2149 -0.4553
12508TIP3   OH259014   5.356   5.667   1.788 -0.4129 -0.7198  0.1269
12508TIP3    H159015   5.354   5.759   1.762 -0.5882 -0.1467  2.0313
12508TIP3    H259016   5.269   5.634   1.763 -0.4185 -0.3281 -0.3973
12509TIP3   OH259017   2.342   5.137   6.151 -0.4376  0.3398  0.5388
12509TIP3    H159018   2.369   5.167   6.238  3.6499 -0.7155 -0.1715
12509TIP3    H259019   2.331   5.043   6.160  1.4901 -0.0102 -0.3056
12510TIP3   OH259020   1.687   3.466   3.962  0.1846  0.4683 -0.6570
12510TIP3    H159021   1.741   3.545   3.967 -0.9906  1.2371  0.4660
12510TIP3    H259022   1.711   3.415   4.040  1.1805 -0.4785 -1.5477
12511TIP3   OH259023   4.515   5.454   2.834 -0.1502  0.1443 -0.4668
12511TIP3    H159024   4.590   5.417   2.882 -0.2252  0.4610 -0.1013
12511TIP3    H259025   4.478   5.518   2.894 -1.5566 -0.9860 -0.0863
12512TIP3   OH259026   4.036   0.082  11.632 -0.1217  0.2959 -0.4163
12512TIP3    H159027   4.088   0.141  11.687  0.4077 -1.2531  0.8247
12512TIP3    H259028   4.083   0.078  11.549 -0.2059  1.6475 -0.5502
12513TIP3   OH259029   6.460   2.503  14.051  0.0964 -0.1309  0.6502
12513TIP3    H159030   6.493   2.576  13.999  1.1271 -0.3239  1.0101
12513TIP3    H259031   6.366   2.519  14.057  0.0238  0.1763 -0.8171
12514TIP3   OH259032   0.480   3.864   5.106 -0.3660 -0.1199  0.3413
12514TIP3    H159033   0.454   3.956   5.098 -0.1115 -0.1193 -0.6144
12514TIP3    H259034   0.488   3.834   5.016  1.2931 -0.5937  0.6261
12515TIP3   OH259035   2.034   3.491   2.259 -0.1622  0.1927  0.2244
12515TIP3    H159036   2.059   3.572   2.303  1.1959 -0.4599  0.6964
12515TIP3    H259037   2.113   3.437   2.261 -0.7282 -0.7232 -1.0527
12516TIP3   OH259038   5.554   5.515   4.219  0.4202  0.4004 -0.4533
12516TIP3    H159039   5.459   5.519   4.207  0.4572  1.1322 -0.5367
12516TIP3    H259040   5.566   5.453   4.291 -0.1887  1.1241  0.2912
12517TIP3   OH259041   5.978   5.776   1.957  0.7277  0.9460  0.0048
12517TIP3    H159042   6.047   5.792   2.021  1.6887 -1.7870 -0.2180
12517TIP3    H259043   5.902   5.751   2.008  1.0204  0.3376  0.1486
12518TIP3   OH259044   5.423   4.591  15.216 -0.5251 -0.0255  0.3513
12518TIP3    H159045   5.422   4.502  15.251  0.2752  0.5022  1.7783
12518TIP3    H259046   5.502   4.631  15.253 -0.3680  1.0085 -0.9908
12519TIP3   OH259047   3.695   2.528   6.398 -0.9418 -0.4000 -0.1241
12519TIP3    H159048   3.617   2.522   6.342 -0.1983  0.0437 -1.2357
12519TIP3    H259049   3.684   2.611   6.444 -1.8034 -1.0029  0.7981
12520TIP3   OH259050   5.879   5.140  16.900 -0.0548  0.7482 -0.2151
12520TIP3    H159051   5.789   5.173  16.905  0.5380  2.3241  1.0967
12520TIP3    H259052   5.930   5.214  16.868  1.0916  0.6638  1.2936
12521TIP3   OH259053   4.418   3.326   1.033  0.1180 -0.1518  0.1580
12521TIP3    H159054   4.501   3.368   1.010 -0.0996  0.3644  0.2983
12521TIP3    H259055   4.392   3.368   1.115 -1.3825  1.3159 -0.9868
12522TIP3   OH259056   1.008   3.242   5.995  0.3866  0.2422 -0.6471
12522TIP3    H159057   1.065   3.200   6.059  0.5095 -1.2276 -1.6869
12522TIP3    H259058   1.068   3.285   5.933  0.2946  0.5707 -0.5139
12523TIP3   OH259059   6.539   5.489  11.199 -0.6148 -0.2544 -0.1421
12523TIP3    H159060   6.521   5.395  11.198  1.6742 -0.7509 -1.0370
12523TIP3    H259061   6.548   5.513  11.107  1.3560  0.2391  0.1275
12524TIP3   OH259062   1.023   4.203   1.324 -0.2308 -0.0563 -0.2717
12524TIP3    H159063   0.939   4.226   1.362 -0.0573  0.8853 -0.4155
12524TIP3    H259064   1.064   4.146   1.389 -0.9413 -0.4468 -0.1638
12525TIP3   OH259065   3.266   2.993   4.732 -0.0540  0.2601  0.3779
12525TIP3    H159066   3.224   2.911   4.757 -1.7367  0.6805 -0.8680
12525TIP3    H259067   3.198   3.059   4.745  0.9264  1.3092  0.3480
12526TIP3   OH259068   1.789   4.527   0.623  0.4738  0.1994  0.0432
12526TIP3    H159069   1.717   4.468   0.602 -0.2331  1.0780 -0.0527
12526TIP3    H259070   1.865   4.469   0.634 -0.1060 -0.6782 -0.4579
12527TIP3   OH259071   2.752   4.203   2.345  0.1505  0.1148 -0.2412
12527TIP3    H159072   2.756   4.180   2.253 -2.6679  1.9911 -0.9731
12527TIP3    H259073   2.779   4.295   2.348 -1.1604  0.5088  0.5273
12528TIP3   OH259074   3.463   5.152  16.039  0.3738  0.1904  0.6590
12528TIP3    H159075   3.467   5.102  16.121  0.3044  1.4369  1.4367
12528TIP3    H259076   3.432   5.238  16.065  1.5464  0.9924 -0.5058
12529TIP3   OH259077   5.166   3.851  16.799 -0.4339 -0.2806 -0.3749
12529TIP3    H159078   5.116   3.798  16.861 -0.1486  0.2405  0.3072
12529TIP3    H259079   5.246   3.874  16.846  0.1182 -0.4810 -1.1941
12530TIP3   OH259080   6.214   1.520   0.102  0.7439 -0.3002  0.4606
12530TIP3    H159081   6.170   1.489   0.023 -1.3365  0.4885  1.2525
12530TIP3    H259082   6.287   1.459   0.114  2.4733  0.7531 -3.1975
12531TIP3   OH259083   6.684   1.729  13.273  0.2340  0.6223 -0.1439
12531TIP3    H159084   6.617   1.769  13.218 -0.0979  0.4739  0.1486
12531TIP3    H259085   6.641   1.715  13.357  0.9366  1.4777  0.3696
12532TIP3   OH259086   3.292   3.029   1.815 -0.0120 -0.2025  0.3376
12532TIP3    H159087   3.229   3.076   1.760  0.8269 -1.4273 -1.7578
12532TIP3    H259088   3.339   3.099   1.861 -0.3213  0.9121 -0.9682
12533TIP3   OH259089   1.835   4.309   6.583 -0.0874  0.1289 -0.9108
12533TIP3    H159090   1.783   4.286   6.506  0.1885 -0.5147 -0.9148
12533TIP3    H259091   1.903   4.368   6.550  1.7078 -2.2467 -1.7231
12534TIP3   OH259092   5.876   1.522  13.636  0.5454 -0.1179  0.0455
12534TIP3    H159093   5.966   1.492  13.646  0.2641 -1.2730 -0.6701
12534TIP3    H259094   5.864   1.586  13.706  1.9486  0.1403  0.0753
12535TIP3   OH259095   4.423   3.907   4.351  0.4922 -0.1378  0.3509
12535TIP3    H159096   4.339   3.926   4.394  0.7440 -0.6547  1.0975
12535TIP3    H259097   4.468   3.992   4.349  0.9198 -0.2698  2.1386
12536TIP3   OH259098   4.518   0.040   1.446 -0.1682 -0.3749  0.2868
12536TIP3    H159099   4.521   0.042   1.350 -2.2163 -2.3470  0.0938
12536TIP3    H259100   4.436   0.082   1.468 -0.5953 -1.5423  1.0225
12537TIP3   OH259101   4.234   5.175  12.558  0.6091 -0.9979 -0.0063
12537TIP3    H159102   4.200   5.150  12.644  0.2998  0.4986  0.3299
12537TIP3    H259103   4.265   5.265  12.569  1.0109 -0.9451 -1.3400
12538TIP3   OH259104   0.918   4.538  15.572  0.0160 -0.6635 -0.6849
12538TIP3    H159105   0.905   4.462  15.629 -0.0860 -0.6805 -0.7311
12538TIP3    H259106   1.008   4.529  15.541  0.2994 -0.2967  0.0036
12539TIP3   OH259107   0.773   5.434  16.350 -0.3141  0.5512  0.2507
12539TIP3    H159108   0.769   5.455  16.256  0.8562 -0.9560 -0.1590
12539TIP3    H259109   0.735   5.346  16.357 -1.4136  1.0709  1.3790
12540TIP3   OH259110   2.610   6.352   5.989 -0.3234  0.8896  0.5874
12540TIP3    H159111   2.580   6.400   5.912  2.6462  1.5341 -0.2843
12540TIP3    H259112   2.647   6.271   5.955 -1.5693 -0.1868  1.6710
12541TIP3   OH259113   5.446   4.556   0.442  0.1096  0.0323  0.1163
12541TIP3    H159114   5.384   4.598   0.502 -0.8722 -1.5983  0.3187
12541TIP3    H259115   5.392   4.528   0.368  0.7568 -0.7061 -0.0877
12542TIP3   OH259116   6.257   3.827  16.000 -0.2416 -0.0451  0.2335
12542TIP3    H159117   6.198   3.817  16.075  0.6020 -1.1633  0.7851
12542TIP3    H259118   6.242   3.749  15.947  0.3245 -0.0484  0.0745
12543TIP3   OH259119   5.342   3.762  15.581  0.0588 -0.3278  0.6032
12543TIP3    H159120   5.407   3.752  15.651  0.8094 -1.8996 -0.2576
12543TIP3    H259121   5.269   3.706  15.608 -0.6649  0.8779  1.2199
12544TIP3   OH259122   1.481   2.050   5.179  0.0933  0.1250  0.3719
12544TIP3    H159123   1.392   2.086   5.174  0.8126  2.1926  1.1726
12544TIP3    H259124   1.494   2.008   5.094 -1.5822 -0.0777  0.1745
12545TIP3   OH259125   2.330   2.462   5.293  0.0231 -0.7313 -0.2948
12545TIP3    H159126   2.329   2.498   5.381 -1.3022 -1.5193  0.0415
12545TIP3    H259127   2.317   2.368   5.305 -0.0820 -0.8649 -1.3244
12546TIP3   OH259128   5.960   0.423  15.389  0.6610  0.0578 -0.4653
12546TIP3    H159129   6.004   0.449  15.469  0.6207 -1.6066  0.1340
12546TIP3    H259130   5.867   0.432  15.409  0.6574  0.4902 -0.6489
12547TIP3   OH259131   1.513   0.198   2.058 -0.1004  0.1459 -0.0339
12547TIP3    H159132   1.427   0.166   2.035 -0.0563 -0.0472  0.0690
12547TIP3    H259133   1.497   0.285   2.097 -0.1570  0.5415 -0.9280
12548TIP3   OH259134   1.108   4.416   3.627 -0.2565  0.2518  0.0520
12548TIP3    H159135   1.107   4.438   3.534 -1.0296  2.1064  0.4397
12548TIP3    H259136   1.030   4.459   3.662 -1.8529 -3.1066  1.0260
12549TIP3   OH259137   1.276   4.127  16.882  0.4608 -0.7854  0.4300
12549TIP3    H159138   1.243   4.183  16.952 -0.5649  3.9430 -3.2870
12549TIP3    H259139   1.363   4.161  16.863 -0.1927 -0.2496 -1.9694
12550TIP3   OH259140   5.169   0.269   1.038 -0.2907  0.9270  0.3107
12550TIP3    H159141   5.086   0.314   1.022 -0.0988  0.6428 -1.6926
12550TIP3    H259142   5.207   0.316   1.113 -1.2213  2.5375 -0.1692
12551TIP3   OH259143   5.750   3.446  12.266  0.3750  0.3894  0.1033
12551TIP3    H159144   5.701   3.507  12.211  0.2389  1.3540  1.2497
12551TIP3    H259145   5.822   3.417  12.210 -1.3642 -0.9836 -1.5894
12552TIP3   OH259146   5.824   6.112  13.506 -0.0987  0.4201  0.1433
12552TIP3    H159147   5.881   6.187  13.520 -1.8766  1.9797 -0.6441
12552TIP3    H259148   5.786   6.095  13.593  1.7565 -0.9145  0.7825
12553TIP3   OH259149   3.755   4.488  10.637 -0.0297 -1.1207 -0.6668
12553TIP3    H159150   3.669   4.501  10.597  0.0114  0.5959 -0.2690
12553TIP3    H259151   3.736   4.471  10.729  0.0383 -1.3793 -0.6996
12554TIP3   OH259152   5.458   0.728  11.110 -0.2567  0.2846 -0.1560
12554TIP3    H159153   5.478   0.801  11.169  0.3003  0.8088 -0.9707
12554TIP3    H259154   5.378   0.756  11.065 -0.6639 -0.1015  0.3204
12555TIP3   OH259155   4.533   0.441   0.368  0.1728  0.3076  0.1690
12555TIP3    H159156   4.457   0.447   0.425 -1.0700 -1.4021 -1.1707
12555TIP3    H259157   4.586   0.518   0.389 -1.0888  0.6643  2.3066
12556TIP3   OH259158   0.819   4.055   1.093  0.5521  0.1474 -0.0159
12556TIP3    H159159   0.743   3.997   1.084  0.9923 -0.3992 -0.2854
12556TIP3    H259160   0.893   3.995   1.104  0.9299  0.6762  0.3509
12557TIP3   OH259161   0.213   0.182   5.966  0.2784  0.0078  0.0860
12557TIP3    H159162   0.121   0.184   5.992  0.4106  1.4892  0.4951
12557TIP3    H259163   0.226   0.093   5.931 -1.1028 -0.4628  0.7078
12558TIP3   OH259164   5.400   1.080   0.304  0.2641 -0.3402  0.3560
12558TIP3    H159165   5.322   1.046   0.346  0.0271 -1.6577 -1.0461
12558TIP3    H259166   5.473   1.039   0.350  0.0248 -1.3485 -0.1409
12559TIP3   OH259167   3.426   2.743   2.521 -0.2689  0.2296 -0.1083
12559TIP3    H159168   3.495   2.684   2.552  0.1168  0.5422 -0.3672
12559TIP3    H259169   3.397   2.790   2.600 -0.9083 -0.6365  0.1841
12560TIP3   OH259170   3.375   5.712  12.023  0.0835 -0.2259  0.2396
12560TIP3    H159171   3.324   5.649  12.074 -2.7074  0.0952 -1.8530
12560TIP3    H259172   3.324   5.793  12.026 -0.2100 -0.1554 -2.8027
12561TIP3   OH259173   6.182   5.720   2.611 -0.5578  0.4234 -0.5268
12561TIP3    H159174   6.162   5.769   2.691 -0.5520  0.5634 -0.6105
12561TIP3    H259175   6.275   5.701   2.617 -0.8262 -0.7570  0.1554
12562TIP3   OH259176   1.906   0.652   3.753 -0.7726 -0.2530 -0.1509
12562TIP3    H159177   1.971   0.660   3.823 -0.7546  0.6115 -0.2666
12562TIP3    H259178   1.875   0.741   3.738 -1.4248 -0.5549 -0.6351
12563TIP3   OH259179   3.323   1.950  12.099 -0.2628  0.2399  0.0042
12563TIP3    H159180   3.365   1.960  12.013  0.0785  1.4926  0.2938
12563TIP3    H259181   3.230   1.941  12.080 -0.4706  2.6694 -0.4512
12564TIP3   OH259182   6.469   2.128   3.576  0.3703  0.8042 -0.8619
12564TIP3    H159183   6.546   2.122   3.632  1.9955  0.6343 -2.9927
12564TIP3    H259184   6.504   2.134   3.487 -2.0794  1.1316 -1.8905
12565TIP3   OH259185   3.640   0.390  15.384 -0.3319 -0.5049 -0.6097
12565TIP3    H159186   3.705   0.354  15.444  0.3263  0.2334 -0.8604
12565TIP3    H259187   3.569   0.420  15.441  0.6608  0.9851 -0.0930
12566TIP3   OH259188   6.030   0.768  15.852  0.1159  0.1117 -0.9420
12566TIP3    H159189   6.065   0.749  15.939  0.8333 -1.0069 -1.4580
12566TIP3    H259190   6.019   0.863  15.851  0.6313  0.1954  0.1755
12567TIP3   OH259191   5.873   6.697   2.482 -0.4982 -0.1368 -0.2733
12567TIP3    H159192   5.884   6.683   2.576  2.2632  0.7904 -0.3597
12567TIP3    H259193   5.962   6.713   2.450 -1.5248  0.9560 -2.8207
12568TIP3   OH259194   0.833   6.801  13.349 -0.4898 -0.2885 -0.8580
12568TIP3    H159195   0.862   6.719  13.308  0.4058 -0.1464 -0.5421
12568TIP3    H259196   0.874   6.800  13.436 -1.2234  0.0681 -0.4973
12569TIP3   OH259197   2.449   2.061  10.835  0.2614 -0.0992 -0.8858
12569TIP3    H159198   2.365   2.057  10.790  0.8135 -1.8846 -1.8401
12569TIP3    H259199   2.498   2.128  10.787 -0.3920  0.5326 -0.6880
12570TIP3   OH259200   1.186   5.100  10.936 -0.5860  0.0800 -0.1025
12570TIP3    H159201   1.236   5.028  10.899  1.1449  0.9951  0.3302
12570TIP3    H259202   1.149   5.145  10.860 -0.1565 -0.2200 -0.4968
12571TIP3   OH259203   0.577   5.900   1.514  0.5093  0.3581 -0.8765
12571TIP3    H159204   0.591   5.824   1.570  2.1766 -0.8583 -2.8106
12571TIP3    H259205   0.665   5.926   1.487 -0.1205  2.2222 -1.2520
12572TIP3   OH259206   5.916   3.619   1.965  0.1933  0.1851 -0.6150
12572TIP3    H159207   5.877   3.659   2.043 -0.0843  0.1199 -0.7186
12572TIP3    H259208   6.002   3.660   1.957 -0.8558  2.2971 -1.8875
12573TIP3   OH259209   0.856   3.413  16.068  0.7152  0.0074 -0.3482
12573TIP3    H159210   0.812   3.343  16.020 -0.1774  0.2821  0.0480
12573TIP3    H259211   0.946   3.413  16.034  0.5557 -0.9093 -0.7931
12574TIP3   OH259212   6.744   0.507  11.941  0.2445  0.6415 -0.0662
12574TIP3    H159213   6.756   0.569  11.869  2.0043  0.5252  0.0913
12574TIP3    H259214   6.689   0.438  11.903  3.2127 -0.7512 -2.2186
12575TIP3   OH259215   3.457   4.799   0.270 -0.1070 -0.1429 -0.1442
12575TIP3    H159216   3.410   4.772   0.348  0.9087  1.6008  1.1507
12575TIP3    H259217   3.390   4.839   0.214 -0.5703  0.0729  0.5575
12576TIP3   OH259218   6.034   1.845  15.451 -0.4265  0.8186  0.1970
12576TIP3    H159219   6.109   1.893  15.487  0.0828  0.1242  0.0654
12576TIP3    H259220   6.012   1.780  15.518 -0.7229  0.8182  0.1026
12577TIP3   OH259221   6.254   0.480  11.071 -0.2215  0.4166  0.0647
12577TIP3    H159222   6.295   0.398  11.046  0.2211  0.7838 -0.4351
12577TIP3    H259223   6.300   0.547  11.019 -1.1268  0.8883 -0.1411
12578TIP3   OH259224   0.375   2.828   3.938  0.4007 -0.2653 -0.5713
12578TIP3    H159225   0.449   2.769   3.930  1.3609  0.8234 -0.0767
12578TIP3    H259226   0.302   2.772   3.963  1.1836 -1.2817 -0.5016
12579TIP3   OH259227   5.786   0.788   1.283  0.1419  0.0444  0.3444
12579TIP3    H159228   5.791   0.714   1.222 -1.9307  0.9544 -1.0216
12579TIP3    H259229   5.792   0.866   1.228  0.1077  0.9010  1.5178
12580TIP3   OH259230   6.397   2.251  15.581  0.1003  0.1357  0.2727
12580TIP3    H159231   6.324   2.307  15.554  1.6298  1.6150 -1.0554
12580TIP3    H259232   6.382   2.169  15.534 -1.2273  0.0415  0.8125
12581TIP3   OH259233   2.319   2.402  11.773  0.7912  0.0356 -0.3633
12581TIP3    H159234   2.265   2.464  11.822 -0.5610 -0.6074 -0.9858
12581TIP3    H259235   2.341   2.334  11.836 -1.2709 -0.9928 -0.6692
12582TIP3   OH259236   2.042   2.039   4.264  0.5320 -0.3175 -0.8840
12582TIP3    H159237   1.978   1.995   4.208  0.2682 -1.6023  0.3714
12582TIP3    H259238   2.119   1.982   4.261  0.9764  0.2853 -0.9656
12583TIP3   OH259239   4.485   0.479  13.410  0.0511 -0.0149 -0.2893
12583TIP3    H159240   4.554   0.448  13.469  0.4133  0.0863 -0.6555
12583TIP3    H259241   4.445   0.552  13.456  0.0747 -0.1804 -0.0027
12584TIP3   OH259242   1.674   2.257  14.883 -0.0477  0.6824 -0.3666
12584TIP3    H159243   1.648   2.344  14.914 -1.6505 -0.7192  2.6577
12584TIP3    H259244   1.672   2.202  14.961  1.0538 -2.0788 -2.1301
12585TIP3   OH259245   5.568   1.990   1.580  0.0459 -0.0032  0.3570
12585TIP3    H159246   5.531   1.969   1.666  0.4939  0.8666  0.7761
12585TIP3    H259247   5.590   1.905   1.542 -0.6022 -0.4240  0.8981
12586TIP3   OH259248   1.270   6.301  13.931 -0.3707  0.2581 -0.1591
12586TIP3    H159249   1.330   6.296  13.857 -0.4540 -1.9328 -0.1413
12586TIP3    H259250   1.326   6.300  14.008 -0.3003 -4.2085 -0.0518
12587TIP3   OH259251   3.358   0.093  15.188  0.3921  0.4970  0.5250
12587TIP3    H159252   3.380   0.013  15.236  3.0425 -0.0189 -1.3077
12587TIP3    H259253   3.279   0.070  15.138  0.7412 -0.7740  0.5201
12588TIP3   OH259254   1.991   3.131  15.069 -0.0379 -0.2704  0.3337
12588TIP3    H159255   2.038   3.048  15.061 -0.3983 -0.7204  2.4108
12588TIP3    H259256   2.054   3.190  15.111 -0.4267 -0.0764  0.6467
12589TIP3   OH259257   6.572   2.574  10.501 -0.2754 -0.1248  0.3843
12589TIP3    H159258   6.479   2.573  10.524  0.3143  0.4482  3.0640
12589TIP3    H259259   6.609   2.644  10.553  1.5081  0.4968 -1.5682
12590TIP3   OH259260   4.057   4.497  13.919  0.2154  0.2500 -0.5879
12590TIP3    H159261   4.134   4.553  13.918 -0.0638  0.6453 -0.1589
12590TIP3    H259262   3.984   4.556  13.941  0.0508 -0.4231  0.7969
12591TIP3   OH259263   5.046   2.460   1.331  0.0888 -0.3231  0.2436
12591TIP3    H159264   5.047   2.449   1.426  0.4293  0.5916  0.3618
12591TIP3    H259265   4.983   2.396   1.300 -0.3788 -0.3170  1.1332
12592TIP3   OH259266   3.567   3.477  15.780 -0.1062  0.1040 -0.9185
12592TIP3    H159267   3.658   3.447  15.789  0.2480  1.3304 -0.2087
12592TIP3    H259268   3.568   3.566  15.814 -1.7706 -0.1825 -0.0297
12593TIP3   OH259269   0.077   1.700   2.417 -0.6762  0.3647 -0.2914
12593TIP3    H159270   0.017   1.762   2.375 -0.4347 -0.3375 -1.7068
12593TIP3    H259271   0.020   1.637   2.460 -0.9301  0.7748 -0.0176
12594TIP3   OH259272   1.524   4.161  11.625 -0.1550  0.0050 -0.0177
12594TIP3    H159273   1.454   4.214  11.664 -1.3971 -1.4207 -0.2299
12594TIP3    H259274   1.528   4.191  11.534 -2.5079 -1.7966 -0.8060
12595TIP3   OH259275   5.617   0.337   5.692  0.2972 -0.6968  0.0274
12595TIP3    H159276   5.591   0.361   5.781  0.7818 -0.4447  0.1006
12595TIP3    H259277   5.710   0.357   5.688  0.5610 -1.8873 -0.1412
12596TIP3   OH259278   0.619   4.134  12.609 -0.3648 -0.0723 -0.2874
12596TIP3    H159279   0.711   4.126  12.587 -0.5561 -0.0559 -1.1380
12596TIP3    H259280   0.591   4.045  12.630 -0.1505 -0.0709  0.0082
12597TIP3   OH259281   3.357   3.575  11.599 -0.3450 -0.6526 -0.2955
12597TIP3    H159282   3.352   3.479  11.592  0.2848 -0.6256 -1.1960
12597TIP3    H259283   3.379   3.605  11.511 -0.0039  0.2899  0.0981
12598TIP3   OH259284   2.388   6.454  15.819  0.2307 -0.5214 -0.2968
12598TIP3    H159285   2.440   6.374  15.826  1.4496  0.2502 -0.3372
12598TIP3    H259286   2.440   6.521  15.862 -1.0410  0.1515  0.2491
12599TIP3   OH259287   6.464   5.847   0.198 -0.1176 -0.4031 -0.1191
12599TIP3    H159288   6.390   5.797   0.233 -0.9714  0.0469 -1.2194
12599TIP3    H259289   6.451   5.936   0.231  1.2121 -0.7764  1.5525
12600TIP3   OH259290   1.664   0.766   0.816  0.5441  0.0497 -0.1543
12600TIP3    H159291   1.711   0.760   0.900 -0.9545  2.6761  1.0249
12600TIP3    H259292   1.571   0.769   0.841 -0.0826 -1.3475 -2.1239
12601TIP3   OH259293   1.989   2.413   1.558 -0.3332  0.0212  0.4584
12601TIP3    H159294   1.975   2.384   1.649  0.9072  1.9814  1.3405
12601TIP3    H259295   2.015   2.334   1.512 -1.4702 -1.1247  1.6811
12602TIP3   OH259296   0.045   6.784   1.971  0.3023  0.1001  0.2078
12602TIP3    H159297   0.075   6.834   1.895  1.5531 -0.4352  0.3288
12602TIP3    H259298  -0.049   6.772   1.956  0.0062  2.2279  0.0491
12603TIP3   OH259299   1.938   2.367   5.345  0.5645 -0.2933  0.1468
12603TIP3    H159300   2.032   2.350   5.350  0.6730  0.4259  0.8320
12603TIP3    H259301   1.932   2.463   5.340 -0.1258 -0.3439 -0.0612
12604TIP3   OH259302   4.310   4.578   4.123  0.2453 -0.2872  0.3879
12604TIP3    H159303   4.222   4.592   4.159  0.7605 -2.2135  2.6792
12604TIP3    H259304   4.297   4.573   4.029 -2.1037 -0.3888  0.6586
12605TIP3   OH259305   6.021   2.689  10.676 -0.2529  0.5584 -0.1425
12605TIP3    H159306   6.064   2.765  10.637  0.7127 -0.1474 -0.4729
12605TIP3    H259307   5.929   2.699  10.650 -0.1335  1.5848 -0.2186
12606TIP3   OH259308   0.099   2.528   0.547 -0.3872  0.3444  0.4735
12606TIP3    H159309   0.028   2.479   0.590 -1.6291  1.9138  0.3235
12606TIP3    H259310   0.094   2.502   0.455 -1.2559  0.9767  0.3337
12607TIP3   OH259311   6.586   5.613   2.353  0.5238  0.0649 -0.0593
12607TIP3    H159312   6.583   5.648   2.264  0.4802 -1.2201 -0.5827
12607TIP3    H259313   6.494   5.606   2.379  0.4483 -1.0228 -0.5363
12608TIP3   OH259314   6.469   0.817   0.773 -0.1090 -0.6818  0.4315
12608TIP3    H159315   6.512   0.779   0.697 -0.4774 -0.7675  0.2638
12608TIP3    H259316   6.458   0.743   0.834 -3.1557 -1.5031 -0.9168
12609TIP3   OH259317   6.282   3.666  13.836 -0.2137 -0.3310  0.0106
12609TIP3    H159318   6.243   3.662  13.748 -0.9690 -1.3648  0.3817
12609TIP3    H259319   6.223   3.617  13.891  1.2923 -1.4355  0.7197
12610TIP3   OH259320   2.183   1.307  10.323  0.2543  0.0893 -0.4664
12610TIP3    H159321   2.245   1.271  10.386 -1.5499  0.9597  1.9728
12610TIP3    H259322   2.151   1.231  10.274 -0.5432 -1.1365  1.8174
12611TIP3   OH259323   4.041   4.859   4.034  0.1728  0.0290 -0.6896
12611TIP3    H159324   3.957   4.905   4.032  1.1214  1.9720  0.8509
12611TIP3    H259325   4.018   4.766   4.024 -2.3074  0.3476  1.1224
12612TIP3   OH259326   2.860   2.132  14.218  0.3513 -0.2083  0.2285
12612TIP3    H159327   2.793   2.166  14.277 -0.8594  0.4195 -1.4085
12612TIP3    H259328   2.825   2.148  14.130  1.2984 -2.5668 -0.6800
12613TIP3   OH259329   0.112   1.746  15.186 -0.0514  0.8269  0.0718
12613TIP3    H159330   0.019   1.725  15.177 -0.3269  1.1795  1.7934
12613TIP3    H259331   0.137   1.709  15.271  1.0007  2.0255  0.3149
12614TIP3   OH259332   3.199   4.188   5.118  0.0054  0.1523  0.4295
12614TIP3    H159333   3.154   4.229   5.043 -0.6800 -1.2562  0.0348
12614TIP3    H259334   3.172   4.240   5.193 -1.8309 -0.2771  0.1114
12615TIP3   OH259335   1.862   0.520   5.422  0.5036  0.3625 -0.3224
12615TIP3    H159336   1.902   0.606   5.419 -0.2958  0.8024  0.7435
12615TIP3    H259337   1.840   0.500   5.331 -1.9389  2.5993 -0.3592
12616TIP3   OH259338   1.606   0.861  14.156  0.3036 -0.9777 -0.5798
12616TIP3    H159339   1.599   0.950  14.122 -0.2761 -0.2826  1.2448
12616TIP3    H259340   1.527   0.817  14.126  0.2929 -0.6933 -0.9745
12617TIP3   OH259341   1.661   0.419   3.192 -0.2513 -0.1984  0.1881
12617TIP3    H159342   1.632   0.501   3.153 -0.2712  0.0544  0.7352
12617TIP3    H259343   1.638   0.352   3.126  0.5374  0.3135 -0.6332
12618TIP3   OH259344   5.518   2.614  14.938  0.3056 -0.5283  0.5880
12618TIP3    H159345   5.448   2.549  14.943  0.3932 -0.6235  0.5819
12618TIP3    H259346   5.577   2.591  15.010  0.5957 -0.7633  0.2801
12619TIP3   OH259347   4.185   6.572   0.296 -0.1044  0.2409 -0.4787
12619TIP3    H159348   4.267   6.540   0.260  0.9667 -0.2711  2.1564
12619TIP3    H259349   4.210   6.645   0.353 -1.2373 -0.7210  1.3762
12620TIP3   OH259350   6.565   1.323  13.252  0.1844 -0.3060 -0.7004
12620TIP3    H159351   6.525   1.377  13.183 -0.3328 -1.0483 -0.9956
12620TIP3    H259352   6.643   1.286  13.210 -0.3348 -1.0585 -1.0220
12621TIP3   OH259353   4.260   3.915  13.163 -0.1633  0.1790 -0.0082
12621TIP3    H159354   4.348   3.880  13.146  1.0256  2.1956  1.5573
12621TIP3    H259355   4.217   3.847  13.215  0.8311 -0.4438  0.0276
12622TIP3   OH259356   4.599   5.263  15.696 -0.4564 -0.1383  0.2724
12622TIP3    H159357   4.511   5.244  15.726 -0.3743  0.5270  0.9844
12622TIP3    H259358   4.654   5.249  15.774 -0.1979  1.3504  0.3840
12623TIP3   OH259359   0.694   1.506  13.230  0.1340 -0.4017  0.1847
12623TIP3    H159360   0.667   1.511  13.138  0.0868  0.6888  0.2442
12623TIP3    H259361   0.619   1.468  13.275 -0.5567  0.7729  0.0502
12624TIP3   OH259362   6.582   2.319  13.895  0.1157 -0.7119  0.3156
12624TIP3    H159363   6.518   2.364  13.950 -2.2149 -4.1088  0.6451
12624TIP3    H259364   6.595   2.378  13.820 -2.3310  0.7236  0.9218
12625TIP3   OH259365   2.696   3.620  14.761 -0.7251 -0.5496  0.1643
12625TIP3    H159366   2.623   3.610  14.822 -1.8122  1.2161 -0.7812
12625TIP3    H259367   2.680   3.704  14.717 -1.0230 -2.5515 -3.9352
12626TIP3   OH259368   4.965   1.087   6.607  0.3116 -0.2961 -0.2278
12626TIP3    H159369   5.059   1.070   6.598  0.3431 -0.4593  0.3315
12626TIP3    H259370   4.923   1.006   6.578  0.4598 -1.4191  2.3896
12627TIP3   OH259371   0.766   5.785  14.769 -0.3697 -0.4160 -0.0847
12627TIP3    H159372   0.847   5.741  14.745 -0.6996 -1.7066  1.0007
12627TIP3    H259373   0.788   5.835  14.848 -0.5470 -0.5829  0.0753
12628TIP3   OH259374   5.419   3.757   4.452  0.6760  0.1419 -0.0298
12628TIP3    H159375   5.503   3.713   4.461  0.7529  0.1380 -0.7084
12628TIP3    H259376   5.357   3.687   4.433  0.9288  0.3582 -1.9095
12629TIP3   OH259377   1.603   4.479   3.053 -0.3239  0.0220 -0.3337
12629TIP3    H159378   1.656   4.440   2.983  0.5820 -0.9235  0.8285
12629TIP3    H259379   1.513   4.453   3.033 -0.2917  1.0313 -1.9444
12630TIP3   OH259380   4.888   6.358  12.236 -0.2239 -0.1201  0.8357
12630TIP3    H159381   4.824   6.421  12.203  1.9820  1.8134 -0.0291
12630TIP3    H259382   4.881   6.284  12.176 -0.7364  0.6085 -0.0354
12631TIP3   OH259383   6.030   0.776  12.919 -0.1395 -0.0243  0.1559
12631TIP3    H159384   6.062   0.686  12.926  1.4059  0.5270  0.6400
12631TIP3    H259385   6.105   0.830  12.944 -1.2683  1.3821  0.6258
12632TIP3   OH259386   4.983   5.861   6.866 -0.0288 -0.1215  0.2852
12632TIP3    H159387   4.915   5.824   6.923  1.6587 -0.8768  1.9384
12632TIP3    H259388   5.012   5.940   6.912  1.4709 -0.8225  0.6076
12633TIP3   OH259389   2.596   5.594  13.046 -0.1804  0.3448  0.2798
12633TIP3    H159390   2.520   5.572  13.100  1.0044  0.7447  2.2304
12633TIP3    H259391   2.654   5.518  13.056 -0.5669 -0.2654 -1.7547
12634TIP3   OH259392   1.255   0.041   5.819 -0.5744 -1.1963 -0.3973
12634TIP3    H159393   1.348   0.020   5.823 -0.4931 -0.7408  0.1387
12634TIP3    H259394   1.226   0.004   5.736 -0.2109 -2.5002  0.0408
12635TIP3   OH259395   4.718   3.245  13.439  0.5077  0.7932 -0.3526
12635TIP3    H159396   4.702   3.293  13.358  0.6246  1.8379  0.2297
12635TIP3    H259397   4.791   3.291  13.480  2.1580 -1.2380 -0.8484
12636TIP3   OH259398   3.820   6.840  12.703  0.2401  0.5782 -0.5688
12636TIP3    H159399   3.766   6.821  12.780  2.6015  0.7189  1.2284
12636TIP3    H259400   3.853   6.928  12.718  2.7031 -0.2936 -0.4241
12637TIP3   OH259401   5.724   4.515   2.704 -0.8821  0.7197  0.8567
12637TIP3    H159402   5.801   4.499   2.757  0.5404  1.1375 -0.9803
12637TIP3    H259403   5.682   4.591   2.745  0.4777  1.3780  1.0736
12638TIP3   OH259404   6.486   5.596   3.540  0.0047 -0.4429 -0.0169
12638TIP3    H159405   6.391   5.600   3.552 -0.0242 -0.2561 -0.3124
12638TIP3    H259406   6.510   5.507   3.567  0.0398  0.1588  2.1387
12639TIP3   OH259407   4.778   5.173  15.499 -0.3887 -0.3559 -0.4843
12639TIP3    H159408   4.853   5.233  15.490  1.4047 -2.0678  1.8942
12639TIP3    H259409   4.718   5.219  15.558 -0.1458  0.0743 -0.5632
12640TIP3   OH259410   6.072   2.636   4.264  0.5678  0.0409 -0.8096
12640TIP3    H159411   6.096   2.612   4.353  1.2094  1.7809 -0.4699
12640TIP3    H259412   6.015   2.565   4.234  1.7988 -1.4907  0.3064
12641TIP3   OH259413   5.506   2.291  16.529 -0.1584  0.2314  0.2968
12641TIP3    H159414   5.424   2.249  16.555 -0.0588 -0.2725 -0.1944
12641TIP3    H259415   5.574   2.236  16.568 -0.0238 -0.1429 -0.4582
12642TIP3   OH259416   5.718   5.765  14.111 -0.3004  0.0386  0.2204
12642TIP3    H159417   5.692   5.857  14.113  1.6126  0.9263 -4.0064
12642TIP3    H259418   5.635   5.717  14.115 -1.6379  2.1172 -0.4984
12643TIP3   OH259419   2.854   1.754  11.743  0.0581 -0.2220  0.1598
12643TIP3    H159420   2.808   1.735  11.826 -2.1247  0.0096 -0.9110
12643TIP3    H259421   2.833   1.845  11.725 -0.3608 -0.5570 -1.1309
12644TIP3   OH259422   5.321   5.858  16.536  0.3234  0.4406  0.5583
12644TIP3    H159423   5.285   5.875  16.623  0.9767 -0.7568  1.0907
12644TIP3    H259424   5.281   5.924  16.480  0.4560  1.7095  1.9064
12645TIP3   OH259425   3.422   2.967   4.943 -0.1878 -0.7878 -0.1191
12645TIP3    H159426   3.457   3.051   4.974 -0.1775 -0.2667 -1.4684
12645TIP3    H259427   3.392   2.985   4.854 -1.7444 -1.8066  0.1471
12646TIP3   OH259428   6.549   6.216   0.442 -0.3795 -0.4959 -0.0749
12646TIP3    H159429   6.520   6.128   0.465 -1.3861 -0.1231  0.1234
12646TIP3    H259430   6.502   6.274   0.502 -0.9716  0.2887 -1.2549
12647TIP3   OH259431   2.371   4.977  12.777 -0.3519  0.2305  0.0570
12647TIP3    H159432   2.419   4.920  12.717 -1.2430  1.1210 -1.5818
12647TIP3    H259433   2.411   5.063  12.765 -0.1576  0.3101  1.2051
12648TIP3   OH259434   2.227   0.501   3.436  0.6837  0.0970  0.3159
12648TIP3    H159435   2.147   0.474   3.479  0.4476  1.1709  0.5835
12648TIP3    H259436   2.208   0.496   3.342 -0.0853  1.4164  0.3822
12649TIP3   OH259437   2.105   1.744  13.814  0.5632  0.3180 -0.0977
12649TIP3    H159438   2.033   1.764  13.754 -0.0123 -1.2923  0.0348
12649TIP3    H259439   2.177   1.799  13.783 -0.0140  0.2385 -1.6674
12650TIP3   OH259440   1.666   4.716  12.848  0.4427 -0.2841 -0.2266
12650TIP3    H159441   1.711   4.634  12.824  0.7900 -0.3666  0.6867
12650TIP3    H259442   1.710   4.783  12.796  1.3076 -0.4356  0.2890
12651TIP3   OH259443   5.759   4.118  12.595  0.3036 -0.1461  0.4721
12651TIP3    H159444   5.800   4.052  12.539  2.4089  1.1899  0.3452
12651TIP3    H259445   5.673   4.132  12.555 -0.0818 -2.5291  0.3217
12652TIP3   OH259446   6.122   3.750   5.560  0.8562  0.0279 -0.2446
12652TIP3    H159447   6.206   3.733   5.602  0.7592  0.5100  0.1626
12652TIP3    H259448   6.134   3.725   5.469  1.2924 -0.3584 -0.0816
12653TIP3   OH259449   3.483   1.771  11.335  0.1198 -0.1278 -0.3129
12653TIP3    H159450   3.445   1.757  11.422  0.3652 -1.2387 -0.3765
12653TIP3    H259451   3.515   1.861  11.337  0.7620 -0.3720  0.9863
12654TIP3   OH259452   6.193   4.855  15.552  0.0695 -0.1444 -0.4006
12654TIP3    H159453   6.106   4.838  15.516 -0.4995 -0.4281  1.0422
12654TIP3    H259454   6.253   4.815  15.489 -0.9073 -1.0806 -0.7800
12655TIP3   OH259455   6.084   2.940  12.009 -0.6446 -0.5141 -0.2758
12655TIP3    H159456   6.004   2.983  12.041 -0.5208  0.3627 -1.1120
12655TIP3    H259457   6.153   2.969  12.069 -0.6350  0.1279 -0.5976
12656TIP3   OH259458   6.819   3.382   0.771 -0.0701 -0.2173 -0.2661
12656TIP3    H159459   6.768   3.324   0.827  0.9227  0.5105  1.5036
12656TIP3    H259460   6.787   3.470   0.793  0.6233  0.1096 -0.5260
12657TIP3   OH259461   2.191   2.958  12.181 -0.1276 -0.0240  1.0558
12657TIP3    H159462   2.237   3.002  12.109 -0.8271 -2.1852 -0.7984
12657TIP3    H259463   2.114   3.013  12.197  0.6575  1.1300  1.0499
12658TIP3   OH259464   0.768   5.997   6.269 -0.7009  0.0282 -0.2713
12658TIP3    H159465   0.729   6.011   6.355  1.3893 -2.1326  1.1488
12658TIP3    H259466   0.847   6.052   6.269  0.0068 -0.9498 -0.2222
12659TIP3   OH259467   2.631   0.336  12.547  0.0501  0.0834 -0.2333
12659TIP3    H159468   2.547   0.292  12.534 -0.6110  1.5287 -1.1007
12659TIP3    H259469   2.621   0.383  12.630 -0.7553  1.8083 -1.2542
12660TIP3   OH259470   0.539   1.227   5.429 -0.0822 -0.7163  0.3638
12660TIP3    H159471   0.598   1.277   5.372 -0.3948  0.5262  1.0838
12660TIP3    H259472   0.539   1.276   5.511 -1.7694 -0.9487  0.5288
12661TIP3   OH259473   4.055   0.946   1.718 -0.2574 -0.0838  0.3459
12661TIP3    H159474   3.989   0.981   1.778 -0.5426  1.4274 -0.7951
12661TIP3    H259475   4.004   0.910   1.646  0.0869 -1.7731  0.8982
12662TIP3   OH259476   2.033   2.735  14.746 -0.4167 -0.2228  0.0049
12662TIP3    H159477   2.030   2.826  14.716  1.1576  0.4427  1.7137
12662TIP3    H259478   2.100   2.694  14.692 -1.2913 -0.4763 -0.9289
12663TIP3   OH259479   2.850   1.720  12.599  0.1245 -0.3066 -0.1922
12663TIP3    H159480   2.783   1.789  12.597  2.1448  1.7957  0.2478
12663TIP3    H259481   2.863   1.697  12.507  0.2191  0.7491 -0.4579
12664TIP3   OH259482   3.164   6.724   3.792  0.4550  0.2746  0.0474
12664TIP3    H159483   3.231   6.760   3.851 -0.4517 -0.1990  1.4323
12664TIP3    H259484   3.083   6.731   3.842 -0.2355 -0.8439 -0.8671
12665TIP3   OH259485   5.896   2.999   5.783  0.2613  0.3259  0.0540
12665TIP3    H159486   5.987   2.986   5.808 -0.4536 -0.5905  2.4097
12665TIP3    H259487   5.872   2.918   5.738  0.7606  0.8607 -1.2403
12666TIP3   OH259488   4.059   2.520  12.226 -0.2085  0.2031  0.4622
12666TIP3    H159489   4.143   2.510  12.270  0.4687  3.5949  0.2763
12666TIP3    H259490   3.996   2.531  12.297 -0.6641 -2.6451  0.6099
12667TIP3   OH259491   5.589   0.102   3.191 -0.5160  0.0094  0.6000
12667TIP3    H159492   5.549   0.100   3.278  0.9979 -0.2637  1.3358
12667TIP3    H259493   5.664   0.161   3.201  1.1021 -1.8600  0.1729
12668TIP3   OH259494   1.416   4.667   0.204 -0.0677 -0.3362 -0.1218
12668TIP3    H159495   1.430   4.720   0.283  0.5944  0.0266 -0.4737
12668TIP3    H259496   1.321   4.662   0.195 -0.1443  0.9650 -0.1926
12669TIP3   OH259497   3.972   3.734   2.429  0.5290 -0.4979  0.7970
12669TIP3    H159498   4.042   3.683   2.388 -0.3377 -0.1445 -1.3020
12669TIP3    H259499   4.006   3.823   2.432  0.4572 -0.4565  0.4568
12670TIP3   OH259500   2.393   5.763   2.343  0.2459 -0.4120  0.5648
12670TIP3    H159501   2.439   5.754   2.426  0.2238 -1.3267  0.4854
12670TIP3    H259502   2.456   5.735   2.277  0.5095  0.9889  0.1900
12671TIP3   OH259503   2.534   4.777   1.239 -0.3199 -0.0576  0.3930
12671TIP3    H159504   2.602   4.717   1.270  0.3317  0.3839 -0.1355
12671TIP3    H259505   2.469   4.720   1.197  0.8253 -0.3412 -1.0892
12672TIP3   OH259506   4.061   6.384  12.058 -0.5072 -0.5246 -0.0012
12672TIP3    H159507   4.087   6.397  12.149 -0.5233 -1.1515  0.0922
12672TIP3    H259508   3.965   6.394  12.059 -0.4129  0.5943 -0.1486
12673TIP3   OH259509   6.783   2.281   2.859  0.1834  0.3253 -0.4929
12673TIP3    H159510   6.830   2.362   2.837  0.8795  0.2310  0.5751
12673TIP3    H259511   6.694   2.310   2.878  0.0260  0.6283 -1.6338
12674TIP3   OH259512   1.082   5.871   0.218  0.2545  0.1528  0.0025
12674TIP3    H159513   1.075   5.791   0.166 -0.9501 -0.1651  0.6152
12674TIP3    H259514   1.128   5.844   0.297  0.3456  0.2042 -0.0318
12675TIP3   OH259515   3.240   2.991   0.242 -0.5426  0.0142  0.5212
12675TIP3    H159516   3.259   3.082   0.261 -1.0418 -0.0479  1.3765
12675TIP3    H259517   3.165   2.994   0.182 -0.2957  0.1694  0.2170
12676TIP3   OH259518   2.716   6.383  16.784 -0.1129  0.0054 -0.0289
12676TIP3    H159519   2.623   6.397  16.766  0.0787  2.7155  0.6727
12676TIP3    H259520   2.716   6.333  16.866 -1.0009  1.1431  0.7067
12677TIP3   OH259521   3.571   0.919   2.036 -0.9922  0.8197 -0.1456
12677TIP3    H159522   3.648   0.976   2.034 -0.4584  0.1167 -2.4824
12677TIP3    H259523   3.515   0.951   1.966 -0.9160 -1.1309 -1.1773
12678TIP3   OH259524   5.574   3.779   5.169  0.1503 -0.0836 -0.6253
12678TIP3    H159525   5.611   3.848   5.224  0.3709 -1.1706  0.6084
12678TIP3    H259526   5.481   3.776   5.193  0.0778 -0.0399 -0.8901
12679TIP3   OH259527   6.637   2.489  14.267 -0.2724  0.0363 -0.2396
12679TIP3    H159528   6.581   2.489  14.189 -0.3751 -1.0567 -0.1751
12679TIP3    H259529   6.711   2.433  14.243  0.9513  1.6527 -0.4134
12680TIP3   OH259530   6.175   3.537   6.396  0.0862 -0.7015 -0.2616
12680TIP3    H159531   6.179   3.629   6.424 -2.6969 -0.2287 -1.1663
12680TIP3    H259532   6.218   3.489   6.467  0.6898  1.1814  0.7222
12681TIP3   OH259533   0.698   2.997   3.378  0.1628  0.9666  0.2938
12681TIP3    H159534   0.713   2.924   3.317 -0.5272  0.8310  0.2754
12681TIP3    H259535   0.614   3.034   3.351 -0.2456  0.7915  1.2736
12682TIP3   OH259536   5.323   0.604   4.208 -0.0081 -0.4840 -0.5019
12682TIP3    H159537   5.356   0.568   4.291 -3.0332  0.5654  1.3180
12682TIP3    H259538   5.402   0.625   4.158  1.9462 -1.6961  1.8583
12683TIP3   OH259539   1.241   1.222  12.148  0.3021  0.7094 -0.2555
12683TIP3    H159540   1.167   1.270  12.110 -0.6931  0.2332  1.0323
12683TIP3    H259541   1.284   1.286  12.205  1.0218  1.0397 -1.1403
12684TIP3   OH259542   1.007   2.950   1.527 -0.3690  0.2337  0.4057
12684TIP3    H159543   0.976   3.020   1.584  1.6411  1.9640 -0.5168
12684TIP3    H259544   1.102   2.947   1.541 -0.2414 -1.5067 -0.4960
12685TIP3   OH259545   4.599   6.000  15.266 -0.0004 -0.2450 -0.0659
12685TIP3    H159546   4.617   6.068  15.331  2.5258 -0.9539  0.0879
12685TIP3    H259547   4.507   5.977  15.280  0.5553 -0.8029  3.7424
12686TIP3   OH259548   5.985   4.724  14.916 -0.4042 -0.3251  0.4411
12686TIP3    H159549   5.971   4.816  14.891  1.2948 -0.1045  0.1763
12686TIP3    H259550   5.897   4.690  14.930 -1.0344  1.8730  2.5274
12687TIP3   OH259551   4.609   3.707  15.269 -0.4387  0.7917 -0.4664
12687TIP3    H159552   4.649   3.622  15.250 -0.4052  0.9649 -1.1829
12687TIP3    H259553   4.585   3.702  15.362 -0.8400 -0.1670 -0.6142
12688TIP3   OH259554   6.391   5.740   0.803  0.1771 -1.0401 -0.2215
12688TIP3    H159555   6.452   5.674   0.838  1.6997 -0.5125 -1.7639
12688TIP3    H259556   6.378   5.714   0.712 -2.5612 -1.5614  0.2379
12689TIP3   OH259557   0.564   3.405  11.477 -0.2243 -0.2947  0.4486
12689TIP3    H159558   0.562   3.323  11.429  0.5578 -0.5419  0.8187
12689TIP3    H259559   0.657   3.424  11.488 -0.2889 -1.2591  3.5391
12690TIP3   OH259560   3.732   1.211   2.215 -0.0590 -0.2198  0.1358
12690TIP3    H159561   3.784   1.160   2.153 -0.0332  0.0070 -0.0302
12690TIP3    H259562   3.659   1.245   2.163 -0.1993 -0.2761  0.2957
12691TIP3   OH259563   6.267   3.210   4.058 -0.3097 -0.4704 -0.1136
12691TIP3    H159564   6.278   3.270   3.984  1.4432  1.9391  1.9216
12691TIP3    H259565   6.181   3.231   4.093  0.6021  1.5933  1.0616
12692TIP3   OH259566   1.997   4.849  13.650 -0.1788  0.3683  0.3182
12692TIP3    H159567   1.931   4.845  13.581 -0.2386 -0.4823  0.4160
12692TIP3    H259568   2.015   4.758  13.672 -0.0576  0.6221  1.3370
12693TIP3   OH259569   4.453   3.705   2.209  0.4378 -0.2522  0.0769
12693TIP3    H159570   4.533   3.697   2.156  0.2160  1.0328 -0.5019
12693TIP3    H259571   4.480   3.680   2.297  1.0919 -1.3399 -0.4133
12694TIP3   OH259572   0.564   2.366  13.275 -0.3350 -0.2179 -0.7304
12694TIP3    H159573   0.569   2.449  13.321  0.6085 -1.4139  1.5036
12694TIP3    H259574   0.542   2.302  13.343  0.4565 -2.0018 -2.0534
12695TIP3   OH259575   3.307   1.461   1.421  0.3383 -0.7883  0.4033
12695TIP3    H159576   3.390   1.431   1.383  0.1798 -0.8137  0.0767
12695TIP3    H259577   3.279   1.389   1.478 -0.5175 -1.6748 -1.0985
12696TIP3   OH259578   3.750   5.215   2.037  0.0956  0.1609  0.4925
12696TIP3    H159579   3.748   5.298   1.989  1.5833 -0.8008 -1.3815
12696TIP3    H259580   3.843   5.197   2.049 -0.2276 -0.6420  2.0321
12697TIP3   OH259581   3.782   6.859   0.298 -0.3371  0.0579  0.0090
12697TIP3    H159582   3.727   6.855   0.377  0.0594 -1.1376  0.2539
12697TIP3    H259583   3.825   6.773   0.296  0.7900  0.6301 -0.7039
12698TIP3   OH259584   1.558   2.674   4.208  0.6074  0.2877  0.8905
12698TIP3    H159585   1.469   2.645   4.228  0.4398  0.2722  0.1261
12698TIP3    H259586   1.547   2.759   4.165  0.8520 -0.4274 -0.6546
12699TIP3   OH259587   0.463   3.787   0.095  0.3544  0.0922 -0.4348
12699TIP3    H159588   0.373   3.815   0.079  0.4409  0.4097 -0.3659
12699TIP3    H259589   0.501   3.777   0.008  0.1362 -0.4258 -0.4740
12700TIP3   OH259590   1.896   3.561   4.623  0.3359  0.1558 -1.2148
12700TIP3    H159591   1.883   3.549   4.717  1.7444 -1.1348 -1.1515
12700TIP3    H259592   1.813   3.597   4.592  0.1419  1.4602  0.6529
12701TIP3   OH259593   1.054   4.900  16.157  0.2490  0.8315  0.1499
12701TIP3    H159594   1.041   4.807  16.136  1.2792  0.9441 -1.1153
12701TIP3    H259595   0.975   4.924  16.206 -1.0881 -0.1727 -1.3913
12702TIP3   OH259596   4.575   6.547  15.587 -0.9070  0.6316 -0.4586
12702TIP3    H159597   4.492   6.552  15.540 -1.4413  1.4410  0.5288
12702TIP3    H259598   4.618   6.631  15.570 -0.6161  0.5041 -0.3712
12703TIP3   OH259599   6.314   0.830  15.239 -0.1468 -0.3421 -0.5530
12703TIP3    H159600   6.403   0.865  15.231 -0.5129  0.8512  0.1966
12703TIP3    H259601   6.321   0.763  15.307  0.1950 -0.3010 -0.5443
12704TIP3   OH259602   4.200   0.366   0.605 -0.1728 -0.4977  0.3385
12704TIP3    H159603   4.281   0.415   0.594 -0.3729 -0.3910 -0.8069
12704TIP3    H259604   4.131   0.432   0.603 -0.3911 -0.7345 -0.4294
12705TIP3   OH259605   3.751   3.349   0.384  0.0107  0.3680  0.4902
12705TIP3    H159606   3.722   3.435   0.414  0.9763  0.6665  0.6113
12705TIP3    H259607   3.842   3.343   0.414 -0.6532 -1.5796  2.3781
12706TIP3   OH259608   2.988   1.793   1.554  0.5252  0.1320  0.2935
12706TIP3    H159609   2.953   1.719   1.504  1.4999  0.7454 -1.3881
12706TIP3    H259610   3.072   1.761   1.587  0.7365  0.3190 -0.0524
12707TIP3   OH259611   3.192   5.067   4.578  0.3512  0.1918 -0.0692
12707TIP3    H159612   3.180   5.087   4.486 -1.9929  1.8721  0.5108
12707TIP3    H259613   3.282   5.092   4.597  0.6187  0.5584 -1.7074
12708TIP3   OH259614   5.518   6.590   2.675 -0.3918 -0.2086  0.3493
12708TIP3    H159615   5.451   6.579   2.743 -0.7552  0.7415  0.1614
12708TIP3    H259616   5.580   6.652   2.713 -0.2759 -0.1322  0.0349
12709TIP3   OH259617   2.766   6.332   1.144  0.1134  0.5965 -0.2111
12709TIP3    H159618   2.684   6.331   1.095 -0.7209 -2.5247  1.0114
12709TIP3    H259619   2.806   6.247   1.126  1.6866  0.9289  1.4335
12710TIP3   OH259620   5.653   5.484  12.099  0.3773 -0.2213 -0.7478
12710TIP3    H159621   5.666   5.502  12.005 -1.1694  1.2311 -0.7361
12710TIP3    H259622   5.687   5.561  12.143 -1.5455  0.4506 -0.3337
12711TIP3   OH259623   2.417   0.831  14.130 -0.8021  0.4362 -0.5527
12711TIP3    H159624   2.472   0.763  14.092 -0.1510  0.7521 -0.1950
12711TIP3    H259625   2.346   0.844  14.067  0.5693  1.3729 -1.9693
12712TIP3   OH259626   6.650   6.810   6.045 -0.7740  0.0250 -0.0511
12712TIP3    H159627   6.669   6.897   6.012 -3.4118  1.3600  1.6478
12712TIP3    H259628   6.564   6.789   6.010 -0.0743 -2.0858 -0.6825
12713TIP3   OH259629   6.506   6.618  12.403  0.5540  0.4951 -0.5190
12713TIP3    H159630   6.582   6.562  12.393  0.3125  0.4417 -2.3376
12713TIP3    H259631   6.501   6.635  12.497  1.6072 -1.1428 -0.1261
12714TIP3   OH259632   4.066   1.718  13.011  0.3291 -0.3033 -0.1941
12714TIP3    H159633   4.054   1.625  13.030  2.4003 -0.8502 -1.2421
12714TIP3    H259634   3.978   1.755  13.012 -0.4848 -2.1557  0.7728
12715TIP3   OH259635   0.763   5.291   0.658 -0.3419 -0.5698 -0.2891
12715TIP3    H159636   0.681   5.258   0.621  0.0083 -0.6380 -1.0366
12715TIP3    H259637   0.831   5.246   0.608  0.1579  1.4699 -1.5464
12716TIP3   OH259638   2.315   2.691  15.105  0.4052  0.1134  0.3348
12716TIP3    H159639   2.324   2.610  15.055  0.8045  1.2305 -1.5199
12716TIP3    H259640   2.300   2.663  15.195  0.7220 -2.0021 -0.2251
12717TIP3   OH259641   3.221   6.733  11.835  0.6222  0.5683  0.3623
12717TIP3    H159642   3.186   6.728  11.746 -0.1380  2.5711  0.4760
12717TIP3    H259643   3.158   6.685  11.889 -0.3457  1.5567  0.1423
12718TIP3   OH259644   1.176   6.253  13.558 -0.2425 -0.1582 -0.7206
12718TIP3    H159645   1.201   6.345  13.568  0.4511 -0.4160  0.0629
12718TIP3    H259646   1.123   6.251  13.478 -0.3808  0.9391 -0.6725
12719TIP3   OH259647   0.336   6.572  15.027  0.0301  0.0028  0.1270
12719TIP3    H159648   0.341   6.643  15.091 -0.6251  0.1183  0.0651
12719TIP3    H259649   0.380   6.498  15.068  0.3156  0.3118  0.3793
12720TIP3   OH259650   6.729   2.054   2.679 -0.8476 -0.2289 -0.2990
12720TIP3    H159651   6.741   2.127   2.740  2.1789 -0.6885 -0.1653
12720TIP3    H259652   6.696   1.983   2.733 -0.4647  0.0517  0.3121
12721TIP3   OH259653   0.770   3.743   1.750 -0.5694 -0.0207  0.1805
12721TIP3    H159654   0.693   3.698   1.716 -2.2325  1.2308  2.0434
12721TIP3    H259655   0.792   3.807   1.683  0.1286 -1.7113 -1.2571
12722TIP3   OH259656   5.155   5.203  14.289 -0.2216  0.4146  0.9016
12722TIP3    H159657   5.242   5.187  14.325  0.7336  0.7996 -1.0679
12722TIP3    H259658   5.127   5.118  14.254 -0.9270  0.1519  2.0552
12723TIP3   OH259659   4.837   1.038  10.555 -0.2459 -0.1322 -0.1832
12723TIP3    H159660   4.911   1.060  10.498 -0.5224 -0.8436 -0.8282
12723TIP3    H259661   4.869   0.965  10.609  0.3121  1.0943  1.2174
12724TIP3   OH259662   0.991   1.047  13.103  0.1597 -0.1177  0.7481
12724TIP3    H159663   1.012   1.019  13.014 -0.1252  0.2539  0.5564
12724TIP3    H259664   0.908   1.094  13.093 -1.6001 -2.8157  1.6942
12725TIP3   OH259665   3.280   6.156   3.246  0.1740 -0.8187  0.0500
12725TIP3    H159666   3.354   6.102   3.275  0.8297 -0.3363 -0.7129
12725TIP3    H259667   3.319   6.240   3.222 -0.5047 -0.8075 -1.0882
12726TIP3   OH259668   1.666   2.661   6.090 -0.0818 -0.5711 -0.3675
12726TIP3    H159669   1.632   2.746   6.063  0.8108 -0.8253 -2.5162
12726TIP3    H259670   1.593   2.600   6.075 -0.9865 -0.1692  1.8965
12727TIP3   OH259671   0.643   4.550   0.315  0.0615 -0.0590  0.2121
12727TIP3    H159672   0.575   4.523   0.254 -0.9149  0.3772  1.0720
12727TIP3    H259673   0.656   4.643   0.296  0.3367 -0.1147  0.1284
12728TIP3   OH259674   6.245   3.758   2.491  0.6482 -0.3766  0.2133
12728TIP3    H159675   6.228   3.750   2.585  0.1272 -0.4486  0.1147
12728TIP3    H259676   6.339   3.774   2.485  0.4997  0.8797  0.8258
12729TIP3   OH259677   0.341   1.645   0.141 -0.2997 -0.5880 -0.1908
12729TIP3    H159678   0.326   1.639   0.236  0.7328 -2.3868 -0.0930
12729TIP3    H259679   0.421   1.696   0.132 -0.5322 -0.2064 -0.1188
12730TIP3   OH259680   1.516   3.977   2.978 -0.0789  0.2907  0.3265
12730TIP3    H159681   1.465   3.911   3.025 -1.5567 -0.4407 -2.1436
12730TIP3    H259682   1.485   3.973   2.888  1.2644  2.9515 -0.3766
12731TIP3   OH259683   6.031   1.748  14.142 -0.2960  0.0657  0.0780
12731TIP3    H159684   6.018   1.695  14.063  3.6069  0.2739 -0.8989
12731TIP3    H259685   6.025   1.686  14.214  1.0134 -1.1628 -0.8173
12732TIP3   OH259686   2.027   2.827  14.038 -0.5187 -0.1022 -0.0408
12732TIP3    H159687   2.046   2.834  14.131 -0.8609  0.1156  0.0131
12732TIP3    H259688   1.933   2.810  14.033 -0.1267 -2.6007 -0.2495
12733TIP3   OH259689   0.392   0.384   3.895 -0.3777  0.3076 -0.1690
12733TIP3    H159690   0.398   0.383   3.799 -1.0628  1.3324 -0.2427
12733TIP3    H259691   0.415   0.474   3.919  0.1816 -0.0484  0.6712
12734TIP3   OH259692   6.311   4.921   3.484  0.5688  0.4251 -0.3194
12734TIP3    H159693   6.297   5.009   3.520 -0.0463  1.4713 -2.8796
12734TIP3    H259694   6.234   4.906   3.429 -0.0989 -2.4256  1.2133
12735TIP3   OH259695   2.023   3.212  14.171  0.6781  0.0809  0.0629
12735TIP3    H159696   1.946   3.170  14.211 -0.0744  1.9033  0.6297
12735TIP3    H259697   1.999   3.226  14.080  0.8203 -0.4332 -0.0568
12736TIP3   OH259698   5.677   3.407   5.405 -0.4613 -0.0380 -0.0167
12736TIP3    H159699   5.730   3.419   5.327 -1.1427  0.0719 -0.4704
12736TIP3    H259700   5.588   3.429   5.377 -0.5895  0.8255  0.9916
12737TIP3   OH259701   6.107   4.281   1.790 -0.6797 -0.2220  0.0782
12737TIP3    H159702   6.082   4.290   1.882  0.1296  0.7181  0.2249
12737TIP3    H259703   6.024   4.273   1.743 -1.2240  1.4268  0.6870
12738TIP3   OH259704   4.841   1.619   4.245 -0.7685  0.2580 -0.0615
12738TIP3    H159705   4.749   1.593   4.245 -0.6820 -0.0608  0.2237
12738TIP3    H259706   4.862   1.634   4.338  0.1694 -2.2272  0.2101
12739TIP3   OH259707   2.882   0.885  16.640  0.1013 -0.2494 -0.1228
12739TIP3    H159708   2.948   0.860  16.576 -1.0132  0.4761 -1.6196
12739TIP3    H259709   2.932   0.923  16.713  1.3123  3.4103 -2.5790
12740TIP3   OH259710   2.875   4.296   6.631 -0.1951  0.4517  0.6042
12740TIP3    H159711   2.823   4.244   6.691 -0.9634  0.9016  0.3400
12740TIP3    H259712   2.849   4.265   6.544  1.0561 -0.3373  0.4917
12741TIP3   OH259713   2.167   0.979   1.474 -0.0237 -0.1109 -0.2481
12741TIP3    H159714   2.123   1.023   1.547 -1.4145  1.0973 -1.7285
12741TIP3    H259715   2.260   0.981   1.498 -0.4049  0.5213  1.3387
12742TIP3   OH259716   0.937   0.141   0.251  0.0004  0.1894  0.4055
12742TIP3    H159717   0.981   0.174   0.330  2.3307  0.8514 -1.0723
12742TIP3    H259718   1.008   0.113   0.194 -1.6221 -0.4304 -1.4195
12743TIP3   OH259719   5.405   5.528  12.846  0.0671  0.0275  0.1720
12743TIP3    H159720   5.410   5.483  12.761 -1.3703  0.7239 -0.3263
12743TIP3    H259721   5.431   5.618  12.826  0.4461  0.0179  0.6251
12744TIP3   OH259722   3.240   0.025  15.558 -0.0869  0.0409 -0.0511
12744TIP3    H159723   3.315   0.083  15.544  0.2851  0.1139  1.9897
12744TIP3    H259724   3.179   0.076  15.612 -2.0325  0.2721 -2.2953
12745TIP3   OH259725   5.344   5.373  15.396  0.0640 -0.2556  0.3877
12745TIP3    H159726   5.427   5.374  15.443  0.5874  1.2749 -0.5036
12745TIP3    H259727   5.329   5.280  15.376  2.4056 -0.4356 -0.8773
12746TIP3   OH259728   2.301   6.241  13.820  0.2155  0.3244  0.4963
12746TIP3    H159729   2.365   6.195  13.875 -0.5316 -1.1018  0.2273
12746TIP3    H259730   2.257   6.301  13.880  2.2964  1.9274  0.5293
12747TIP3   OH259731   4.379   6.704  17.016  0.0827  0.1550  0.1256
12747TIP3    H159732   4.440   6.776  17.001  0.2087  0.7794  3.0049
12747TIP3    H259733   4.422   6.650  17.083 -2.1329  0.1681  1.6509
12748TIP3   OH259734   1.537   5.432  13.247  0.4854 -0.1052 -0.5223
12748TIP3    H159735   1.584   5.494  13.190  3.2132 -1.3359  0.2198
12748TIP3    H259736   1.487   5.377  13.187 -0.8386  1.8261 -1.2914
12749TIP3   OH259737   2.019   4.272   0.758  0.1375 -0.4426  0.2775
12749TIP3    H159738   1.999   4.219   0.835 -0.9618  0.6788  0.8011
12749TIP3    H259739   2.113   4.261   0.745  0.0720 -1.9203  0.7946
12750TIP3   OH259740   3.284   1.028   5.695  0.4318 -0.5045 -0.1376
12750TIP3    H159741   3.208   0.988   5.655 -0.4523  1.6762 -0.7994
12750TIP3    H259742   3.272   1.016   5.789 -1.2141  0.5276 -0.1770
12751TIP3   OH259743   6.701   1.140  14.214  0.9242  0.6196  0.4020
12751TIP3    H159744   6.620   1.192  14.206  0.0841 -0.4564  1.5594
12751TIP3    H259745   6.679   1.055  14.178  1.4802  0.2601  0.8823
12752TIP3   OH259746   6.474   3.475   6.259 -0.0216 -0.0738 -0.1777
12752TIP3    H159747   6.566   3.448   6.262  0.2189  0.7174 -0.1409
12752TIP3    H259748   6.470   3.554   6.312 -0.2314  1.2764 -2.0890
12753TIP3   OH259749   6.749   1.968   3.560 -0.0648  0.3115 -0.2220
12753TIP3    H159750   6.679   1.911   3.527 -1.1030  1.6881 -0.4731
12753TIP3    H259751   6.777   2.018   3.484  0.1989  0.7986  0.1912
12754TIP3   OH259752   6.643   6.530   0.351 -0.7412  0.3029  0.3037
12754TIP3    H159753   6.566   6.540   0.406 -0.0481 -0.9930  1.5574
12754TIP3    H259754   6.659   6.436   0.348  1.1346  0.5743  0.5630
12755TIP3   OH259755   4.309   1.877   0.296  0.5333  0.0416  0.1556
12755TIP3    H159756   4.237   1.890   0.235  0.6566  0.3106  0.0658
12755TIP3    H259757   4.383   1.852   0.240 -0.0163 -2.4101  0.4208
12756TIP3   OH259758   1.525   2.425  16.441  0.1849  0.0289  0.2624
12756TIP3    H159759   1.438   2.420  16.480  0.6236 -0.5499  1.2101
12756TIP3    H259760   1.509   2.444  16.349 -0.9511 -0.2259  0.3894
12757TIP3   OH259761   6.778   3.174  16.769 -0.2809 -0.2105  0.1143
12757TIP3    H159762   6.741   3.260  16.752 -1.8610 -0.4666  1.8859
12757TIP3    H259763   6.853   3.191  16.827  0.0386  0.0326 -0.3662
12758TIP3   OH259764   2.440   2.290   1.509 -0.6459  0.8378 -0.5405
12758TIP3    H159765   2.435   2.309   1.415  2.8982  4.9717 -0.2050
12758TIP3    H259766   2.362   2.330   1.546 -1.8612 -0.4666 -1.5810
12759TIP3   OH259767   2.131   3.931  10.566  0.4094 -0.0966  0.1194
12759TIP3    H159768   2.197   4.000  10.560  0.2130  0.0388 -0.5276
12759TIP3    H259769   2.048   3.976  10.553  0.1967 -0.2961  0.7410
12760TIP3   OH259770   5.313   5.875   1.608  0.1271 -0.2238  0.1900
12760TIP3    H159771   5.364   5.925   1.545  2.1648  1.2487  2.8036
12760TIP3    H259772   5.252   5.939   1.646 -0.8456 -0.9981 -0.0276
12761TIP3   OH259773   4.337   0.481  11.374 -0.6474  0.1305 -0.0835
12761TIP3    H159774   4.411   0.541  11.377 -0.0790 -0.5765  0.3374
12761TIP3    H259775   4.327   0.460  11.281 -0.3323  0.2411 -0.1442
12762TIP3   OH259776   2.732   3.971  11.395  0.3137  0.2236 -0.0544
12762TIP3    H159777   2.777   3.887  11.385  0.9519  0.7289 -1.7801
12762TIP3    H259778   2.668   3.973  11.325  1.4760  1.8537 -1.1512
12763TIP3   OH259779   4.908   3.886  15.639 -0.2433 -0.0719 -0.0403
12763TIP3    H159780   4.880   3.832  15.713 -3.3414 -0.0293 -1.0589
12763TIP3    H259781   4.926   3.824  15.569 -0.5469  0.0554 -0.2314
12764TIP3   OH259782   0.365   0.952   5.158 -0.3301  0.2776  0.3277
12764TIP3    H159783   0.381   0.980   5.068  0.6610 -0.1641  0.3554
12764TIP3    H259784   0.425   1.006   5.211  0.2976 -0.6125  0.5485
12765TIP3   OH259785   2.337   2.640  16.682  0.7407 -0.1221  0.4914
12765TIP3    H159786   2.337   2.734  16.665 -0.2343 -0.3645 -1.1082
12765TIP3    H259787   2.252   2.610  16.650  1.5315 -1.7287 -0.2260
12766TIP3   OH259788   6.240   6.281   5.816  0.1122  0.0769 -0.5143
12766TIP3    H159789   6.145   6.271   5.828  0.0800  2.0643  1.3810
12766TIP3    H259790   6.268   6.335   5.889  2.8440 -0.8859 -0.7474
12767TIP3   OH259791   3.697   0.028  14.489 -0.5229  0.5782  0.2913
12767TIP3    H159792   3.661  -0.038  14.549 -2.5106 -0.9337 -2.3343
12767TIP3    H259793   3.639   0.104  14.501 -0.7854  0.3623  0.4261
12768TIP3   OH259794   0.584   0.194   2.709  0.1881 -0.6370  0.2441
12768TIP3    H159795   0.579   0.288   2.726 -0.7868 -0.9518  1.9725
12768TIP3    H259796   0.505   0.159   2.749  0.5045 -2.2003 -0.4390
12769TIP3   OH259797   4.580   1.772  11.830  0.2321  0.2793  0.1766
12769TIP3    H159798   4.535   1.845  11.788 -0.0995  0.5029  0.9035
12769TIP3    H259799   4.518   1.699  11.824  0.0239  0.4178  0.6227
12770TIP3   OH259800   3.109   2.098  15.245 -0.3511 -0.3280  0.5951
12770TIP3    H159801   3.071   2.016  15.214  3.4929 -1.1622 -2.9382
12770TIP3    H259802   3.175   2.071  15.310  1.1789 -0.2304 -0.8420
12771TIP3   OH259803   6.768   3.866   2.600  0.3598  0.3151  0.0922
12771TIP3    H159804   6.794   3.777   2.576 -0.3450  0.4909 -1.4486
12771TIP3    H259805   6.786   3.918   2.522 -0.3532  1.2975  0.5590
12772TIP3   OH259806   2.765   6.705  10.678  0.9647  0.4724 -0.2809
12772TIP3    H159807   2.806   6.635  10.728  0.1166 -1.3784 -2.0237
12772TIP3    H259808   2.672   6.700  10.700  1.1203  2.4321  1.0898
12773TIP3   OH259809   6.604   5.970  11.029 -0.3788  0.0530  0.2654
12773TIP3    H159810   6.698   5.958  11.039  0.3412  0.4886 -4.0290
12773TIP3    H259811   6.593   6.059  10.997 -1.6443 -1.0804 -3.0137
12774TIP3   OH259812   0.762   4.317   1.044  0.1496  0.0529 -0.1451
12774TIP3    H159813   0.848   4.318   1.003  1.1296 -1.5346  1.6937
12774TIP3    H259814   0.756   4.230   1.084 -0.8614  1.3085  2.6800
12775TIP3   OH259815   5.086   6.657   2.895 -0.3958  0.2503 -0.1626
12775TIP3    H159816   5.131   6.657   2.810 -1.9650 -0.0700 -1.0279
12775TIP3    H259817   5.023   6.585   2.889  0.6300 -0.9317  1.9574
12776TIP3   OH259818   1.473   4.501   1.260  0.6966 -0.1627 -0.3673
12776TIP3    H159819   1.422   4.529   1.336 -0.0545  2.8616 -1.8342
12776TIP3    H259820   1.410   4.456   1.205  0.8543 -0.9060  0.0484
12777TIP3   OH259821   1.447   2.170   3.703 -0.2400  0.7691 -0.2296
12777TIP3    H159822   1.539   2.142   3.700 -0.9013 -1.7087  0.6759
12777TIP3    H259823   1.397   2.089   3.706 -2.4926  2.0654 -0.6634
12778TIP3   OH259824   5.279   3.255   4.471 -0.0634  0.1033 -0.5112
12778TIP3    H159825   5.322   3.217   4.394  1.3569  2.2240 -0.8690
12778TIP3    H259826   5.341   3.240   4.543  0.9056  2.2889 -0.8193
12779TIP3   OH259827   5.902   5.027   4.658  0.1179  0.5412 -0.7375
12779TIP3    H159828   5.807   5.011   4.653 -0.0387  1.2972 -0.4224
12779TIP3    H259829   5.916   5.100   4.598  0.2505  1.4126  0.3177
12780TIP3   OH259830   3.551   4.547   3.273  0.0376  0.0105 -0.2709
12780TIP3    H159831   3.514   4.585   3.353 -0.3477 -1.5005  0.3014
12780TIP3    H259832   3.615   4.483   3.305 -0.2588 -0.7397 -1.1601
12781TIP3   OH259833   5.886   2.503  12.829  0.7949 -0.1752 -0.1923
12781TIP3    H159834   5.828   2.541  12.763  0.4021 -0.1965  0.1402
12781TIP3    H259835   5.854   2.537  12.913  1.1360 -0.3462  0.0131
12782TIP3   OH259836   5.933   0.480  16.715 -0.4870  0.5123 -0.1636
12782TIP3    H159837   5.902   0.391  16.736  0.1883  0.0886 -0.8988
12782TIP3    H259838   5.904   0.494  16.624 -0.0045  0.7797 -0.2766
12783TIP3   OH259839   6.788   2.164  11.171  0.2505 -0.0884  0.1406
12783TIP3    H159840   6.803   2.245  11.121 -0.9262  0.3063  0.4020
12783TIP3    H259841   6.805   2.189  11.261 -0.0806 -0.1367  0.2174
12784TIP3   OH259842   6.667   0.070   0.757 -0.5025 -0.6556 -0.1429
12784TIP3    H159843   6.725   0.095   0.686  0.3718 -2.6149 -0.1791
12784TIP3    H259844   6.723   0.070   0.835 -1.3020  0.8308  0.4890
12785TIP3   OH259845   6.245   0.118  12.060  0.2975  0.2884  0.3178
12785TIP3    H159846   6.291   0.190  12.016  0.0916  0.2027 -0.0332
12785TIP3    H259847   6.314   0.073  12.110  0.2893  1.2373  1.2293
12786TIP3   OH259848   0.178   4.437  15.623  0.0357 -0.1282  0.0977
12786TIP3    H159849   0.181   4.342  15.613 -0.0354  0.0207 -1.6521
12786TIP3    H259850   0.230   4.470  15.551  1.5544  1.1589  1.7149
12787TIP3   OH259851   1.726   4.787   4.874  0.1422  0.4644  0.0941
12787TIP3    H159852   1.672   4.782   4.954  0.0967  1.1120  0.1093
12787TIP3    H259853   1.799   4.844   4.898  0.5123  0.0781 -0.1139
12788TIP3   OH259854   4.468   1.669  13.468  0.2407 -0.1377  0.3099
12788TIP3    H159855   4.394   1.618  13.435  0.8949 -0.1719 -1.2064
12788TIP3    H259856   4.428   1.748  13.505 -0.5988 -0.4507  0.0995
12789TIP3   OH259857   2.572   0.293   4.395 -0.2524 -0.6210  0.0989
12789TIP3    H159858   2.507   0.363   4.396  0.4128  0.0212  1.6339
12789TIP3    H259859   2.520   0.213   4.389 -1.0481 -0.0556 -1.0905
12790TIP3   OH259860   2.576   6.054  13.653  0.4640  0.0774 -0.1993
12790TIP3    H159861   2.593   6.146  13.677 -0.7133  0.0164  0.9933
12790TIP3    H259862   2.555   6.057  13.560  1.1098  0.9250 -0.3357
12791TIP3   OH259863   1.357   1.540  16.487  0.6156 -0.1822  0.4543
12791TIP3    H159864   1.302   1.605  16.443 -0.8615 -1.2863  0.5982
12791TIP3    H259865   1.389   1.483  16.417  0.1149 -0.5906  0.5514
12792TIP3   OH259866   4.049   1.567   3.744  0.0267  0.2294 -0.0979
12792TIP3    H159867   3.998   1.495   3.780 -1.5728  1.1684 -0.4189
12792TIP3    H259868   4.140   1.544   3.764 -0.6114 -0.6403  2.0177
12793TIP3   OH259869   2.190   6.235   2.849 -0.3572  0.1150 -0.4676
12793TIP3    H159870   2.234   6.297   2.907 -1.0837 -0.9894  1.3465
12793TIP3    H259871   2.099   6.264   2.847 -0.5793 -0.5459 -0.0759
12794TIP3   OH259872   3.579   4.807  12.427 -0.6464  0.5501 -0.5635
12794TIP3    H159873   3.492   4.789  12.391 -1.1502 -1.4333  1.4716
12794TIP3    H259874   3.634   4.737  12.393 -0.7170 -0.2948  0.9897
12795TIP3   OH259875   5.023   3.861   3.164  0.6956 -0.3248  0.1192
12795TIP3    H159876   4.991   3.927   3.226  1.0151  0.1864 -0.2497
12795TIP3    H259877   4.951   3.849   3.102  0.5342 -0.5238  0.3451
12796TIP3   OH259878   6.718   0.968  15.823 -0.3943 -0.2425 -0.3199
12796TIP3    H159879   6.772   1.034  15.867 -1.6490  3.0483 -3.3330
12796TIP3    H259880   6.780   0.916  15.772  0.5443 -1.1480  1.6387
12797TIP3   OH259881   5.211   2.363   3.381  0.5607  0.1187  0.5227
12797TIP3    H159882   5.237   2.296   3.444  0.3061  0.4398  0.9800
12797TIP3    H259883   5.120   2.382   3.403  0.2468 -0.2467 -0.3799
12798TIP3   OH259884   2.827   4.738  15.786 -0.1971  0.2993 -0.0729
12798TIP3    H159885   2.854   4.776  15.703 -0.6974 -0.7867 -0.7626
12798TIP3    H259886   2.885   4.663  15.797  1.3528  1.6748  1.6838
12799TIP3   OH259887   1.576   2.569   1.586  0.4025  0.2014  0.6718
12799TIP3    H159888   1.524   2.535   1.513  0.9128  0.2790  0.2683
12799TIP3    H259889   1.523   2.550   1.664  0.8005 -1.8606  0.5209
12800TIP3   OH259890   4.802   0.760   2.680 -0.0382 -0.3967  0.0518
12800TIP3    H159891   4.893   0.789   2.682 -1.1536  3.6991  0.0989
12800TIP3    H259892   4.758   0.822   2.621 -2.8344 -2.1793  0.0417
12801TIP3   OH259893   3.430   4.495  14.426  0.1146  0.8903  0.7692
12801TIP3    H159894   3.335   4.508  14.427  0.2339  1.8436  0.7309
12801TIP3    H259895   3.459   4.526  14.512  0.2900 -0.3832  1.1981
12802TIP3   OH259896   5.324   3.283   2.637 -0.0640  0.7735  0.0753
12802TIP3    H159897   5.253   3.320   2.689  0.1926 -0.7635  1.6146
12802TIP3    H259898   5.322   3.332   2.555 -2.7956  0.8794  0.1176
12803TIP3   OH259899   3.133   4.403   1.117 -0.5018 -0.2869  0.3636
12803TIP3    H159900   3.125   4.428   1.025  0.9124 -1.1441 -0.0175
12803TIP3    H259901   3.160   4.483   1.162  0.3854 -0.2410 -0.2373
12804TIP3   OH259902   2.151   0.920  15.789 -0.1910 -0.0720 -0.0289
12804TIP3    H159903   2.084   0.890  15.727  0.2218  0.1809 -0.5985
12804TIP3    H259904   2.123   1.008  15.814  0.4416  0.4181 -1.0161
12805TIP3   OH259905   6.092   3.723   5.049  0.6064 -0.1337  0.3857
12805TIP3    H159906   6.145   3.773   4.987  1.9169 -0.4906  1.1731
12805TIP3    H259907   6.008   3.712   5.005  1.7370 -1.1035 -1.7216
12806TIP3   OH259908   4.789   3.443   6.096  0.4239  0.6709  0.2643
12806TIP3    H159909   4.769   3.420   6.187  1.7146 -1.9781 -0.0054
12806TIP3    H259910   4.879   3.476   6.099  0.6545  0.0944 -0.0775
12807TIP3   OH259911   0.832   3.829  13.331  0.4033  0.0893 -0.4381
12807TIP3    H159912   0.742   3.817  13.302 -0.1453 -0.0889  1.2889
12807TIP3    H259913   0.882   3.762  13.283 -0.5546 -0.5587 -0.5469
12808TIP3   OH259914   0.575   3.301   1.002  0.3701 -0.1020 -0.3471
12808TIP3    H159915   0.519   3.377   1.015 -0.8310 -0.7047 -1.7524
12808TIP3    H259916   0.647   3.332   0.948 -0.0290  0.0715 -0.7789
12809TIP3   OH259917   5.095   4.123   2.152 -0.6079  0.1698  0.1172
12809TIP3    H159918   5.008   4.088   2.130 -0.2666  0.1222 -1.1687
12809TIP3    H259919   5.132   4.057   2.210 -1.3905  0.1534  0.6272
12810TIP3   OH259920   2.062   5.145   3.680 -0.1473  0.0376  0.0464
12810TIP3    H159921   2.031   5.128   3.591  0.2222 -0.9308  0.0846
12810TIP3    H259922   2.006   5.091   3.736 -1.2323  1.6185  0.5579
12811TIP3   OH259923   3.868   0.146  12.996 -1.0462  0.2576 -0.0332
12811TIP3    H159924   3.800   0.080  13.006 -1.3430  0.1750 -2.1635
12811TIP3    H259925   3.826   0.219  12.950 -0.2694  1.2044  0.6834
12812TIP3   OH259926   5.742   0.596   1.984  0.5220  0.1265 -0.0564
12812TIP3    H159927   5.729   0.502   1.977  1.4329  0.0524 -0.9802
12812TIP3    H259928   5.828   0.611   1.944  0.6587  1.2716  0.6296
12813TIP3   OH259929   6.694   0.512   5.165 -0.1905 -0.1513  0.3047
12813TIP3    H159930   6.660   0.595   5.200 -0.8285  0.2208 -1.1284
12813TIP3    H259931   6.773   0.537   5.119  0.3305 -0.5544  0.9635
12814TIP3   OH259932   6.427   1.271  11.890  0.5150 -0.3110  0.4107
12814TIP3    H159933   6.440   1.320  11.809  1.6345 -0.1241  0.6822
12814TIP3    H259934   6.365   1.202  11.867  1.0610 -0.4542 -0.6892
12815TIP3   OH259935   4.584   4.475  16.480 -0.2864  0.5018 -0.0671
12815TIP3    H159936   4.493   4.493  16.502 -1.3764 -1.6268 -2.3550
12815TIP3    H259937   4.606   4.538  16.411 -0.0248  0.9510  0.4160
12816TIP3   OH259938   0.302   5.817  15.941 -0.1068  0.2008  0.5622
12816TIP3    H159939   0.337   5.747  15.885  0.5235  1.5492 -0.7918
12816TIP3    H259940   0.208   5.818  15.922 -0.4546 -1.4425  1.9609
12817TIP3   OH259941   5.844   0.992   2.603  0.1819  0.1773  0.0743
12817TIP3    H159942   5.869   1.043   2.680 -1.5843 -0.4671  1.1641
12817TIP3    H259943   5.752   0.970   2.619 -1.4923  3.0853 -3.9269
12818TIP3   OH259944   1.002   1.992   0.762 -0.5884 -0.4668 -0.0515
12818TIP3    H159945   1.098   1.982   0.757 -0.6562 -2.1769  1.1953
12818TIP3    H259946   0.971   1.959   0.678 -0.1482 -1.3697  0.1247
12819TIP3   OH259947   6.220   1.128  15.340 -0.2512 -0.0399  0.2821
12819TIP3    H159948   6.208   1.050  15.286  1.2068  0.3730 -0.6987
12819TIP3    H259949   6.170   1.196  15.294  2.3931  0.7525 -1.6746
12820TIP3   OH259950   0.295   0.341  11.591 -0.4221 -0.2707 -0.1839
12820TIP3    H159951   0.364   0.391  11.634  0.1738  1.0044 -2.4510
12820TIP3    H259952   0.226   0.405  11.574 -0.8278 -0.8339 -0.6979
12821TIP3   OH259953   5.757   2.767   0.925  0.0114 -0.0484 -0.8478
12821TIP3    H159954   5.746   2.843   0.982  0.8200 -0.6854  0.1878
12821TIP3    H259955   5.747   2.692   0.983  1.3106 -0.7122 -1.4474
12822TIP3   OH259956   1.695   3.829   3.416 -0.9797 -0.3351  0.3221
12822TIP3    H159957   1.616   3.867   3.378 -2.3492 -2.8646  0.4018
12822TIP3    H259958   1.699   3.867   3.504 -1.9727  0.0121  0.2308
12823TIP3   OH259959   3.704   1.195   1.431 -0.0363  0.1468  0.6025
12823TIP3    H159960   3.734   1.124   1.375 -0.3108 -0.6772  1.4659
12823TIP3    H259961   3.731   1.169   1.519  3.4857  3.0127  0.5852
12824TIP3   OH259962   1.616   4.040   1.376  0.4063  0.1339 -0.0868
12824TIP3    H159963   1.542   4.068   1.431 -0.7356  0.4046 -1.7002
12824TIP3    H259964   1.586   4.055   1.287  2.2052 -0.3431 -0.8023
12825TIP3   OH259965   0.730   4.692  14.920 -0.1422 -0.0828 -0.5115
12825TIP3    H159966   0.743   4.598  14.911 -0.5981 -0.3817  1.5576
12825TIP3    H259967   0.714   4.723  14.831  0.9589 -1.7967 -1.3427
12826TIP3   OH259968   0.410   6.061   2.445 -0.0386 -0.0915  0.4501
12826TIP3    H159969   0.493   6.014   2.456  0.8619  0.7720 -1.9123
12826TIP3    H259970   0.425   6.145   2.488 -0.1856 -0.4065  1.1388
12827TIP3   OH259971   3.503   1.211  11.680  0.5172  0.3021  0.0352
12827TIP3    H159972   3.523   1.304  11.666  1.6026 -0.0526 -0.9941
12827TIP3    H259973   3.579   1.165  11.644  0.6598 -0.9559  1.8201
12828TIP3   OH259974   6.182   4.740   1.443 -0.6193  0.3136  0.8300
12828TIP3    H159975   6.219   4.790   1.515 -0.0593  0.4503  0.4550
12828TIP3    H259976   6.170   4.805   1.373 -2.5487  0.4964  1.2727
12829TIP3   OH259977   0.935   1.401  16.791 -0.0426 -0.3188  0.7603
12829TIP3    H159978   0.852   1.383  16.834 -0.3676 -1.4481 -0.2892
12829TIP3    H259979   0.913   1.465  16.723  0.2381  0.5203  1.4464
12830TIP3   OH259980   4.168   2.176  14.627 -0.4479  0.3539  0.8369
12830TIP3    H159981   4.082   2.178  14.670 -1.1823  0.4708 -0.5500
12830TIP3    H259982   4.149   2.201  14.536  0.7532 -1.5176  0.0166
12831TIP3   OH259983   6.513   5.816   3.383  0.1961  0.1735 -0.5161
12831TIP3    H159984   6.603   5.848   3.390  0.5742 -0.3649 -2.3090
12831TIP3    H259985   6.513   5.735   3.434  1.3231 -0.8819 -2.0851
12832TIP3   OH259986   5.372   3.619  12.203  0.1339 -0.1408  0.3301
12832TIP3    H159987   5.359   3.619  12.297  2.8511 -4.9381  1.0149
12832TIP3    H259988   5.321   3.545  12.171  0.4382  0.4640 -1.7538
12833TIP3   OH259989   0.735   3.320   5.064  0.6013  0.0402 -0.0800
12833TIP3    H159990   0.799   3.274   5.009 -0.3306 -0.8730 -0.4377
12833TIP3    H259991   0.697   3.386   5.007  0.4159 -0.1806 -0.2156
12834TIP3   OH259992   5.058   5.989  11.445  0.0841  0.5694 -0.5724
12834TIP3    H159993   5.112   6.001  11.523 -1.2714 -0.7244  0.6320
12834TIP3    H259994   5.081   5.902  11.413  0.3398  0.9311 -1.3948
12835TIP3   OH259995   4.188   1.576   5.763  0.0217 -0.1358  0.4266
12835TIP3    H159996   4.143   1.657   5.786  0.0607 -0.4597  1.7205
12835TIP3    H259997   4.242   1.599   5.687  0.0673  1.0524  0.8040
12836TIP3   OH259998   1.019   3.195  14.423 -0.6449  0.2872  0.1918
12836TIP3    H159999   0.968   3.273  14.398 -0.2024  0.3852 -0.4339
12836TIP3    H260000   1.096   3.230  14.467 -0.7223  0.1757  0.4149
12837TIP3   OH260001   3.823   5.798   2.481 -0.1729 -1.0094 -0.1809
12837TIP3    H160002   3.773   5.858   2.536  0.6540 -1.6906  1.3913
12837TIP3    H260003   3.905   5.845   2.463  0.1503 -1.3285  0.4025
12838TIP3   OH260004   4.142   4.520   1.952 -0.3970  0.2335 -0.6523
12838TIP3    H160005   4.100   4.463   2.017  0.4762  1.8233  1.4445
12838TIP3    H260006   4.076   4.586   1.933 -0.0455  0.8013  0.0494
12839TIP3   OH260007   1.040   5.162   3.263  0.0929  0.1855  0.4707
12839TIP3    H160008   1.077   5.250   3.269  0.5043 -0.0412  1.5981
12839TIP3    H260009   1.095   5.109   3.320 -1.1942 -0.4246  1.2090
12840TIP3   OH260010   5.613   1.670   3.955  0.2602 -0.1934 -1.0786
12840TIP3    H160011   5.654   1.617   3.887  1.4061 -0.1765 -0.4232
12840TIP3    H260012   5.596   1.609   4.026  3.1202  0.5295  0.3591
12841TIP3   OH260013   4.224   0.716   1.759 -0.6764  0.1521  0.0782
12841TIP3    H160014   4.182   0.800   1.741 -0.2768  0.4991  0.7396
12841TIP3    H260015   4.152   0.656   1.776 -1.0281  0.0391 -1.6624
12842TIP3   OH260016   5.509   1.881  15.411 -0.4173 -0.1761  0.1455
12842TIP3    H160017   5.432   1.933  15.389  0.3460  0.2641 -1.5875
12842TIP3    H260018   5.580   1.918  15.359  0.9468 -0.7221  1.5316
12843TIP3   OH260019   3.648   4.740  16.491  0.0740 -0.2600 -0.0242
12843TIP3    H160020   3.695   4.685  16.553 -2.2198 -0.4325  1.7040
12843TIP3    H260021   3.654   4.828  16.527  2.2205  0.4399 -1.8448
12844TIP3   OH260022   4.150   1.988  13.816  0.9391  0.0986  0.0081
12844TIP3    H160023   4.234   1.991  13.862  0.7768  1.1715  0.2611
12844TIP3    H260024   4.121   1.897  13.826  0.4830  0.4761  2.8012
12845TIP3   OH260025   2.095   6.205  11.822  0.0444  0.0089  0.2924
12845TIP3    H160026   2.041   6.211  11.900 -0.3195  0.3859  0.0153
12845TIP3    H260027   2.083   6.115  11.791 -2.7285  0.8367 -1.3734
12846TIP3   OH260028   2.247   6.727  13.451 -0.2156  0.3065 -0.0407
12846TIP3    H160029   2.180   6.664  13.480 -0.0743 -0.6334 -1.6299
12846TIP3    H260030   2.329   6.677  13.453  0.7849  1.8274  3.2136
12847TIP3   OH260031   4.844   3.319  14.326 -0.1866 -0.1259  0.4508
12847TIP3    H160032   4.806   3.244  14.281 -0.8852  0.0699  0.7042
12847TIP3    H260033   4.773   3.382  14.332  1.0009  1.5591 -1.8809
12848TIP3   OH260034   1.714   0.249  11.254 -0.0768 -0.2730  0.0152
12848TIP3    H160035   1.662   0.273  11.177 -1.6580 -2.2616  0.3606
12848TIP3    H260036   1.700   0.321  11.315 -1.2378 -0.0452 -0.4815
12849TIP3   OH260037   0.333   5.739   1.418  0.2920  0.1895 -0.1225
12849TIP3    H160038   0.280   5.741   1.338 -0.6358 -0.5953  0.4506
12849TIP3    H260039   0.386   5.818   1.413 -0.7969  0.9100 -0.8289
12850TIP3   OH260040   5.371   4.875  14.700  0.3499 -0.3221  0.1268
12850TIP3    H160041   5.414   4.834  14.625  0.4793  0.9535 -0.5401
12850TIP3    H260042   5.288   4.828  14.709  0.8214 -1.2231 -0.0954
12851TIP3   OH260043   2.685   4.143  15.343  0.4467 -0.0028 -0.2947
12851TIP3    H160044   2.635   4.076  15.391  1.1584 -0.3366  0.0010
12851TIP3    H260045   2.643   4.226  15.367  0.5772 -0.1990  0.6522
12852TIP3   OH260046   2.291   5.859  13.207  0.0142 -0.1343  0.1065
12852TIP3    H160047   2.216   5.800  13.213 -0.7277  0.7783 -0.0198
12852TIP3    H260048   2.253   5.946  13.192  1.1312  0.1934 -1.0006
12853TIP3   OH260049   6.164   1.445   4.482  0.0494 -0.0236  0.2062
12853TIP3    H160050   6.111   1.395   4.420  0.6765  1.3256 -1.4930
12853TIP3    H260051   6.130   1.420   4.568 -1.9288 -0.7714 -0.7345
12854TIP3   OH260052   2.041   4.090  12.625  0.6007  0.5744  0.1865
12854TIP3    H160053   2.130   4.076  12.594  0.4131  0.2448 -0.2065
12854TIP3    H260054   2.043   4.065  12.717  1.1728  1.6006  0.4625
12855TIP3   OH260055   0.943   0.860   1.325 -0.0138  0.2139 -0.3757
12855TIP3    H160056   0.868   0.838   1.379 -1.9886  1.8181 -2.3170
12855TIP3    H260057   0.961   0.952   1.343  1.4496 -0.1137 -0.0255
12856TIP3   OH260058   0.051   4.062  12.589  0.1841 -0.0084 -0.0939
12856TIP3    H160059  -0.019   4.126  12.600  1.3045  1.2618 -0.0758
12856TIP3    H260060   0.109   4.077  12.664  0.4657 -1.0909 -0.0715
12857TIP3   OH260061   5.015   5.947  14.849 -0.2118  0.5416  0.0631
12857TIP3    H160062   4.987   5.864  14.810 -1.3471  0.3176  1.2827
12857TIP3    H260063   4.934   5.989  14.877  0.4229  1.6313  0.3300
12858TIP3   OH260064   6.686   3.963   5.384 -0.3563 -0.4040 -0.1795
12858TIP3    H160065   6.678   4.049   5.426  0.5155  0.4083 -1.5885
12858TIP3    H260066   6.710   3.983   5.293  3.4271 -2.1626  0.2387
12859TIP3   OH260067   6.710   4.549   4.712  0.1067  0.5708 -0.0558
12859TIP3    H160068   6.696   4.585   4.624 -0.6783  3.1595  1.0297
12859TIP3    H260069   6.643   4.590   4.766 -0.3220 -1.9918  1.5618
12860TIP3   OH260070   6.635   0.005   3.874 -0.5832 -0.2975 -0.1523
12860TIP3    H160071   6.583   0.002   3.954  1.7400 -1.2573  1.4018
12860TIP3    H260072   6.620   0.094   3.839 -2.1737 -0.1014  0.9059
12861TIP3   OH260073   0.769   2.803   1.931 -0.0212  0.1260  0.1916
12861TIP3    H160074   0.856   2.804   1.890  0.4242 -0.6360  1.0632
12861TIP3    H260075   0.761   2.714   1.966 -2.2944 -0.7238 -2.1934
12862TIP3   OH260076   4.564   5.535  14.940 -0.0780 -0.1196  0.3129
12862TIP3    H160077   4.618   5.461  14.914 -0.3440  0.6466 -2.7807
12862TIP3    H260078   4.476   5.499  14.949  0.0044 -0.4039 -0.0074
12863TIP3   OH260079   2.196   2.206   0.495  0.0820 -0.0957 -0.1865
12863TIP3    H160080   2.163   2.121   0.525  1.9869 -0.4598  1.0556
12863TIP3    H260081   2.214   2.255   0.576 -1.4454  1.7269 -0.8738
12864TIP3   OH260082   5.685   1.747  15.583 -0.1402  0.6894  0.2761
12864TIP3    H160083   5.619   1.797  15.536 -0.7492 -1.0817 -0.8467
12864TIP3    H260084   5.638   1.712  15.660 -0.5332 -0.4874 -0.4694
12865TIP3   OH260085   3.417   0.647  12.826 -0.1695  0.3485 -0.5182
12865TIP3    H160086   3.370   0.578  12.873 -1.0181  0.0570 -1.7323
12865TIP3    H260087   3.348   0.707  12.797  0.3709  0.7564 -0.9943
12866TIP3   OH260088   6.780   2.264  15.461 -0.0733  0.6766  0.3169
12866TIP3    H160089   6.792   2.188  15.404 -0.7676  0.3839  0.5521
12866TIP3    H260090   6.868   2.286  15.492  0.1427  0.0538  0.1446
12867TIP3   OH260091   0.391   0.579  16.672 -0.3748 -0.2381 -0.5935
12867TIP3    H160092   0.432   0.549  16.753  1.1184  2.3888 -0.2461
12867TIP3    H260093   0.319   0.635  16.700  0.2437  0.8109 -0.9921
12868TIP3   OH260094   0.784   0.735   2.335 -0.5252  0.8987  0.2932
12868TIP3    H160095   0.702   0.685   2.335  0.3974 -0.7244 -0.7186
12868TIP3    H260096   0.757   0.826   2.344 -2.3794  0.3444  0.8721
12869TIP3   OH260097   4.628   1.745  12.233  0.2929 -0.0791 -0.0267
12869TIP3    H160098   4.692   1.816  12.234 -2.0252  2.2008 -1.2178
12869TIP3    H260099   4.554   1.779  12.283 -1.8692 -0.5411 -2.6429
12870TIP3   OH260100   3.099   1.355  11.178 -0.1458  0.2991  0.1637
12870TIP3    H160101   3.029   1.327  11.236 -0.5746 -0.2536 -0.6068
12870TIP3    H260102   3.062   1.348  11.090  0.5215  1.0250 -0.1939
12871TIP3   OH260103   0.366   4.846  14.724 -0.3512 -0.4294 -0.2720
12871TIP3    H160104   0.381   4.766  14.774 -2.0075 -0.6152  0.0028
12871TIP3    H260105   0.419   4.912  14.768  2.1635 -1.6155 -1.3444
12872TIP3   OH260106   2.568   5.754  14.341  0.1765 -0.0542 -0.3219
12872TIP3    H160107   2.475   5.733  14.331  0.4858 -0.3343 -3.8039
12872TIP3    H260108   2.570   5.849  14.352 -0.5266 -0.2263  1.9587
12873TIP3   OH260109   0.632   4.524   4.633  0.0296 -0.1569  1.1889
12873TIP3    H160110   0.569   4.522   4.561  0.9839 -0.1027  0.3407
12873TIP3    H260111   0.629   4.435   4.669 -0.7604 -0.0644  1.3650
12874TIP3   OH260112   5.125   4.704   2.450 -0.4217  0.2759 -0.3433
12874TIP3    H160113   5.110   4.787   2.495  1.5612  1.5523 -1.8390
12874TIP3    H260114   5.108   4.724   2.358  0.2188 -0.9357 -0.7485
12875TIP3   OH260115   2.497   0.431   1.692 -0.0750 -0.2825  0.6258
12875TIP3    H160116   2.548   0.499   1.648  1.0513 -2.8366 -2.3813
12875TIP3    H260117   2.556   0.397   1.760  0.9189 -0.7991 -0.4528
12876TIP3   OH260118   6.464   5.368  12.525 -0.6185 -0.1414  0.3190
12876TIP3    H160119   6.388   5.318  12.494 -0.6852  1.1793 -1.8642
12876TIP3    H260120   6.537   5.334  12.474 -0.6799  1.9423 -1.2833
12877TIP3   OH260121   1.798   2.260  12.222 -0.7140  0.3870  0.2455
12877TIP3    H160122   1.715   2.252  12.268 -1.0992 -0.2832 -0.5223
12877TIP3    H260123   1.775   2.299  12.137 -0.0732  1.2939  0.4786
12878TIP3   OH260124   1.296   6.558   4.253  0.1700 -0.5957  0.2324
12878TIP3    H160125   1.349   6.511   4.317 -1.0158  0.1297  1.8152
12878TIP3    H260126   1.206   6.535   4.274 -0.3263  0.7945 -0.2280
12879TIP3   OH260127   3.224   4.756   3.774 -0.4817  0.2808  0.5779
12879TIP3    H160128   3.288   4.797   3.832  2.7120 -2.9749 -0.2555
12879TIP3    H260129   3.245   4.790   3.687 -1.3337  0.6920  0.5130
12880TIP3   OH260130   4.053   5.108  16.131 -0.1988  0.6308  0.1848
12880TIP3    H160131   4.078   5.085  16.221  0.1636  0.6523  0.0931
12880TIP3    H260132   4.106   5.050  16.076  0.6772  1.6197 -0.0504
12881TIP3   OH260133   2.817   0.904   5.534  0.1890  0.7216  0.3150
12881TIP3    H160134   2.762   0.827   5.546  0.4922  0.3169 -0.7950
12881TIP3    H260135   2.828   0.940   5.623 -0.8734  0.1368  0.6968
12882TIP3   OH260136   4.741   1.934  11.081  0.1047  0.4315 -0.3601
12882TIP3    H160137   4.665   1.932  11.139  0.3308  0.2675 -0.0652
12882TIP3    H260138   4.772   1.843  11.079  0.3978  0.5290 -0.3355
12883TIP3   OH260139   4.404   0.882   5.135  0.2199 -0.1272  0.4279
12883TIP3    H160140   4.332   0.822   5.118  0.2702 -0.4863  1.4640
12883TIP3    H260141   4.482   0.836   5.103  0.1396 -0.2140  0.3589
12884TIP3   OH260142   5.533   1.802   0.852  0.5067  0.4479  0.4726
12884TIP3    H160143   5.567   1.765   0.770  0.1613  1.2330 -0.0365
12884TIP3    H260144   5.589   1.763   0.920 -1.1816 -2.7113  0.2418
12885TIP3   OH260145   5.569   2.346   5.229 -0.3615  0.1698 -0.3812
12885TIP3    H160146   5.491   2.348   5.174 -0.2953  1.1065 -0.4706
12885TIP3    H260147   5.590   2.254   5.239  1.2887 -0.0679 -4.2743
12886TIP3   OH260148   5.849   4.692   9.053  0.1837 -0.0625 -0.3044
12886TIP3    H160149   5.813   4.664   9.137  1.7683  0.0574  0.4440
12886TIP3    H260150   5.795   4.766   9.027 -1.1315 -0.8863 -0.0419
12887TIP3   OH260151   1.558   2.845  16.644 -0.4755  0.4128  0.6730
12887TIP3    H160152   1.551   2.939  16.660 -1.9461  0.2754  0.9827
12887TIP3    H260153   1.468   2.814  16.640 -0.0205 -1.0888  1.1584
12888TIP3   OH260154   3.172   2.733  11.617 -0.1703 -0.1189 -0.0149
12888TIP3    H160155   3.161   2.817  11.661 -0.3818 -0.4854  0.6605
12888TIP3    H260156   3.266   2.723  11.608 -0.0979 -0.2065  0.7235
12889TIP3   OH260157   5.484   4.496  16.246  0.2118 -0.3072  0.2131
12889TIP3    H160158   5.517   4.406  16.241 -0.5119 -0.6147  0.7283
12889TIP3    H260159   5.535   4.544  16.181  1.0797 -0.9420  0.4032
12890TIP3   OH260160   6.687   0.761  11.072  0.2275  0.0712 -0.3894
12890TIP3    H160161   6.625   0.832  11.054  1.9838  1.1103 -2.7762
12890TIP3    H260162   6.740   0.794  11.145  1.1539  1.3772 -1.6034
12891TIP3   OH260163   2.220   6.096   3.544  0.1258  0.0152 -0.4706
12891TIP3    H160164   2.302   6.092   3.495  1.0140 -0.5040  0.9564
12891TIP3    H260165   2.236   6.040   3.620 -1.4286  0.2166  0.0399
12892TIP3   OH260166   5.297   3.504   4.369  0.1188 -0.3701  0.2009
12892TIP3    H160167   5.300   3.489   4.275 -0.5858 -1.9707  0.4116
12892TIP3    H260168   5.283   3.418   4.408  0.7554  0.1993  1.8097
12893TIP3   OH260169   1.190   1.348  16.798 -0.1250 -0.2498 -0.1992
12893TIP3    H160170   1.198   1.297  16.718 -0.8379  0.9508 -1.0684
12893TIP3    H260171   1.100   1.381  16.797 -0.0189  0.1123  0.8915
12894TIP3   OH260172   6.728   0.398  15.081  0.1453  0.0434  0.2028
12894TIP3    H160173   6.803   0.367  15.131 -1.1292 -0.5157  1.8551
12894TIP3    H260174   6.690   0.318  15.043  1.9056  0.5675 -3.0039
12895TIP3   OH260175   5.707   2.307  15.904 -0.0629 -0.0822  0.0398
12895TIP3    H160176   5.730   2.306  15.997 -0.5470  0.4559  0.1683
12895TIP3    H260177   5.629   2.361  15.899  0.2718  0.3459 -0.7533
12896TIP3   OH260178   4.864   3.713  15.431  0.3553 -0.3190  1.0169
12896TIP3    H160179   4.867   3.720  15.335 -1.1146 -0.4314  0.9394
12896TIP3    H260180   4.934   3.650  15.452  1.4728  0.5808  0.1402
12897TIP3   OH260181   2.259   4.639   1.205  0.1521 -0.3290  0.0663
12897TIP3    H160182   2.266   4.730   1.176 -0.5632  0.1743  1.3616
12897TIP3    H260183   2.233   4.590   1.127 -0.0996  0.6913 -0.4978
12898TIP3   OH260184   3.097   0.503  15.926  0.4509 -0.4925  0.2035
12898TIP3    H160185   3.108   0.551  16.008  1.1000  1.5563 -1.0162
12898TIP3    H260186   3.021   0.447  15.940 -0.1687  0.6978  1.7840
12899TIP3   OH260187   3.668   0.874  11.606 -1.2423  0.2851  1.0259
12899TIP3    H160188   3.735   0.832  11.661  0.0779  2.5525  1.2610
12899TIP3    H260189   3.717   0.938  11.554 -2.9881  0.6733 -0.2152
12900TIP3   OH260190   2.976   4.112   5.544  0.0168 -0.0751 -0.1385
12900TIP3    H160191   3.034   4.154   5.608 -0.4948 -0.2116  0.4214
12900TIP3    H260192   2.950   4.030   5.585 -0.8566  0.1460 -0.2268
12901TIP3   OH260193   3.831   3.754  14.372 -0.3404 -0.0059 -0.0849
12901TIP3    H160194   3.813   3.831  14.427 -1.5375 -0.3813  0.0891
12901TIP3    H260195   3.749   3.705  14.373  0.4524 -1.3925 -0.0447
12902TIP3   OH260196   4.981   0.483   3.424 -0.2117  0.1463 -0.3840
12902TIP3    H160197   4.980   0.499   3.518  0.3499 -0.0432 -0.3446
12902TIP3    H260198   4.896   0.443   3.406 -0.8259  1.3265 -0.1608
12903TIP3   OH260199   3.495   6.801  13.762  0.0221  0.6305 -0.3764
12903TIP3    H160200   3.555   6.821  13.690  0.3287 -0.3811 -0.4257
12903TIP3    H260201   3.551   6.803  13.840  0.2714 -0.8624 -0.4839
12904TIP3   OH260202   6.700   0.308   2.463 -0.0868 -0.0614  0.1250
12904TIP3    H160203   6.650   0.360   2.401  0.1585 -0.9318 -0.8326
12904TIP3    H260204   6.742   0.241   2.409 -0.6392 -1.4367  1.3472
12905TIP3   OH260205   5.320   5.074   5.963 -0.2776  0.3476 -0.3138
12905TIP3    H160206   5.407   5.100   5.934 -0.6500  0.6796 -1.1821
12905TIP3    H260207   5.330   5.057   6.056  0.2253  2.6614  0.1324
12906TIP3   OH260208   1.558   5.481   5.762  0.7296  0.1816  0.3068
12906TIP3    H160209   1.607   5.481   5.680  1.9304 -1.4017  0.9706
12906TIP3    H260210   1.475   5.523   5.741  0.6113 -1.0663 -1.9775
12907TIP3   OH260211   3.576   6.826   2.739  0.0404 -0.3408  0.1540
12907TIP3    H160212   3.518   6.842   2.664  1.7842  2.7785 -0.7259
12907TIP3    H260213   3.519   6.831   2.815 -1.1077  1.3555 -0.7502
12908TIP3   OH260214   2.443   2.423  13.048 -0.0559  0.3398 -0.2129
12908TIP3    H160215   2.431   2.507  13.093  0.0606 -0.2828  1.0532
12908TIP3    H260216   2.394   2.360  13.102 -0.4229 -0.3473 -1.3244
12909TIP3   OH260217   1.028   4.364   4.443  0.1055  0.2126  0.0025
12909TIP3    H160218   1.068   4.290   4.398 -1.4934 -0.8545  0.2340
12909TIP3    H260219   0.936   4.363   4.414 -0.5088  0.6494  1.7789
12910TIP3   OH260220   5.888   1.525  16.117 -0.1605 -0.3924 -0.1830
12910TIP3    H160221   5.866   1.438  16.149  0.1179 -0.3648  0.0935
12910TIP3    H260222   5.845   1.585  16.179  1.6818 -0.3338  1.1083
12911TIP3   OH260223   1.014   2.181  15.045  0.2260 -0.8059 -0.2362
12911TIP3    H160224   0.928   2.216  15.069  1.1890  0.7979  1.1462
12911TIP3    H260225   1.047   2.243  14.979  1.4352  0.3062  1.3224
12912TIP3   OH260226   1.263   2.701   1.006  0.9478 -0.1996  0.3360
12912TIP3    H160227   1.225   2.687   1.092  0.5282  1.2196  0.4096
12912TIP3    H260228   1.191   2.685   0.945  1.3959 -1.7848  0.1884
12913TIP3   OH260229   1.426   5.272   5.229  0.0741 -0.1484 -0.2224
12913TIP3    H160230   1.436   5.367   5.238  1.0136 -0.2970  0.4476
12913TIP3    H260231   1.449   5.253   5.139 -1.4207  0.4055 -0.7545
12914TIP3   OH260232   4.559   4.293   0.753  0.1385  0.7704  0.4804
12914TIP3    H160233   4.518   4.226   0.698  2.2956  0.2528 -0.6012
12914TIP3    H260234   4.544   4.263   0.843 -0.1704 -0.3892  0.0525
12915TIP3   OH260235   4.054   4.208  13.785  0.3286 -0.0630  0.0165
12915TIP3    H160236   4.077   4.252  13.867  0.7480 -0.1268 -0.0635
12915TIP3    H260237   3.975   4.158  13.806 -0.2155  0.7910  0.0863
12916TIP3   OH260238   2.127   5.886  16.159  0.6472 -0.0590 -0.1488
12916TIP3    H160239   2.112   5.977  16.132  0.5400  0.3423  1.1992
12916TIP3    H260240   2.111   5.835  16.080 -2.2943  0.8166 -0.2532
12917TIP3   OH260241   5.228   5.651   4.568 -0.2743  0.3176 -0.3314
12917TIP3    H160242   5.170   5.649   4.492 -0.3193 -0.0653 -0.2879
12917TIP3    H260243   5.254   5.560   4.581  0.2052  0.4645 -0.2479
12918TIP3   OH260244   2.168   1.913   5.391  0.0769 -0.6323  0.0238
12918TIP3    H160245   2.074   1.912   5.410  0.2711 -1.1383  1.0537
12918TIP3    H260246   2.190   1.820   5.378  0.6192 -0.6288  0.8330
12919TIP3   OH260247   6.266   1.776   0.256 -0.1272  0.3806 -0.1166
12919TIP3    H160248   6.260   1.694   0.207  1.2449 -0.2947  0.7807
12919TIP3    H260249   6.357   1.781   0.285 -0.1364  2.3039 -0.2543
12920TIP3   OH260250   5.504   5.608   3.749 -0.7951  0.4978  0.5018
12920TIP3    H160251   5.492   5.519   3.780  0.3333  0.1729  0.0638
12920TIP3    H260252   5.428   5.625   3.693 -1.4154  0.1064  1.2144
12921TIP3   OH260253   2.162   2.591  11.897  0.1713 -0.2947  0.6956
12921TIP3    H160254   2.160   2.613  11.990  1.7770 -0.7806  0.8749
12921TIP3    H260255   2.087   2.532  11.885  0.8591 -1.5220  2.0609
12922TIP3   OH260256   6.801   6.190  15.119  0.0233  0.3521 -0.0709
12922TIP3    H160257   6.874   6.251  15.127 -0.0809  0.6331 -1.0988
12922TIP3    H260258   6.731   6.242  15.080 -0.7832  0.1153  0.9928
12923TIP3   OH260259   1.423   4.514  15.414  0.6887 -0.0237 -0.1313
12923TIP3    H160260   1.423   4.570  15.336  1.2700  0.9061  0.5020
12923TIP3    H260261   1.513   4.519  15.447  1.1791 -2.6156 -0.9116
12924TIP3   OH260262   0.331   5.791  13.425 -0.6226  0.2229 -0.2915
12924TIP3    H160263   0.283   5.860  13.380 -1.8580  0.4196  1.2471
12924TIP3    H260264   0.414   5.785  13.378 -1.4933  0.9876 -2.0322
12925TIP3   OH260265   1.776   2.295  15.504 -0.5433 -0.1539 -0.2077
12925TIP3    H160266   1.765   2.315  15.411  0.6671 -0.1109 -0.3594
12925TIP3    H260267   1.714   2.225  15.521  0.2634 -1.2118 -1.4312
12926TIP3   OH260268   4.123   1.060  14.653 -0.0709 -0.4485 -0.4875
12926TIP3    H160269   4.045   1.075  14.600  0.8796 -0.8726 -2.0682
12926TIP3    H260270   4.093   1.069  14.743 -1.6604  0.7427 -1.0849
12927TIP3   OH260271   4.309   3.125   6.275  0.3218  0.1594 -0.4329
12927TIP3    H160272   4.288   3.094   6.363  0.1424 -0.7602 -0.7958
12927TIP3    H260273   4.307   3.221   6.283  1.9847  0.1393  0.9805
12928TIP3   OH260274   2.696   2.183   1.827  0.1905  0.3623 -0.5117
12928TIP3    H160275   2.726   2.269   1.800  0.3097  0.6708  0.5575
12928TIP3    H260276   2.722   2.124   1.755  0.1236  1.2008 -1.2369
12929TIP3   OH260277   1.709   1.058   0.698  0.1291  0.1320  0.2045
12929TIP3    H160278   1.678   1.118   0.630  1.1777  1.6390  0.9765
12929TIP3    H260279   1.634   1.002   0.717 -0.3387  0.0164 -1.7878
12930TIP3   OH260280   1.624   4.914  16.430 -0.5852 -0.0962 -0.3057
12930TIP3    H160281   1.620   4.973  16.505  1.6890 -0.9865  0.6238
12930TIP3    H260282   1.637   4.972  16.355 -0.3186  0.6868  0.3268
12931TIP3   OH260283   5.172   1.239  10.222 -0.4572  0.7984  0.2796
12931TIP3    H160284   5.143   1.270  10.136 -0.8311  0.9850  0.4681
12931TIP3    H260285   5.253   1.286  10.238  1.2879 -1.4353 -1.2808
12932TIP3   OH260286   4.701   1.684   4.983 -0.0915  0.5126 -0.0716
12932TIP3    H160287   4.647   1.724   4.915  1.4193  0.0831 -1.6042
12932TIP3    H260288   4.642   1.671   5.057 -2.1931 -0.3718 -1.8076
12933TIP3   OH260289   1.179   3.483   1.637 -0.3807  0.0324  0.4333
12933TIP3    H160290   1.210   3.393   1.641 -0.4012 -0.1323 -1.8020
12933TIP3    H260291   1.090   3.477   1.602 -0.7465  0.8679  1.1866
12934TIP3   OH260292   3.012   6.460   6.442  0.3870  0.6460  0.3934
12934TIP3    H160293   3.046   6.548   6.424  1.8611 -0.0595 -0.4619
12934TIP3    H260294   3.090   6.410   6.469 -0.4169 -0.4164  0.8092
12935TIP3   OH260295   5.364   5.889  15.963  0.6307  0.0350  0.3560
12935TIP3    H160296   5.388   5.805  16.003 -1.5088 -1.8690 -2.0556
12935TIP3    H260297   5.298   5.926  16.022 -0.0884 -1.1142  0.2846
12936TIP3   OH260298   3.344   1.409   0.979  0.1128  0.0682 -0.2875
12936TIP3    H160299   3.282   1.464   1.027 -0.1200  0.2127 -0.7458
12936TIP3    H260300   3.345   1.326   1.027  0.8544  0.6356  0.7067
12937TIP3   OH260301   5.162   4.096   1.642  0.5900 -0.6089 -0.5062
12937TIP3    H160302   5.167   4.003   1.623 -0.5686 -0.5759 -1.0010
12937TIP3    H260303   5.149   4.101   1.737 -3.5393 -1.1558 -0.8683
12938TIP3   OH260304   2.346   0.878   3.520 -1.1136 -0.1550  0.0799
12938TIP3    H160305   2.351   0.798   3.572 -2.2741 -0.5814 -0.4323
12938TIP3    H260306   2.414   0.934   3.556  0.2836 -1.6703 -0.0812
12939TIP3   OH260307   2.468   6.557  14.848  0.2959  0.3111 -0.2250
12939TIP3    H160308   2.530   6.486  14.834  0.0465  0.2613 -1.1703
12939TIP3    H260309   2.493   6.595  14.932 -0.1896 -1.5285  0.8143
12940TIP3   OH260310   5.041   6.421   3.935  0.0299  0.2126 -0.0632
12940TIP3    H160311   4.953   6.408   3.899  0.1038 -0.9966  0.1279
12940TIP3    H260312   5.056   6.343   3.989  0.5244  1.2305  1.3502
12941TIP3   OH260313   1.830   5.434  16.857 -0.5548 -0.3783 -0.4457
12941TIP3    H160314   1.789   5.482  16.785 -0.1165  1.2268  0.3398
12941TIP3    H260315   1.771   5.446  16.931  0.7408  1.0408  0.4023
12942TIP3   OH260316   5.758   5.871  11.043 -0.3939 -0.2074  0.7279
12942TIP3    H160317   5.835   5.910  11.000  1.0560 -2.4621  1.1051
12942TIP3    H260318   5.685   5.891  10.985  0.8629  0.1243 -0.8090
12943TIP3   OH260319   3.831   1.829   4.650 -0.2261  0.3155 -0.1885
12943TIP3    H160320   3.739   1.855   4.645 -0.2399  0.2087 -0.4774
12943TIP3    H260321   3.880   1.911   4.640 -0.3038  0.5926  1.4258
12944TIP3   OH260322   4.985   5.830  13.134  0.2590  0.3918 -0.1562
12944TIP3    H160323   5.036   5.909  13.118  1.2797 -0.3548 -0.6801
12944TIP3    H260324   4.942   5.812  13.050 -1.0725  1.1322  0.3358
12945TIP3   OH260325   5.320   3.115  12.513 -0.3164  0.6062 -0.6250
12945TIP3    H160326   5.303   3.204  12.545  0.0892  0.4209  0.1275
12945TIP3    H260327   5.315   3.060  12.592  1.5607  0.2481 -0.7103
12946TIP3   OH260328   1.798   0.504  15.839 -0.4267  0.0575 -0.3341
12946TIP3    H160329   1.836   0.577  15.888  1.7072 -0.8637 -0.5113
12946TIP3    H260330   1.874   0.454  15.807 -1.6862 -3.5384  1.6633
12947TIP3   OH260331   0.476   6.190  16.536  0.2994  0.5371  0.3802
12947TIP3    H160332   0.529   6.112  16.554 -0.5235 -0.1920 -0.3250
12947TIP3    H260333   0.492   6.210  16.444 -1.0616 -0.0133  0.0047
12948TIP3   OH260334   2.475   4.922  13.049  0.1710  0.0597  0.2111
12948TIP3    H160335   2.487   4.829  13.026  1.2108  0.1268  0.4168
12948TIP3    H260336   2.465   4.966  12.965  2.1497  0.0645 -0.0754
12949TIP3   OH260337   3.678   4.113  16.205 -0.1727 -0.5113 -0.2413
12949TIP3    H160338   3.676   4.205  16.180 -2.3133 -0.6711 -0.9296
12949TIP3    H260339   3.656   4.113  16.298 -0.1560 -0.3172 -0.2362
12950TIP3   OH260340   5.196   1.732   5.218  0.0524  0.2179 -0.3169
12950TIP3    H160341   5.177   1.638   5.225 -0.6153 -0.1432 -4.4085
12950TIP3    H260342   5.290   1.738   5.234  0.3101 -1.3407 -0.9908
12951TIP3   OH260343   1.402   2.062   1.652  0.3657  0.2463  0.0226
12951TIP3    H160344   1.475   2.118   1.626  0.5083 -0.1852 -0.5074
12951TIP3    H260345   1.417   2.046   1.745  1.6008 -0.7831 -0.3168
12952TIP3   OH260346   0.645   5.666   3.413 -0.1675  0.6052  0.1746
12952TIP3    H160347   0.728   5.714   3.418  1.0091 -1.4195  1.9719
12952TIP3    H260348   0.605   5.679   3.499 -0.3972 -0.6193  0.2728
12953TIP3   OH260349   3.845   6.142   5.737 -0.2851 -0.0815  0.5885
12953TIP3    H160350   3.936   6.145   5.765  0.0366  0.6512 -0.4694
12953TIP3    H260351   3.823   6.048   5.737  0.4430 -0.2591  0.8995
12954TIP3   OH260352   6.580   0.461  13.693 -0.7187 -0.1176  0.1789
12954TIP3    H160353   6.616   0.536  13.646 -1.2613  0.3072  0.4260
12954TIP3    H260354   6.540   0.408  13.625 -0.5211 -0.0754  0.0286
12955TIP3   OH260355   3.708   2.161  16.089  0.0802  0.4144  0.3258
12955TIP3    H160356   3.756   2.118  16.019 -0.3991 -0.0075  0.2445
12955TIP3    H260357   3.623   2.181  16.051 -0.6657 -0.9920  1.1348
12956TIP3   OH260358   1.435   5.284  12.813 -0.4664  0.3928  0.7850
12956TIP3    H160359   1.364   5.272  12.750  0.7944 -2.2034 -0.2752
12956TIP3    H260360   1.434   5.205  12.865  0.1946  1.3686  2.3472
12957TIP3   OH260361   4.294   1.572  13.199  0.1503  0.7322 -0.0969
12957TIP3    H160362   4.361   1.504  13.205 -0.7518 -0.2828 -1.0664
12957TIP3    H260363   4.321   1.627  13.125  0.7053  1.2594  0.4834
12958TIP3   OH260364   1.818   3.102   5.463 -0.1672  0.0270  0.4657
12958TIP3    H160365   1.823   3.177   5.403  0.7461  0.5626  1.1926
12958TIP3    H260366   1.906   3.093   5.498 -0.4276 -0.9792  0.8995
12959TIP3   OH260367   0.436   2.401  13.022  0.1503 -0.3169  0.2418
12959TIP3    H160368   0.449   2.394  13.116 -0.3645 -1.1510  0.2596
12959TIP3    H260369   0.493   2.473  12.995  0.2599 -0.0362  1.1932
12960TIP3   OH260370   5.979   1.605   1.975 -0.3129 -0.3038 -0.2492
12960TIP3    H160371   6.062   1.597   1.928  0.0720  1.0631  0.1374
12960TIP3    H260372   5.913   1.576   1.913  0.5080 -2.2746 -0.2621
12961TIP3   OH260373   4.695   3.632   0.881 -0.5674 -0.1577  0.0649
12961TIP3    H160374   4.760   3.689   0.923 -0.7056 -0.3053  0.4838
12961TIP3    H260375   4.631   3.693   0.844 -0.4668 -0.0268  0.1003
12962TIP3   OH260376   3.141   6.291   0.727  0.4412 -0.9309 -0.3208
12962TIP3    H160377   3.152   6.370   0.780  0.1635 -0.8536 -0.3801
12962TIP3    H260378   3.138   6.219   0.790 -4.5843 -0.5464  0.3045
12963TIP3   OH260379   4.359   2.827  13.290  0.5525 -0.0889 -0.3098
12963TIP3    H160380   4.319   2.832  13.376 -1.1097 -0.6225 -1.0164
12963TIP3    H260381   4.439   2.879  13.298  0.7737 -0.6562  1.7124
12964TIP3   OH260382   0.379   0.078   0.507  0.1627  0.2012  0.2516
12964TIP3    H160383   0.314   0.148   0.511 -0.1803 -0.0719 -0.4544
12964TIP3    H260384   0.332   0.003   0.469  1.1904  0.3626 -1.4417
12965TIP3   OH260385   2.658   4.278  13.909 -0.2812  0.5455 -0.5955
12965TIP3    H160386   2.618   4.338  13.972  1.7566  3.1007 -1.5353
12965TIP3    H260387   2.724   4.230  13.960 -0.9735  0.0716 -0.1260
12966TIP3   OH260388   3.667   0.399   1.658 -0.1106  0.1367 -1.0884
12966TIP3    H160389   3.591   0.348   1.685  0.0963  0.8916  1.1203
12966TIP3    H260390   3.630   0.480   1.623 -0.3413 -0.0355 -1.2506
12967TIP3   OH260391   4.595   3.545  15.877  0.3737  0.5664  0.1260
12967TIP3    H160392   4.526   3.610  15.869 -0.5335 -0.4718 -0.8749
12967TIP3    H260393   4.588   3.513  15.967 -0.6595  0.2732 -0.0455
12968TIP3   OH260394   0.855   4.067   3.039 -0.3437 -0.1066 -0.0342
12968TIP3    H160395   0.788   4.105   3.095 -0.0953 -0.4046  0.4781
12968TIP3    H260396   0.911   4.141   3.014 -0.4094  0.0129  0.1753
12969TIP3   OH260397   1.322   0.136  17.095  0.2219 -0.4671  0.3327
12969TIP3    H160398   1.279   0.222  17.091 -1.8113 -1.3946  0.6404
12969TIP3    H260399   1.334   0.111  17.004  1.8980  0.6070  0.2260
12970TIP3   OH260400   0.528   1.119   1.809 -0.0829  0.5199  0.1884
12970TIP3    H160401   0.481   1.039   1.831  0.1235  0.9889  2.5350
12970TIP3    H260402   0.621   1.096   1.818 -0.0162  0.9367  0.6191
12971TIP3   OH260403   2.611   6.167   4.068 -0.1925 -0.0690  0.4121
12971TIP3    H160404   2.618   6.253   4.025 -1.3999  0.6058  1.4866
12971TIP3    H260405   2.674   6.172   4.139 -0.1696 -0.1203  0.3948
12972TIP3   OH260406   5.980   1.508  16.468  0.2467  0.1822  0.0685
12972TIP3    H160407   6.007   1.460  16.390  0.3559  0.0803  0.1682
12972TIP3    H260408   5.915   1.571  16.437  1.1706  0.9673 -0.3137
12973TIP3   OH260409   3.737   3.925  13.006 -0.0225 -0.1114 -0.3905
12973TIP3    H160410   3.761   3.852  12.949  2.3106  0.2176  0.0646
12973TIP3    H260411   3.754   3.894  13.095 -0.7693  0.3851 -0.0574
12974TIP3   OH260412   2.483   4.181   2.425 -0.0808  0.2475  0.2718
12974TIP3    H160413   2.478   4.155   2.517  0.4204  1.5074  0.6712
12974TIP3    H260414   2.575   4.170   2.402 -0.5488 -2.3367 -0.8247
12975TIP3   OH260415   3.468   5.760  13.058  0.2198  0.4372 -0.1028
12975TIP3    H160416   3.455   5.841  13.010 -1.1222 -0.1099 -0.7239
12975TIP3    H260417   3.490   5.696  12.991  0.1562  0.0503  0.2390
12976TIP3   OH260418   1.347   3.257  14.468 -0.0073  0.3609 -0.5211
12976TIP3    H160419   1.435   3.271  14.433  0.9364 -0.8965  1.2057
12976TIP3    H260420   1.357   3.270  14.563 -1.5000 -0.5631 -0.2138
12977TIP3   OH260421   6.140   2.986  12.816 -0.4710 -0.1491  0.2347
12977TIP3    H160422   6.149   2.927  12.741 -0.3321  0.8481 -0.5483
12977TIP3    H260423   6.076   2.944  12.872  0.9145 -1.9404  0.5554
12978TIP3   OH260424   0.504   1.774   2.090  0.2023 -0.1958 -0.1230
12978TIP3    H160425   0.479   1.814   2.173  0.1748  2.4587 -1.3302
12978TIP3    H260426   0.428   1.723   2.063 -0.3666  0.2057  0.7025
12979TIP3   OH260427   3.642   6.603   2.418  0.3378  0.4632 -0.3767
12979TIP3    H160428   3.569   6.665   2.417 -0.6366 -0.5501  1.7665
12979TIP3    H260429   3.621   6.542   2.489  1.9768 -1.4552 -1.4461
12980TIP3   OH260430   1.884   0.931  12.608  0.5311  0.4335 -0.1330
12980TIP3    H160431   1.856   0.971  12.526  3.0250  0.6737 -0.9311
12980TIP3    H260432   1.867   0.998  12.674 -0.6316  0.5882 -0.5622
12981TIP3   OH260433   4.234   4.704  13.927 -0.3460  0.5676  0.3070
12981TIP3    H160434   4.325   4.703  13.957 -0.5663 -0.1885  1.0109
12981TIP3    H260435   4.185   4.739  14.001 -0.8297 -0.7810  0.6678
12982TIP3   OH260436   5.973   1.776  13.413 -0.5713 -0.3184 -0.2651
12982TIP3    H160437   5.927   1.698  13.381  0.0013 -0.0127 -1.9508
12982TIP3    H260438   5.915   1.849  13.390  0.0884 -0.0465 -1.1180
12983TIP3   OH260439   2.064   1.402  12.544  0.1383  0.0761 -0.4266
12983TIP3    H160440   2.127   1.333  12.565  0.4433  0.5189  0.1712
12983TIP3    H260441   2.010   1.410  12.622  1.6810  2.1773  0.5505
12984TIP3   OH260442   5.737   2.653   0.650 -0.3037 -0.0276 -0.4877
12984TIP3    H160443   5.771   2.564   0.651  0.0291  0.1003 -0.1456
12984TIP3    H260444   5.738   2.680   0.742 -2.0800 -0.3010 -0.3629
12985TIP3   OH260445   6.190   5.547  16.971  0.0306  0.4580  0.6974
12985TIP3    H160446   6.134   5.614  16.932 -0.1734 -0.1550 -0.0891
12985TIP3    H260447   6.149   5.526  17.054  0.3959  1.6898  1.2033
12986TIP3   OH260448   5.864   1.860  13.120 -0.2323 -0.5243 -0.5491
12986TIP3    H160449   5.856   1.926  13.052 -1.5067  0.0155  0.0845
12986TIP3    H260450   5.796   1.796  13.099  1.6976 -2.2998 -1.7990
12987TIP3   OH260451   2.739   3.316   3.892 -0.3758 -0.2377  0.2966
12987TIP3    H160452   2.823   3.354   3.918 -1.0992  1.4518  0.2712
12987TIP3    H260453   2.760   3.225   3.871  1.7659  0.5319 -1.2928
12988TIP3   OH260454   5.764   5.830  11.319  0.2050  0.0946  0.0481
12988TIP3    H160455   5.729   5.854  11.233  0.1273  1.4907  0.4356
12988TIP3    H260456   5.816   5.906  11.345  1.2709 -0.8330  0.6839
12989TIP3   OH260457   1.833   6.159   2.028 -0.0813 -0.3871 -0.1639
12989TIP3    H160458   1.874   6.140   2.113  0.7115 -0.2429 -0.5081
12989TIP3    H260459   1.788   6.078   2.005 -1.3068 -0.0651  0.9384
12990TIP3   OH260460   3.929   2.066   3.841 -0.2579  0.0365 -0.1206
12990TIP3    H160461   3.954   1.976   3.859  1.4895  0.5302  0.1171
12990TIP3    H260462   3.933   2.075   3.746 -0.4381 -0.1464 -0.1436
12991TIP3   OH260463   0.417   3.049  15.158 -0.6996 -0.1225  0.0473
12991TIP3    H160464   0.391   3.115  15.223  0.4132  0.2629  0.1272
12991TIP3    H260465   0.501   3.082  15.124 -2.1975  0.8085 -3.1084
12992TIP3   OH260466   2.320   3.610  16.538 -0.1783  0.1298 -0.2789
12992TIP3    H160467   2.229   3.599  16.566  0.4259 -2.0400  1.1121
12992TIP3    H260468   2.352   3.685  16.588 -0.9227  0.2687 -0.0058
12993TIP3   OH260469   0.275   6.324  12.840  0.0721  0.3443 -0.0019
12993TIP3    H160470   0.195   6.334  12.891 -0.2819  0.9771 -0.6506
12993TIP3    H260471   0.259   6.247  12.785 -0.0893  0.4597 -0.1186
12994TIP3   OH260472   2.656   4.533   1.278 -0.6636  0.5388 -0.0460
12994TIP3    H160473   2.693   4.453   1.315  0.1905  0.1411 -1.6778
12994TIP3    H260474   2.599   4.503   1.207 -1.9667  1.2958  0.6402
12995TIP3   OH260475   2.098   5.239  15.840 -0.3276 -0.1750  0.4930
12995TIP3    H160476   2.048   5.220  15.761  0.0503  0.0282  0.2034
12995TIP3    H260477   2.043   5.299  15.890 -0.3888  0.0143  0.1971
12996TIP3   OH260478   3.734   2.044  14.657 -0.4013 -0.2191 -0.6536
12996TIP3    H160479   3.794   1.985  14.613 -1.3267 -2.1581  0.5176
12996TIP3    H260480   3.658   1.990  14.677 -2.1071  1.8660 -1.1235
12997TIP3   OH260481   4.922   2.708   1.240 -0.0443  0.2873  0.1000
12997TIP3    H160482   4.869   2.707   1.320 -0.6475 -1.5606 -0.2564
12997TIP3    H260483   4.967   2.623   1.241 -0.2464  0.1218 -1.6141
12998TIP3   OH260484   0.088   1.884  12.049 -0.6302 -0.2111  0.5176
12998TIP3    H160485   0.029   1.844  12.113 -1.5284  1.7105  0.9366
12998TIP3    H260486   0.137   1.949  12.099  1.1489 -1.0550 -0.0444
12999TIP3   OH260487   5.428   1.373   6.329  0.8685 -0.4551  0.3466
12999TIP3    H160488   5.462   1.299   6.380  1.8900 -0.2694 -0.0383
12999TIP3    H260489   5.482   1.447   6.357  0.1200  0.0695  0.4321
13000TIP3   OH260490   6.271   3.390   3.861  0.1110 -0.6377  0.2443
13000TIP3    H160491   6.331   3.431   3.798  1.7260 -1.3674  1.2581
13000TIP3    H260492   6.220   3.463   3.896  0.0603 -0.0596 -0.9718
13001TIP3   OH260493   3.270   1.180  13.908  0.2331  0.1215 -0.5638
13001TIP3    H160494   3.242   1.261  13.867  0.1607 -0.1751 -1.1044
13001TIP3    H260495   3.214   1.112  13.870 -0.8428  0.0230  1.0884
13002TIP3   OH260496   5.489   6.753   3.820 -0.3549 -0.2769 -0.3675
13002TIP3    H160497   5.455   6.777   3.734  0.0078 -1.0532 -0.7476
13002TIP3    H260498   5.554   6.821   3.840 -1.8949  1.0704  0.2549
13003TIP3   OH260499   6.438   2.714  15.154 -0.1157 -0.1860 -0.2315
13003TIP3    H160500   6.450   2.806  15.130  1.5409 -0.3061  0.0787
13003TIP3    H260501   6.452   2.712  15.248 -0.0530 -0.7774 -0.2515
13004TIP3   OH260502   0.726   3.600  13.010 -0.2035  0.5096  0.8818
13004TIP3    H160503   0.730   3.695  13.008 -0.0860  0.4954  0.0859
13004TIP3    H260504   0.647   3.578  12.960  0.0970  0.1765  0.5458
13005TIP3   OH260505   3.092   3.549  14.122 -0.0246 -0.0303  0.6607
13005TIP3    H160506   3.133   3.479  14.072  1.6281  1.8370 -0.7835
13005TIP3    H260507   3.060   3.610  14.055 -1.4856  0.5803  1.8569
13006TIP3   OH260508   4.505   4.772   1.238  0.0465 -0.7210  0.2228
13006TIP3    H160509   4.508   4.864   1.263 -0.1219 -0.4630 -0.6443
13006TIP3    H260510   4.467   4.727   1.313  2.2713 -0.4456  1.5956
13007TIP3   OH260511   5.316   1.777  12.608 -0.0294  0.5121  0.1397
13007TIP3    H160512   5.401   1.744  12.579 -0.5183 -0.6064 -0.0822
13007TIP3    H260513   5.315   1.869  12.581  0.2059 -0.0405 -1.8621
13008TIP3   OH260514   4.196   0.193   6.948  0.3419 -0.2468  0.0017
13008TIP3    H160515   4.275   0.174   6.997  1.2806  0.2966 -1.2431
13008TIP3    H260516   4.216   0.274   6.900 -1.2790  0.3831  0.3234
13009TIP3   OH260517   6.361   2.481   0.939 -0.6725 -0.0751  0.2071
13009TIP3    H160518   6.434   2.423   0.964  0.8856  0.8846 -1.8017
13009TIP3    H260519   6.315   2.498   1.022  0.6868 -1.6213  1.3685
13010TIP3   OH260520   0.764   1.667   0.716 -0.6232 -0.3593 -0.6799
13010TIP3    H160521   0.722   1.582   0.725  0.0854 -0.6955 -0.5003
13010TIP3    H260522   0.696   1.730   0.741 -1.3166 -0.8353 -1.3284
13011TIP3   OH260523   2.410   0.115   1.065 -0.2371  0.2481 -0.7407
13011TIP3    H160524   2.342   0.127   1.132  0.1699 -1.0141 -0.0667
13011TIP3    H260525   2.491   0.140   1.109  0.0416 -0.6533 -0.7107
13012TIP3   OH260526   6.037   3.114  10.900 -0.3193  0.1807 -0.0422
13012TIP3    H160527   6.125   3.130  10.864 -0.3722 -1.5503 -1.0222
13012TIP3    H260528   6.046   3.134  10.993  0.9117  0.7607 -0.2576
13013TIP3   OH260529   2.432   3.894  14.843  0.2014  0.8272 -0.1345
13013TIP3    H160530   2.342   3.865  14.829  0.4606  0.3648 -0.9370
13013TIP3    H260531   2.480   3.861  14.767  0.7533  2.3979 -0.5048
13014TIP3   OH260532   5.222   2.592   5.699  0.5460 -0.4354 -0.3556
13014TIP3    H160533   5.155   2.566   5.763  1.2813  0.5103  0.8386
13014TIP3    H260534   5.202   2.540   5.621 -2.5555  0.8713 -0.6131
13015TIP3   OH260535   3.244   5.332   2.928 -0.2014  0.3041 -0.3984
13015TIP3    H160536   3.273   5.370   3.010 -0.0863  1.4812 -0.9606
13015TIP3    H260537   3.321   5.289   2.892 -0.3883 -0.6830  0.3474
13016TIP3   OH260538   0.095   1.023   5.282  0.0122  0.2672  0.8488
13016TIP3    H160539   0.036   0.967   5.333 -0.5535  1.3034  1.3514
13016TIP3    H260540   0.171   0.967   5.265 -0.7841 -0.8543  0.8222
13017TIP3   OH260541   5.800   3.760  14.432  0.1348 -1.3293  0.1031
13017TIP3    H160542   5.760   3.683  14.473 -3.1788 -1.0836 -2.2542
13017TIP3    H260543   5.743   3.833  14.455  1.8800  0.0213  0.3563
13018TIP3   OH260544   5.897   3.031   4.790 -0.0200  0.1260  0.0019
13018TIP3    H160545   5.974   2.977   4.809 -0.4925 -0.5216  0.1196
13018TIP3    H260546   5.824   2.982   4.827 -0.4588  0.8893  0.1768
13019TIP3   OH260547   4.850   0.053   2.000 -0.3247  0.6536  0.5261
13019TIP3    H160548   4.835   0.138   1.958  0.0754  0.6459  0.3617
13019TIP3    H260549   4.764   0.012   2.004 -0.3183  0.4754 -0.6857
13020TIP3   OH260550   1.976   0.066   1.439 -0.7664  0.2097 -0.8139
13020TIP3    H160551   2.038  -0.005   1.424 -1.2044 -0.3287 -0.1305
13020TIP3    H260552   1.911   0.056   1.370 -2.3506 -1.7807  0.8409
13021TIP3   OH260553   5.135   2.088   4.977 -0.3840 -0.3118 -0.5442
13021TIP3    H160554   5.208   2.085   5.039 -0.4077  0.0611 -0.4951
13021TIP3    H260555   5.071   2.027   5.013 -1.2467  1.3529  0.9020
13022TIP3   OH260556   6.076   6.251  14.468  0.0768 -0.0084 -0.6628
13022TIP3    H160557   6.015   6.180  14.490  0.0432  0.1949 -0.1083
13022TIP3    H260558   6.025   6.331  14.483  0.7641  0.1948  0.6755
13023TIP3   OH260559   4.349   0.192   3.785  0.3817  0.0255  0.4377
13023TIP3    H160560   4.262   0.201   3.745 -0.3013  0.8457  2.0506
13023TIP3    H260561   4.332   0.163   3.874  1.7608  0.4084  0.8467
13024TIP3   OH260562   6.129   6.672  16.064 -0.5519 -0.8751 -0.3599
13024TIP3    H160563   6.118   6.581  16.036  0.8630 -0.2277 -3.3517
13024TIP3    H260564   6.202   6.669  16.126 -1.9470 -1.9891  1.3483
13025TIP3   OH260565   1.980   5.836  17.081 -0.0549  0.7278 -0.3000
13025TIP3    H160566   1.956   5.878  16.999 -0.3070  1.1020 -0.0388
13025TIP3    H260567   1.972   5.906  17.147  1.6461  0.8596 -0.1791
13026TIP3   OH260568   5.227   3.511   4.104  0.0266  0.1066  0.1426
13026TIP3    H160569   5.136   3.532   4.085 -0.0920  0.2601  0.8699
13026TIP3    H260570   5.274   3.532   4.023 -0.5239  0.3936 -0.1048
13027TIP3   OH260571   4.415   5.695  11.399  0.0901  0.2372  0.1987
13027TIP3    H160572   4.510   5.687  11.395  0.0663  0.3386 -1.7224
13027TIP3    H260573   4.395   5.771  11.344 -1.1035  0.2087  0.5586
13028TIP3   OH260574   3.963   0.859  12.909 -0.1250  0.0948 -0.4584
13028TIP3    H160575   4.022   0.894  12.976 -1.2274 -0.1838  0.6924
13028TIP3    H260576   3.922   0.783  12.950 -1.2038  0.2242 -1.2589
13029TIP3   OH260577   3.464   4.166  16.871  0.1085  0.5355 -0.0116
13029TIP3    H160578   3.532   4.108  16.903  0.1553  0.0559 -0.9509
13029TIP3    H260579   3.386   4.142  16.922  0.3308  0.2164  0.1819
13030TIP3   OH260580   3.566   0.766  14.536 -0.2750 -0.0565  0.1748
13030TIP3    H160581   3.484   0.813  14.551  0.0711  0.2502  1.1764
13030TIP3    H260582   3.615   0.777  14.617  2.0729  2.4102 -1.4036
13031TIP3   OH260583   0.395   1.348   3.538 -0.0992  0.5599  0.2616
13031TIP3    H160584   0.313   1.335   3.584 -0.5721 -2.0028 -1.1001
13031TIP3    H260585   0.439   1.418   3.586 -2.5850  1.2908  1.6468
13032TIP3   OH260586   1.984   0.452  13.943 -0.1223  0.8520 -0.0996
13032TIP3    H160587   2.064   0.505  13.933  0.2645  0.4174  0.6323
13032TIP3    H260588   2.015   0.362  13.941 -0.6480  0.6715 -0.1850
13033TIP3   OH260589   2.769   4.157   2.087 -0.2652 -0.1780 -0.1984
13033TIP3    H160590   2.773   4.090   2.019 -0.3173 -3.6829  2.8658
13033TIP3    H260591   2.743   4.237   2.042 -0.7596 -2.3076 -4.1195
13034TIP3   OH260592   0.118   5.063   0.513  0.1608 -0.2441  0.0066
13034TIP3    H160593   0.051   5.095   0.573  1.7930  0.9349  1.2886
13034TIP3    H260594   0.072   5.046   0.431 -1.4999  1.5830  0.5080
13035TIP3   OH260595   1.106   4.081   5.020  0.1013  0.7080  0.5183
13035TIP3    H160596   1.069   4.130   4.947  1.3229  0.1346 -0.5260
13035TIP3    H260597   1.064   3.995   5.015  1.9050 -0.1515 -1.0438
13036TIP3   OH260598   5.808   0.337   4.257 -0.1693  0.3658 -0.1649
13036TIP3    H160599   5.788   0.376   4.342 -0.6322 -0.6087  0.1786
13036TIP3    H260600   5.743   0.269   4.245 -0.7007  1.0979 -1.7317
13037TIP3   OH260601   3.978   6.651  13.661 -0.1860 -0.0647 -0.0203
13037TIP3    H160602   4.073   6.648  13.654 -0.2881 -1.2547 -1.2810
13037TIP3    H260603   3.956   6.585  13.727 -0.2181 -1.1908 -1.1139
13038TIP3   OH260604   4.299   0.298  16.515 -0.4008  0.1762  0.3705
13038TIP3    H160605   4.342   0.288  16.600 -1.0909 -0.0703  0.6979
13038TIP3    H260606   4.367   0.276  16.451  0.2433  0.7604  0.8365
13039TIP3   OH260607   6.737   4.182  12.282 -0.9390  0.3502 -0.0486
13039TIP3    H160608   6.817   4.130  12.270 -0.4146  1.4300 -1.5792
13039TIP3    H260609   6.669   4.133  12.236 -1.0735 -0.3316  0.8526
13040TIP3   OH260610   4.050   1.244  16.320  0.3339  0.1883 -0.2839
13040TIP3    H160611   3.976   1.304  16.308 -2.1224 -2.8675 -1.8470
13040TIP3    H260612   4.048   1.222  16.413 -1.2435 -0.3703 -0.4118
13041TIP3   OH260613   6.501   6.202   0.829 -0.0121 -0.6857  0.0554
13041TIP3    H160614   6.440   6.151   0.881  0.3083 -1.3341 -0.1988
13041TIP3    H260615   6.582   6.151   0.830 -0.1118 -0.9101 -1.4069
13042TIP3   OH260616   6.685   6.452   1.307  0.5357  0.2573  0.4230
13042TIP3    H160617   6.735   6.460   1.225 -0.2955 -3.1708 -0.5815
13042TIP3    H260618   6.595   6.473   1.282  0.2919 -0.7318  0.4211
13043TIP3   OH260619   0.751   3.651   3.165 -0.2579  0.3392  0.1779
13043TIP3    H160620   0.715   3.674   3.251 -2.8646 -0.0260 -0.7312
13043TIP3    H260621   0.740   3.556   3.159 -0.6238  0.4335 -0.7754
13044TIP3   OH260622   4.898   6.853  13.827  0.5204  0.4652  0.4742
13044TIP3    H160623   4.926   6.934  13.784  0.0587 -0.0408 -0.8192
13044TIP3    H260624   4.846   6.883  13.902  0.3985  1.3670  0.0437
13045TIP3   OH260625   0.633   1.929  11.683  0.0131 -0.0269 -0.3693
13045TIP3    H160626   0.691   1.853  11.677 -1.1072 -0.9846  0.5039
13045TIP3    H260627   0.615   1.938  11.776  0.5509  1.6704 -0.3940
13046TIP3   OH260628   0.901   0.451   5.576 -0.0102 -0.1883  0.4206
13046TIP3    H160629   0.921   0.529   5.628 -2.4878 -0.4500  1.8867
13046TIP3    H260630   0.924   0.377   5.633 -1.7049 -0.4813  0.7624
13047TIP3   OH260631   2.696   1.791  10.526 -0.0011  0.1880 -0.3371
13047TIP3    H160632   2.627   1.857  10.521 -0.5103 -0.4383 -2.0680
13047TIP3    H260633   2.776   1.837  10.500 -0.2264  0.2810 -0.8587
13048TIP3   OH260634   0.269   6.236   5.132 -0.2669  0.3518 -0.3567
13048TIP3    H160635   0.188   6.255   5.180  1.2324 -0.6652  2.8812
13048TIP3    H260636   0.331   6.300   5.166  1.6290 -2.2498  1.4675
13049TIP3   OH260637   2.376   4.610   3.432  0.0955  0.6623 -0.3372
13049TIP3    H160638   2.365   4.692   3.480  2.0150  1.5839 -1.3302
13049TIP3    H260639   2.462   4.578   3.460  0.4095  0.2407 -1.7235
13050TIP3   OH260640   0.209   2.642  11.141 -0.2597 -0.4337 -0.2272
13050TIP3    H160641   0.276   2.573  11.148  0.8778  0.6947  0.3970
13050TIP3    H260642   0.234   2.691  11.063 -0.1468  0.2056  0.2056
13051TIP3   OH260643   3.772   2.659  12.623 -0.1435 -0.3379 -0.0540
13051TIP3    H160644   3.759   2.754  12.628  0.0473 -0.3569  0.8903
13051TIP3    H260645   3.806   2.645  12.535  0.1540  0.5111 -0.0869
13052TIP3   OH260646   4.998   2.963  11.983 -0.5410 -0.4003 -0.3034
13052TIP3    H160647   5.041   2.932  11.904  0.7583 -0.4444  0.4008
13052TIP3    H260648   5.047   3.041  12.008 -1.6347  0.2582 -0.1404
13053TIP3   OH260649   5.499   6.556  17.047  0.1256 -0.1854 -0.4358
13053TIP3    H160650   5.497   6.495  17.120  0.3968  1.2117  0.7772
13053TIP3    H260651   5.578   6.533  16.998  0.8489 -0.1023  0.6537
13054TIP3   OH260652   6.076   3.667  11.265 -0.0538  0.3504  0.2774
13054TIP3    H160653   6.064   3.619  11.183  1.8375 -1.4518  0.9622
13054TIP3    H260654   6.003   3.638  11.320 -0.1568 -0.0323 -0.0521
13055TIP3   OH260655   5.249   2.032  12.498  0.1756  0.1286  0.2296
13055TIP3    H160656   5.337   2.035  12.460  0.3722 -1.4723  0.5090
13055TIP3    H260657   5.191   2.022  12.422  0.1626  1.6886  0.0014
13056TIP3   OH260658   3.701   6.381   0.027  0.4427  0.4492 -0.3089
13056TIP3    H160659   3.740   6.467   0.038 -0.9388  1.0565  0.0537
13056TIP3    H260660   3.688   6.349   0.116  0.7299 -0.0371 -0.4391
13057TIP3   OH260661   4.229   3.513  16.212 -0.0687  0.4865  0.6067
13057TIP3    H160662   4.210   3.605  16.228 -0.9089  0.8180 -1.7906
13057TIP3    H260663   4.317   3.500  16.248 -1.1189  1.3259  3.8118
13058TIP3   OH260664   4.233   1.260   5.485 -0.1900  0.2786  0.2277
13058TIP3    H160665   4.304   1.255   5.421  0.3381  2.1127  0.5861
13058TIP3    H260666   4.155   1.237   5.436  0.1443  2.0403 -1.2592
13059TIP3   OH260667   6.692   6.095  17.073 -0.1869  0.0012 -0.3191
13059TIP3    H160668   6.700   6.014  17.123  3.0574 -0.4863 -1.4265
13059TIP3    H260669   6.671   6.161  17.139 -1.0452 -1.3886  0.8655
13060TIP3   OH260670   3.487   3.859   1.688  0.5332  0.6480  0.1913
13060TIP3    H160671   3.510   3.775   1.647  0.2396  0.7711 -0.2429
13060TIP3    H260672   3.400   3.879   1.653  0.5682  1.0952  0.3517
13061TIP3   OH260673   6.690   3.734  12.871  0.3738  0.2800  0.5335
13061TIP3    H160674   6.720   3.807  12.926  1.4023  0.1301  0.1924
13061TIP3    H260675   6.754   3.665  12.887  0.0587 -0.1485 -0.0302
13062TIP3   OH260676   2.113   5.208   5.866 -0.4268  0.1595 -0.0563
13062TIP3    H160677   2.030   5.194   5.821  0.0247 -1.2694 -0.5038
13062TIP3    H260678   2.146   5.291   5.831 -0.6832 -0.2996 -1.4686
13063TIP3   OH260679   6.031   4.534   0.054 -0.3892  0.2100 -0.5593
13063TIP3    H160680   5.949   4.555   0.098  0.3877  2.3032  0.0017
13063TIP3    H260681   6.095   4.596   0.090  0.7580  0.6342 -3.1138
13064TIP3   OH260682   3.273   3.752   1.060 -0.1235 -0.8149  0.0371
13064TIP3    H160683   3.231   3.666   1.070 -0.4144 -0.6348  0.4049
13064TIP3    H260684   3.346   3.750   1.122 -1.3162 -0.0767  1.5411
13065TIP3   OH260685   5.401   1.969   2.861  0.1107  0.1703 -0.1594
13065TIP3    H160686   5.358   1.943   2.942 -0.4804  1.0246 -0.1885
13065TIP3    H260687   5.368   1.909   2.795  1.6008 -1.4051  0.4461
13066TIP3   OH260688   3.346   1.175   1.123  0.6682 -0.3515 -0.0241
13066TIP3    H160689   3.424   1.124   1.098  1.0584  0.8548 -1.4455
13066TIP3    H260690   3.378   1.237   1.188  0.8737 -0.0039 -0.4451
13067TIP3   OH260691   1.910   6.579   0.365 -0.0046  0.3972 -0.3411
13067TIP3    H160692   1.979   6.642   0.386  0.1993 -0.0151  0.2434
13067TIP3    H260693   1.955   6.508   0.320 -0.0880  0.2561 -0.2052
13068TIP3   OH260694   0.108   0.862   1.431 -0.0970  0.1187  0.7306
13068TIP3    H160695   0.069   0.808   1.500 -1.1299  1.5741  1.3431
13068TIP3    H260696   0.046   0.856   1.358  1.0987 -1.5877 -0.1914
13069TIP3   OH260697   3.768   5.056   1.640 -0.2713 -0.7767 -0.2717
13069TIP3    H160698   3.752   4.999   1.716 -1.5675 -0.7607 -0.5109
13069TIP3    H260699   3.681   5.080   1.609  0.2394 -0.5990 -1.6486
13070TIP3   OH260700   4.357   3.646  13.929  0.6045  1.0418  0.1875
13070TIP3    H160701   4.263   3.661  13.923  0.0792 -2.0546 -1.2140
13070TIP3    H260702   4.391   3.671  13.842  0.3980 -1.2499 -0.6223
13071TIP3   OH260703   4.331   1.079   2.501  0.4150 -0.1875  0.1769
13071TIP3    H160704   4.391   1.149   2.525  0.1260 -0.1085  0.6975
13071TIP3    H260705   4.274   1.117   2.435 -0.1833  0.2960  0.9514
13072TIP3   OH260706   3.860   2.036   1.438  0.5617  0.3137 -0.1373
13072TIP3    H160707   3.831   1.963   1.493 -0.7182 -0.4785 -1.7982
13072TIP3    H260708   3.929   1.999   1.384 -0.4860  0.1315 -1.3899
13073TIP3   OH260709   4.859   0.111  13.477  0.4516 -0.1385  0.3159
13073TIP3    H160710   4.872   0.152  13.392  1.1000  0.5697  0.7458
13073TIP3    H260711   4.897   0.024  13.468 -0.3546 -0.4313 -0.4059
13074TIP3   OH260712   4.123   4.762  10.723  0.3527 -0.0406 -0.1889
13074TIP3    H160713   4.197   4.731  10.671  0.9646  0.2354  0.5074
13074TIP3    H260714   4.049   4.706  10.696  0.3063  1.0013 -2.3546
13075TIP3   OH260715   4.933   2.317   2.720  0.0321  0.0101 -0.2310
13075TIP3    H160716   4.926   2.412   2.727  2.4805  0.3170 -1.2029
13075TIP3    H260717   5.007   2.294   2.776  1.5868 -0.8741 -2.5206
13076TIP3   OH260718   0.614   1.921  11.951 -0.0423 -0.7394 -0.0296
13076TIP3    H160719   0.600   1.826  11.958  1.4583 -1.0207 -0.5353
13076TIP3    H260720   0.702   1.935  11.985 -0.5402  0.5971  0.7556
13077TIP3   OH260721   6.826   5.728   3.968  0.0509 -0.0565 -0.0963
13077TIP3    H160722   6.739   5.746   4.004 -0.2364  0.6627 -1.1040
13077TIP3    H260723   6.865   5.815   3.957  0.5615 -0.3309 -0.4656
13078TIP3   OH260724   2.098   6.158  17.013 -0.2351  0.8437  0.5627
13078TIP3    H160725   2.159   6.132  17.081 -0.9999 -0.4089  0.7986
13078TIP3    H260726   2.096   6.254  17.017  1.4699  0.8905  0.7311
13079TIP3   OH260727   2.492   2.032  13.031 -0.0528 -0.4865 -0.3735
13079TIP3    H160728   2.455   2.005  12.947  0.3414 -0.6562 -0.4925
13079TIP3    H260729   2.431   2.098  13.064  0.5488  0.6583 -1.4779
13080TIP3   OH260730   5.941   2.665  14.735 -0.5724 -0.1182  0.1223
13080TIP3    H160731   5.919   2.731  14.801 -1.2017 -0.2540  0.0596
13080TIP3    H260732   5.856   2.636  14.701 -0.2554  0.2577 -1.0544
13081TIP3   OH260733   6.833   3.039   3.042  0.3214 -0.3377 -0.2368
13081TIP3    H160734   6.782   3.082   2.974  0.1253  0.4886  0.4213
13081TIP3    H260735   6.815   2.946   3.031  0.4837 -0.2346 -1.4635
13082TIP3   OH260736   1.196   2.284   3.737  0.8409  0.5005  0.3474
13082TIP3    H160737   1.138   2.221   3.779  0.8099  0.1482 -0.2090
13082TIP3    H260738   1.284   2.257   3.763  0.7622  0.9506  1.0786
13083TIP3   OH260739   2.842   3.440  13.727  0.5800  0.2619  0.0777
13083TIP3    H160740   2.902   3.381  13.772 -1.3053 -0.6959  1.4343
13083TIP3    H260741   2.811   3.390  13.652  0.4757  0.2658  0.1182
13084TIP3   OH260742   5.032   3.132   5.278 -0.5417 -0.5879  0.2640
13084TIP3    H160743   4.966   3.153   5.212  0.1003 -0.8283 -0.4647
13084TIP3    H260744   4.983   3.087   5.347 -0.9631 -1.7480 -0.7662
13085TIP3   OH260745   3.569   0.688   4.933  0.2633 -0.3842 -0.1093
13085TIP3    H160746   3.550   0.782   4.931  0.6170 -0.2770  0.7843
13085TIP3    H260747   3.534   0.659   5.017 -1.3991 -1.4257 -1.1001
13086TIP3   OH260748   3.358   5.878   0.392 -0.5147 -0.1814  0.2977
13086TIP3    H160749   3.331   5.963   0.359 -1.2158 -0.5689 -0.1501
13086TIP3    H260750   3.316   5.871   0.478  1.7838  1.0769  1.6234
13087TIP3   OH260751   2.350   1.508  15.406  0.1195  0.4119  0.8781
13087TIP3    H160752   2.387   1.487  15.491 -0.5190 -2.5602  0.5263
13087TIP3    H260753   2.269   1.457  15.402  0.9842 -0.9453 -2.1279
13088TIP3   OH260754   3.052   4.160  12.524  0.0549  0.4229  0.6032
13088TIP3    H160755   3.069   4.102  12.598 -1.8565  1.0223  1.5854
13088TIP3    H260756   3.030   4.245  12.563  0.5940  1.2111 -0.7187
13089TIP3   OH260757   4.743   6.306   1.483  0.1466  0.8398 -0.5702
13089TIP3    H160758   4.815   6.351   1.528 -0.1186  1.4038 -0.7041
13089TIP3    H260759   4.764   6.313   1.390  1.3275 -1.3968 -0.5185
13090TIP3   OH260760   1.652   3.554   0.204 -0.4695 -0.7960  0.1218
13090TIP3    H160761   1.702   3.620   0.252 -0.8694  0.6352 -1.3469
13090TIP3    H260762   1.654   3.476   0.260  3.2343 -0.7732  0.2300
13091TIP3   OH260763   3.196   1.108   3.067 -0.0145  0.4166  0.1863
13091TIP3    H160764   3.177   1.167   2.994  0.5268  0.4217  0.0402
13091TIP3    H260765   3.283   1.073   3.046  0.9548  1.7624  1.7075
13092TIP3   OH260766   4.331   1.612  13.796 -0.4940  0.2808 -0.1597
13092TIP3    H160767   4.301   1.703  13.782 -1.7995  0.4363  2.9807
13092TIP3    H260768   4.424   1.614  13.773 -0.4105  2.5050  0.1458
13093TIP3   OH260769   2.629   6.787  16.914  0.1182 -0.4388  0.6721
13093TIP3    H160770   2.548   6.835  16.933 -0.2076 -0.9903  0.6897
13093TIP3    H260771   2.682   6.849  16.865  0.5828  0.6906  2.5060
13094TIP3   OH260772   1.238   1.500  11.774 -0.0607 -0.2199 -0.1674
13094TIP3    H160773   1.332   1.519  11.770 -0.2188  0.3666 -1.5879
13094TIP3    H260774   1.219   1.457  11.691 -0.9271 -1.0346  0.4291
13095TIP3   OH260775   4.239   3.982  15.412 -0.4595 -1.1389  0.1803
13095TIP3    H160776   4.181   3.920  15.456 -2.1120 -0.4776 -0.9661
13095TIP3    H260777   4.291   4.021  15.483 -0.9667 -2.1996  1.1621
13096TIP3   OH260778   6.479   6.559   3.344  0.5893  0.5964 -0.0869
13096TIP3    H160779   6.571   6.577   3.327  0.3112  1.0860 -1.1234
13096TIP3    H260780   6.434   6.580   3.262 -0.4156  0.1287  0.3216
13097TIP3   OH260781   3.833   1.312  12.222  0.1778 -0.6310 -0.5735
13097TIP3    H160782   3.761   1.251  12.236  1.1133 -1.4970  0.7263
13097TIP3    H260783   3.792   1.398  12.222 -1.1073 -1.1997 -1.9507
13098TIP3   OH260784   3.479   4.210   1.693 -0.2649 -0.2397 -0.0745
13098TIP3    H160785   3.413   4.168   1.748 -0.0033 -0.9102 -0.2713
13098TIP3    H260786   3.559   4.161   1.710 -0.5600 -1.6854 -2.4305
13099TIP3   OH260787   2.988   6.124  15.184 -0.3294 -0.0130  0.0389
13099TIP3    H160788   2.898   6.153  15.169  0.2335  0.5444 -2.8931
13099TIP3    H260789   3.005   6.060  15.114  1.1745 -1.1082  1.3153
13100TIP3   OH260790   1.058   1.642   5.569 -0.1945 -0.4953 -0.8548
13100TIP3    H160791   0.963   1.630   5.578 -0.5002  2.0792  0.0072
13100TIP3    H260792   1.093   1.622   5.656  0.4120 -3.4270 -1.6429
13101TIP3   OH260793   5.936   4.920  17.059  0.1879 -0.5275  0.6447
13101TIP3    H160794   5.916   5.003  17.017 -0.6654 -0.4738  1.1190
13101TIP3    H260795   5.868   4.860  17.027  2.0682 -1.6759 -1.4313
13102TIP3   OH260796   3.102   5.758  13.175 -0.5166  0.3324  0.1689
13102TIP3    H160797   3.108   5.663  13.184  0.7970  0.3924  0.1025
13102TIP3    H260798   3.009   5.774  13.157 -1.1197 -0.7694  1.9584
13103TIP3   OH260799   6.025   3.662  15.038  0.1152  0.0745 -0.4368
13103TIP3    H160800   6.026   3.754  15.012 -1.6176  0.8023  1.7764
13103TIP3    H260801   5.934   3.635  15.029  0.3585 -1.0398  0.1852
13104TIP3   OH260802   1.592   3.608  16.026 -0.4412  0.5655  0.1444
13104TIP3    H160803   1.561   3.693  16.056  1.1954  0.6887  1.5802
13104TIP3    H260804   1.663   3.585  16.085 -0.9390 -1.8935 -0.0976
13105TIP3   OH260805   5.769   2.760  16.684  0.1560 -0.0020 -0.3163
13105TIP3    H160806   5.776   2.739  16.777 -1.4703 -0.6260 -0.3054
13105TIP3    H260807   5.689   2.716  16.655  0.2540  0.7558 -1.8543
13106TIP3   OH260808   6.806   0.088  16.984 -0.3566  0.2918  0.1029
13106TIP3    H160809   6.837   0.172  16.952 -1.3937  0.6562  0.0042
13106TIP3    H260810   6.783   0.039  16.904 -1.5764  0.6571  0.2065
13107TIP3   OH260811   5.107   3.125   1.222  0.0043 -0.4521  0.7175
13107TIP3    H160812   5.071   3.205   1.260  1.8918  0.9550 -0.2777
13107TIP3    H260813   5.031   3.066   1.213 -1.4893  1.3057  1.2068
13108TIP3   OH260814   3.039   4.408  11.607 -0.2371  0.3183  0.0244
13108TIP3    H160815   3.121   4.457  11.606 -0.0276 -0.0256 -0.8640
13108TIP3    H260816   2.989   4.441  11.532 -0.6043  0.0232  0.1298
13109TIP3   OH260817   5.005   6.783  14.793 -0.4883  0.3969 -0.1015
13109TIP3    H160818   5.057   6.767  14.714 -1.3153 -0.5369 -0.4824
13109TIP3    H260819   4.916   6.796  14.760 -0.8615 -0.1175  0.6917
13110TIP3   OH260820   5.292   5.346   4.631  0.4198 -0.2592 -0.2428
13110TIP3    H160821   5.203   5.363   4.660  0.8083 -1.1725  1.5792
13110TIP3    H260822   5.343   5.335   4.711  2.1237 -0.0784 -1.2352
13111TIP3   OH260823   1.635   4.622   1.070  0.4309  0.4704 -0.0006
13111TIP3    H160824   1.594   4.635   0.984  0.6333  1.7224  0.0726
13111TIP3    H260825   1.566   4.583   1.124  0.5217 -1.0087 -0.9105
13112TIP3   OH260826   6.350   3.450   5.672  0.2348  0.1163 -0.3451
13112TIP3    H160827   6.307   3.474   5.590 -1.2185  0.5034  0.4944
13112TIP3    H260828   6.287   3.393   5.717  0.9555  0.0021  0.5615
13113TIP3   OH260829   3.125   3.193  15.788  0.2733  0.3759 -0.1047
13113TIP3    H160830   3.210   3.203  15.830  1.0632 -0.2000 -1.5168
13113TIP3    H260831   3.095   3.105  15.814  0.6865  0.0868 -0.5828
13114TIP3   OH260832   0.570   2.663  14.584 -0.1526 -0.2950  0.3795
13114TIP3    H160833   0.545   2.617  14.664  0.0815  1.0699  1.2754
13114TIP3    H260834   0.527   2.748  14.592  1.8387  0.7740  0.2424
13115TIP3   OH260835   0.058   6.027   4.272 -0.3067  0.3574 -0.4437
13115TIP3    H160836   0.070   6.121   4.285 -0.7095  0.4889 -0.9904
13115TIP3    H260837   0.053   6.016   4.177 -0.1492 -0.2307 -0.3890
13116TIP3   OH260838   2.809   4.610   1.659 -0.4509  0.7572 -0.8224
13116TIP3    H160839   2.748   4.623   1.732  0.1504 -0.5481 -0.0556
13116TIP3    H260840   2.787   4.680   1.597 -4.2004 -0.8771 -1.6220
13117TIP3   OH260841   5.659   2.503   0.382 -0.2068 -0.2955 -0.1009
13117TIP3    H160842   5.700   2.586   0.360  0.5295 -0.5493  0.2885
13117TIP3    H260843   5.708   2.471   0.458  0.4402 -1.7560 -1.0875
13118TIP3   OH260844   1.604   6.353  14.138 -0.0830 -0.0480 -0.0898
13118TIP3    H160845   1.659   6.282  14.171  0.6257 -0.1225 -1.3620
13118TIP3    H260846   1.515   6.327  14.159  0.3112 -0.2725  1.3773
13119TIP3   OH260847   1.453   3.594   0.022  0.1575 -0.1349 -0.0698
13119TIP3    H160848   1.526   3.581   0.082  0.0924  0.5100  0.1550
13119TIP3    H260849   1.434   3.506  -0.012 -0.2224 -0.6194  1.3325
13120TIP3   OH260850   3.513   5.986  16.095 -0.3118  0.3234 -0.0611
13120TIP3    H160851   3.507   5.933  16.016  2.4974 -0.1154 -0.0647
13120TIP3    H260852   3.422   6.007  16.116 -1.2151 -0.3955 -2.7998
13121TIP3   OH260853   0.702   4.167  14.623 -0.3020  0.0273 -0.0925
13121TIP3    H160854   0.746   4.226  14.563 -1.8139  1.8076  0.4568
13121TIP3    H260855   0.705   4.211  14.708 -2.5024 -0.0550  0.0909
13122TIP3   OH260856   5.346   3.334  14.988 -0.0384  0.0839  0.0457
13122TIP3    H160857   5.334   3.240  14.998  0.6199  0.0545  0.6407
13122TIP3    H260858   5.258   3.368  14.975 -0.1652 -0.7485 -1.4364
13123TIP3   OH260859   0.906   4.612   5.059  0.4943  0.3729  0.6762
13123TIP3    H160860   0.907   4.551   4.986  1.0500  0.4070  0.6514
13123TIP3    H260861   0.834   4.581   5.115  0.3055  0.1308  0.3011
13124TIP3   OH260862   0.919   4.436   2.229 -0.1658  0.3598 -0.4154
13124TIP3    H160863   0.978   4.511   2.242 -0.6991  0.5802  0.9026
13124TIP3    H260864   0.946   4.398   2.145  4.1169 -1.6173  1.5657
13125TIP3   OH260865   3.330   4.365   0.269  0.1383  0.2469 -0.2396
13125TIP3    H160866   3.259   4.323   0.220  1.7190 -2.1237 -0.6788
13125TIP3    H260867   3.286   4.411   0.340 -1.8460 -1.1077 -0.5059
13126TIP3   OH260868   2.031   3.985   1.860  0.2625 -0.1540 -0.2299
13126TIP3    H160869   2.077   4.069   1.860  1.3276 -0.7099  0.3484
13126TIP3    H260870   2.024   3.962   1.953  0.4199 -0.9188 -0.3971
13127TIP3   OH260871   5.675   3.621   4.090 -0.2261 -0.3054 -0.0471
13127TIP3    H160872   5.626   3.550   4.131 -0.7270 -0.4773 -0.9127
13127TIP3    H260873   5.703   3.586   4.006  1.8222 -0.3811  0.5927
13128TIP3   OH260874   2.247   2.309  10.841  0.4457  0.2902  0.6140
13128TIP3    H160875   2.188   2.378  10.871 -1.1647 -0.0097 -1.5720
13128TIP3    H260876   2.282   2.342  10.758  0.0193 -1.2531 -0.2246
13129TIP3   OH260877   2.809   4.563   3.289  0.8270  0.0723 -0.5340
13129TIP3    H160878   2.808   4.489   3.349  0.0019  0.0226 -0.5976
13129TIP3    H260879   2.845   4.636   3.341  0.6988 -0.1192 -0.1752
13130TIP3   OH260880   3.590   3.093   4.609 -0.1435 -0.5505 -0.0345
13130TIP3    H160881   3.508   3.049   4.630 -0.2461 -0.6274 -0.5653
13130TIP3    H260882   3.592   3.169   4.667 -0.7988 -0.3144 -0.3032
13131TIP3   OH260883   4.816   2.368  14.387  0.3421 -0.1777  0.1283
13131TIP3    H160884   4.886   2.329  14.438 -1.5987 -2.2076  1.4591
13131TIP3    H260885   4.815   2.318  14.305 -0.3512 -1.0623  0.6618
13132TIP3   OH260886   2.505   1.009   2.774 -0.3658 -0.2247 -0.0068
13132TIP3    H160887   2.490   1.098   2.806  1.6520  0.0303  0.3839
13132TIP3    H260888   2.483   0.953   2.848 -2.4872 -0.1731 -0.5255
13133TIP3   OH260889   4.145   4.281  13.124 -0.1325 -0.0082 -0.5773
13133TIP3    H160890   4.162   4.258  13.032 -0.5541  0.6401 -0.8251
13133TIP3    H260891   4.050   4.283  13.130 -0.1732  2.7506 -0.8775
13134TIP3   OH260892   5.877   4.470   3.295  1.3406  0.2755  0.1003
13134TIP3    H160893   5.868   4.456   3.389 -0.1388 -1.4048 -0.2297
13134TIP3    H260894   5.894   4.563   3.285 -0.0728  0.7750  1.9540
13135TIP3   OH260895   2.568   2.560   5.789  0.2049 -0.6289 -0.0958
13135TIP3    H160896   2.617   2.638   5.816  1.4303 -1.7934  1.2369
13135TIP3    H260897   2.560   2.568   5.694 -0.3472  1.4636  0.0874
13136TIP3   OH260898   3.190   0.509  14.330  0.0645 -0.7490 -0.0267
13136TIP3    H160899   3.105   0.536  14.364  0.7838 -0.0426  1.2704
13136TIP3    H260900   3.201   0.559  14.249 -0.8137 -0.9794 -0.3024
13137TIP3   OH260901   0.258   1.489   4.452 -0.0644 -0.3415 -0.5073
13137TIP3    H160902   0.266   1.581   4.425  0.5180 -0.4242 -0.6112
13137TIP3    H260903   0.193   1.452   4.392 -1.1221  0.2733  0.2204
13138TIP3   OH260904   6.502   2.473  12.079 -0.6539 -0.2017  0.4845
13138TIP3    H160905   6.513   2.557  12.124 -1.7723 -0.3629  1.1114
13138TIP3    H260906   6.522   2.408  12.146  0.1433 -0.4487  0.0169
13139TIP3   OH260907   6.637   5.476  14.764  0.0681 -0.2125 -0.3647
13139TIP3    H160908   6.614   5.408  14.829 -1.6619  0.3632 -0.3134
13139TIP3    H260909   6.584   5.454  14.688  0.2371  0.5330 -0.6972
13140TIP3   OH260910   2.477   6.003  14.284 -0.2216  0.0888 -0.5396
13140TIP3    H160911   2.399   5.992  14.230  0.0949  0.0660 -1.0011
13140TIP3    H260912   2.453   6.070  14.348 -2.2088 -3.0489  2.3465
13141TIP3   OH260913   2.609   5.825  10.583 -0.4100 -0.1738  0.1843
13141TIP3    H160914   2.618   5.757  10.650  1.3344 -2.7881 -2.4939
13141TIP3    H260915   2.539   5.793  10.526 -0.1259  0.7020 -0.6782
13142TIP3   OH260916   3.700   3.639   0.131 -0.1490 -0.3121  0.4252
13142TIP3    H160917   3.721   3.548   0.109 -1.3890 -0.3522 -0.7639
13142TIP3    H260918   3.604   3.642   0.128 -0.1050  1.5713 -1.9455
13143TIP3   OH260919   5.477   5.500  14.447  0.4175  0.1634  0.0569
13143TIP3    H160920   5.484   5.477  14.355  1.0033  0.0471  0.1242
13143TIP3    H260921   5.503   5.592  14.451  0.2807  0.2005  0.0902
13144TIP3   OH260922   0.396   1.026  10.863  0.5217 -0.5001 -0.5327
13144TIP3    H160923   0.333   1.052  10.796 -1.2301 -0.3750  1.0756
13144TIP3    H260924   0.368   0.939  10.890  1.8013 -0.9581 -0.6110
13145TIP3   OH260925   3.302   5.443   2.651 -0.1062  0.5084  0.0572
13145TIP3    H160926   3.331   5.398   2.731 -0.4378 -1.4173 -0.8414
13145TIP3    H260927   3.206   5.440   2.655 -0.1237 -0.0834 -0.6594
13146TIP3   OH260928   5.046   3.079   4.923 -0.3297 -0.2719  0.5799
13146TIP3    H160929   4.965   3.124   4.900  0.0109 -0.7858 -1.8926
13146TIP3    H260930   5.024   2.986   4.922 -0.1527 -0.3525  1.9538
13147TIP3   OH260931   0.853   2.180  10.875  0.4348  0.1524 -0.0049
13147TIP3    H160932   0.800   2.208  10.801  0.6570 -1.3483 -0.7710
13147TIP3    H260933   0.931   2.236  10.872 -0.3864  1.3379  0.2180
13148TIP3   OH260934   5.734   6.716  15.795 -0.2810 -0.1763  0.3670
13148TIP3    H160935   5.776   6.788  15.748  0.1447 -1.2752 -0.9982
13148TIP3    H260936   5.687   6.758  15.867 -0.7534  1.5324 -0.8990
13149TIP3   OH260937   2.247   2.118  13.815 -0.2068 -0.4614 -0.1080
13149TIP3    H160938   2.236   2.103  13.721  0.2740  2.0690 -0.6550
13149TIP3    H260939   2.167   2.162  13.842  0.3659  0.3847  0.2590
13150TIP3   OH260940   5.653   4.402   1.109 -0.2175  0.7883  0.2434
13150TIP3    H160941   5.589   4.464   1.076 -0.3915  0.2285 -0.4938
13150TIP3    H260942   5.666   4.427   1.201 -1.3829  1.0019  0.3653
13151TIP3   OH260943   5.068   0.772   4.464 -0.5491  0.2673  0.5376
13151TIP3    H160944   5.139   0.782   4.528 -0.1555 -0.6452  0.2606
13151TIP3    H260945   5.077   0.848   4.407  1.5037 -0.8147 -0.7046
13152TIP3   OH260946   3.298   2.712  15.346 -0.0597 -0.3303  0.4509
13152TIP3    H160947   3.209   2.717  15.312  0.0386 -0.9441  0.0950
13152TIP3    H260948   3.352   2.754  15.279 -0.0743  0.0449  0.6681
13153TIP3   OH260949   6.066   6.071   2.638 -0.0270  0.0662  0.6915
13153TIP3    H160950   6.112   6.150   2.666 -0.6077  0.0225  1.8223
13153TIP3    H260951   6.055   6.020   2.718  1.0958 -1.5862 -0.1441
13154TIP3   OH260952   1.057   2.350  13.150  0.2044  0.3553  0.3253
13154TIP3    H160953   0.966   2.353  13.178 -0.0479 -2.7367  0.1231
13154TIP3    H260954   1.107   2.374  13.228 -0.7215  0.1462  0.9910
13155TIP3   OH260955   0.143   4.261  14.154  0.0433  0.3525 -0.1596
13155TIP3    H160956   0.095   4.344  14.151 -2.3617 -0.9249  0.4452
13155TIP3    H260957   0.134   4.225  14.066 -1.1337 -0.4024  0.2508
13156TIP3   OH260958   0.909   0.481   3.374  0.0078 -0.2478  0.8201
13156TIP3    H160959   0.980   0.423   3.400 -1.4561 -1.9890  1.1239
13156TIP3    H260960   0.860   0.431   3.309 -0.0430  1.5503 -0.5766
13157TIP3   OH260961   3.752   2.257  13.523  0.1014 -0.0072  0.8831
13157TIP3    H160962   3.681   2.259  13.587 -0.2843  1.4676  0.4494
13157TIP3    H260963   3.817   2.198  13.561  0.5337  1.9003  3.3872
13158TIP3   OH260964   4.771   3.868  11.352 -0.1960 -0.1939 -0.4810
13158TIP3    H160965   4.847   3.895  11.403  2.3641 -2.8577 -2.5506
13158TIP3    H260966   4.745   3.946  11.303  2.0276  0.4738 -0.6783
13159TIP3   OH260967   0.827   0.844  13.248  0.1323 -0.0838 -0.2391
13159TIP3    H160968   0.804   0.934  13.223  0.8239  0.1278 -0.1339
13159TIP3    H260969   0.819   0.794  13.168 -1.4579 -0.1805 -0.0476
13160TIP3   OH260970   2.737   4.957   4.996  0.2228  0.1483  0.3340
13160TIP3    H160971   2.728   4.997   5.082 -0.7671 -1.6770  1.1335
13160TIP3    H260972   2.758   5.029   4.938 -1.2766  1.7803  1.7178
13161TIP3   OH260973   4.381   2.267   0.678 -0.3387 -0.0277  0.5545
13161TIP3    H160974   4.419   2.301   0.760 -1.5187  0.4939  0.9010
13161TIP3    H260975   4.369   2.174   0.694  0.4154 -0.1247  0.5850
13162TIP3   OH260976   4.746   1.667  12.010  0.3912 -0.5469  0.7208
13162TIP3    H160977   4.708   1.703  12.091  1.2310 -0.4709  1.0872
13162TIP3    H260978   4.684   1.692  11.942 -0.8632 -1.4728  1.4709
13163TIP3   OH260979   3.263   1.959   3.752 -0.0109  0.5416  0.1028
13163TIP3    H160980   3.239   1.922   3.837  0.9841  0.0741  0.1859
13163TIP3    H260981   3.347   2.002   3.767  0.8902 -0.7746 -0.9692
13164TIP3   OH260982   6.114   2.846  11.739 -0.4466 -0.4053  0.0320
13164TIP3    H160983   6.184   2.901  11.703 -1.2038  0.6231  0.0976
13164TIP3    H260984   6.115   2.865  11.832  0.8646 -2.3372  0.4768
13165TIP3   OH260985   1.136   3.613   5.151 -0.0423 -0.0029  0.4648
13165TIP3    H160986   1.167   3.692   5.107 -0.7758  1.0099  1.6722
13165TIP3    H260987   1.119   3.551   5.081  1.8035  0.4334 -0.4280
13166TIP3   OH260988   6.119   5.489  14.366  0.3219  0.1492 -0.7271
13166TIP3    H160989   6.173   5.425  14.321 -0.3682 -0.4631 -0.6978
13166TIP3    H260990   6.171   5.570  14.365  2.0196 -0.8473  0.8419
13167TIP3   OH260991   0.857   0.028   1.350  0.2270 -0.5672 -0.0323
13167TIP3    H160992   0.775   0.014   1.302  0.8233  0.4929 -1.4188
13167TIP3    H260993   0.925   0.017   1.284  1.0728  0.9579  0.5439
13168TIP3   OH260994   6.643   1.694   1.411  0.1899 -0.0052  0.6655
13168TIP3    H160995   6.692   1.700   1.329 -0.9133 -1.7362 -0.1678
13168TIP3    H260996   6.555   1.725   1.389 -0.0944 -0.4117  1.2185
13169TIP3   OH260997   6.388   4.546  14.120 -0.2747  0.2245  0.5098
13169TIP3    H160998   6.359   4.479  14.058 -0.0393  0.6143 -0.0310
13169TIP3    H260999   6.307   4.582  14.156 -0.4098 -0.0459  0.4798
13170TIP3   OH261000   5.464   4.825   0.830  0.1307  0.1504  0.0346
13170TIP3    H161001   5.424   4.784   0.753  0.1018  1.8920 -0.9143
13170TIP3    H261002   5.394   4.878   0.868 -0.5042 -2.2257  2.5346
13171TIP3   OH261003   2.602   3.372   5.463  0.3592  0.2434  0.2184
13171TIP3    H161004   2.607   3.436   5.391  1.1507  3.2650  2.7554
13171TIP3    H261005   2.684   3.323   5.457  1.5405  2.1140  0.4399
13172TIP3   OH261006   4.396   4.148   0.548 -0.2697  0.5735  0.8030
13172TIP3    H161007   4.352   4.091   0.610  2.5088 -3.8918 -0.8460
13172TIP3    H261008   4.341   4.145   0.469 -0.4776  0.8043  0.9367
13173TIP3   OH261009   3.597   5.253   1.460 -0.0115  0.3403  0.2819
13173TIP3    H161010   3.545   5.334   1.457 -0.2738  0.1888  0.6809
13173TIP3    H261011   3.573   5.206   1.380 -0.6710  0.1628  0.5758
13174TIP3   OH261012   2.700   0.860  13.202 -0.2435  0.2296  0.1595
13174TIP3    H161013   2.788   0.867  13.239  0.7923  0.9444 -2.2353
13174TIP3    H261014   2.659   0.944  13.222  0.2951  0.6077 -0.2906
13175TIP3   OH261015   0.819   2.884  12.109  0.3164 -0.0025 -0.1077
13175TIP3    H161016   0.749   2.908  12.171 -0.8287  2.1056 -2.0694
13175TIP3    H261017   0.779   2.819  12.052  0.5547 -0.1308 -0.1293
13176TIP3   OH261018   4.332   0.751  10.649  0.4675 -0.1051  0.4109
13176TIP3    H161019   4.243   0.783  10.633  0.7692  1.6578  1.8723
13176TIP3    H261020   4.325   0.702  10.731  0.9542  0.7602  0.9892
13177TIP3   OH261021   5.672   3.184  16.585  0.2274 -0.0346  0.1486
13177TIP3    H161022   5.736   3.193  16.515 -1.1594 -0.5742 -1.2324
13177TIP3    H261023   5.663   3.272  16.621 -0.0573  0.5391 -1.2850
13178TIP3   OH261024   4.932   3.333   0.820  0.1555  0.8265  1.0381
13178TIP3    H161025   4.871   3.324   0.747  1.6702 -2.5605  0.0192
13178TIP3    H261026   4.964   3.423   0.813 -0.3952  0.8888 -1.9447
13179TIP3   OH261027   2.205   2.572   4.650 -0.9016 -0.3509  0.1626
13179TIP3    H161028   2.174   2.503   4.708 -0.9183  0.6314  1.3568
13179TIP3    H261029   2.172   2.548   4.564 -1.5396 -1.4313  0.6966
13180TIP3   OH261030   0.353   1.023  15.206 -0.6626 -0.2309 -0.8103
13180TIP3    H161031   0.375   1.080  15.280  2.9082 -0.3350 -1.5726
13180TIP3    H261032   0.327   0.941  15.246  1.2590 -0.3060  0.4380
13181TIP3   OH261033   2.441   4.368   5.079  0.3972  0.1640 -0.0409
13181TIP3    H161034   2.401   4.452   5.056 -2.3073 -1.2196 -0.8208
13181TIP3    H261035   2.408   4.349   5.167 -1.2098 -1.2102 -0.8697
13182TIP3   OH261036   2.362   6.638  16.433 -0.1287  0.0079 -0.2642
13182TIP3    H161037   2.403   6.679  16.357  0.8784  1.5192  1.0260
13182TIP3    H261038   2.417   6.664  16.507 -1.1790 -1.2535  1.0262
13183TIP3   OH261039   2.060   5.629   5.684  0.2625  0.1122 -0.3294
13183TIP3    H161040   2.021   5.710   5.716 -0.9649 -0.9066  0.8387
13183TIP3    H261041   2.123   5.604   5.752 -0.9614 -1.0389  0.4375
13184TIP3   OH261042   4.404   4.029   3.057 -0.7585 -0.3626 -0.1076
13184TIP3    H161043   4.435   4.000   2.971  1.2473 -1.3053  0.8687
13184TIP3    H261044   4.386   3.948   3.105  1.4850 -0.0328  1.4637
13185TIP3   OH261045   1.504   1.910   1.103 -0.2516  0.1195  0.2312
13185TIP3    H161046   1.564   1.941   1.171  0.5489  0.3090 -0.5378
13185TIP3    H261047   1.444   1.984   1.090 -1.3384 -0.4543  1.7339
13186TIP3   OH261048   3.202   1.607  11.758 -0.1223 -0.0563  0.1205
13186TIP3    H161049   3.115   1.621  11.795 -0.3264  0.9781 -0.7062
13186TIP3    H261050   3.185   1.573  11.670  0.2248  2.2886 -0.9154
13187TIP3   OH261051   0.483   4.480  13.315 -0.1639  0.2817 -0.3295
13187TIP3    H161052   0.538   4.550  13.281 -2.1345  2.1407  0.0826
13187TIP3    H261053   0.440   4.443  13.238  1.0140 -0.6554 -0.5665
13188TIP3   OH261054   4.399   3.844   0.372  0.1993 -0.7820 -1.0223
13188TIP3    H161055   4.461   3.847   0.299 -0.3664  1.0307 -1.4925
13188TIP3    H261056   4.454   3.839   0.450  0.8222 -2.3064 -1.5261
13189TIP3   OH261057   2.778   6.359   6.320 -0.1669  0.3265  0.2581
13189TIP3    H161058   2.816   6.296   6.259 -2.1531 -1.5119  0.7889
13189TIP3    H261059   2.846   6.374   6.385  0.7996 -0.2639 -0.5830
13190TIP3   OH261060   0.630   5.722   0.823 -0.2888 -0.6984 -0.2749
13190TIP3    H161061   0.614   5.658   0.753  0.3635 -2.0140  0.7205
13190TIP3    H261062   0.650   5.668   0.899 -2.0863  0.6529  1.2498
13191TIP3   OH261063   1.751   1.589   3.651 -1.1886  0.0136 -0.0122
13191TIP3    H161064   1.766   1.618   3.561 -1.2925 -1.7718 -0.6508
13191TIP3    H261065   1.656   1.594   3.661 -1.2583 -0.5867 -0.3115
13192TIP3   OH261066   4.459   5.598  15.887 -0.0473 -0.4220 -0.3007
13192TIP3    H161067   4.528   5.549  15.932  0.6957  2.2727  1.8077
13192TIP3    H261068   4.377   5.558  15.916  0.5274 -2.0111 -0.7678
13193TIP3   OH261069   6.222   4.968   1.261  0.4891  0.0036  0.1754
13193TIP3    H161070   6.299   4.950   1.207  0.0100 -1.5426 -0.0402
13193TIP3    H261071   6.178   5.041   1.217  1.4243  0.4088 -0.1093
13194TIP3   OH261072   6.080   5.273  11.975  0.4566 -0.9711  0.4193
13194TIP3    H161073   6.119   5.224  12.048  3.6244 -0.1250 -0.5571
13194TIP3    H261074   6.085   5.364  12.002  0.8211 -0.7174 -0.4786
13195TIP3   OH261075   0.188   2.558   1.165  0.0462  0.2388  0.0864
13195TIP3    H161076   0.113   2.617   1.154 -1.0618 -1.2943 -1.0050
13195TIP3    H261077   0.161   2.498   1.235  1.1063  0.8853  1.0911
13196TIP3   OH261078   3.843   3.098  15.206 -0.1760 -0.4148  0.2653
13196TIP3    H161079   3.905   3.025  15.210 -1.2062 -1.2902  0.5477
13196TIP3    H261080   3.779   3.072  15.140 -0.6523  0.1592  0.4941
13197TIP3   OH261081   6.798   1.944   1.272  1.0090 -0.0618 -0.4178
13197TIP3    H161082   6.838   1.863   1.304  1.5160  0.0392 -0.7885
13197TIP3    H261083   6.709   1.918   1.248  1.4930 -0.7706 -1.5665
13198TIP3   OH261084   5.994   3.072   2.548 -0.0338 -0.2799  0.4510
13198TIP3    H161085   5.933   3.145   2.558  1.1101  0.5706  1.4325
13198TIP3    H261086   6.066   3.092   2.607  0.7394 -1.7607  0.0608
13199TIP3   OH261087   1.134   5.884   5.437  0.3823  0.0498  0.0511
13199TIP3    H161088   1.108   5.859   5.526 -0.3042  1.4806  0.2825
13199TIP3    H261089   1.079   5.960   5.416  1.7914  0.8491 -0.9174
13200TIP3   OH261090   4.171   3.027  12.244  0.2962 -0.1004  0.8513
13200TIP3    H161091   4.258   2.991  12.258  1.5066  2.6850  1.1274
13200TIP3    H261092   4.167   3.104  12.301 -1.9475  0.4460  0.0682
13201TIP3   OH261093   2.123   0.854   2.986 -0.2179  0.1797  0.1906
13201TIP3    H161094   2.172   0.792   2.932  2.2181  1.5675  0.6586
13201TIP3    H261095   2.188   0.887   3.049 -0.8918  4.3221 -0.9830
13202TIP3   OH261096   2.355   0.252  10.981  0.0812 -0.6219 -0.0401
13202TIP3    H161097   2.438   0.299  10.975  0.6681 -1.5311  0.7089
13202TIP3    H261098   2.303   0.287  10.909 -0.5776  3.1436  2.0026
13203TIP3   OH261099   5.278   4.900   2.063 -0.1828  0.4081 -0.2361
13203TIP3    H161100   5.336   4.940   2.129  2.0344 -1.7291 -0.7518
13203TIP3    H261101   5.258   4.813   2.098  1.7967 -1.1516 -2.6560
13204TIP3   OH261102   0.775   4.274   3.887 -0.5767  0.0161 -0.0847
13204TIP3    H161103   0.689   4.232   3.895  0.3918 -1.7873  1.8052
13204TIP3    H261104   0.759   4.366   3.908 -1.8584 -0.5689  1.7857
13205TIP3   OH261105   0.094   6.802  11.773  0.0857 -0.3764  0.1403
13205TIP3    H161106   0.118   6.848  11.854 -0.1859 -2.2330  1.3337
13205TIP3    H261107   0.177   6.782  11.731  0.4201 -1.6122  1.2904
13206TIP3   OH261108   2.968   1.555  11.589  0.6731  0.0486  0.3959
13206TIP3    H161109   2.936   1.638  11.625  2.2104  1.1585 -0.6592
13206TIP3    H261110   2.922   1.546  11.505  0.7810  0.0403  0.3363
13207TIP3   OH261111   5.498   4.217   0.589  0.1538 -0.3322 -0.0319
13207TIP3    H161112   5.404   4.230   0.576  0.1196  0.4252  0.8876
13207TIP3    H261113   5.524   4.288   0.648  1.0294 -1.3640  0.8507
13208TIP3   OH261114   6.563   0.672  13.512 -0.1022 -0.4568  0.1378
13208TIP3    H161115   6.622   0.689  13.439  1.3276 -0.2353  1.3030
13208TIP3    H261116   6.483   0.639  13.471  0.6321 -0.2732 -1.5166
13209TIP3   OH261117   6.296   1.563  14.298  0.2289  0.5808  0.1713
13209TIP3    H161118   6.255   1.534  14.380 -0.5095  0.3251 -0.2739
13209TIP3    H261119   6.367   1.621  14.326  3.1113 -3.1274  1.2205
13210TIP3   OH261120   2.392   3.966   3.967 -0.2898 -0.1659  0.5515
13210TIP3    H161121   2.382   4.029   4.039  3.2639  0.8551  0.3825
13210TIP3    H261122   2.448   3.897   4.003 -2.2873 -2.1352  0.0546
13211TIP3   OH261123   2.718   1.108  12.589 -0.1862 -0.2323  0.6104
13211TIP3    H161124   2.793   1.062  12.550  0.7129  2.1761 -0.7166
13211TIP3    H261125   2.754   1.148  12.668 -0.2414  0.3050  0.3695
13212TIP3   OH261126   6.461   1.213   6.093  0.5678  0.1303 -0.0770
13212TIP3    H161127   6.407   1.217   6.172  2.0721  0.1721  1.0022
13212TIP3    H261128   6.491   1.303   6.080 -1.3130  0.5637 -1.9611
13213TIP3   OH261129   1.440   5.753  14.994 -0.5535 -0.9776  0.3655
13213TIP3    H161130   1.492   5.756  14.914 -2.8737 -3.0251 -1.3686
13213TIP3    H261131   1.489   5.695  15.052  0.7109 -0.1905  0.1212
13214TIP3   OH261132   4.196   4.467  17.033  0.0628  0.0580  0.0938
13214TIP3    H161133   4.221   4.551  17.072 -0.4378  0.3184 -0.1425
13214TIP3    H261134   4.193   4.484  16.939 -1.5808  0.1954  0.1499
13215TIP3   OH261135   6.685   3.361   4.512  0.0625 -0.5638  0.5430
13215TIP3    H161136   6.776   3.335   4.530  0.0146 -1.9382 -0.9521
13215TIP3    H261137   6.694   3.443   4.464  0.8197 -2.3232 -2.6272
13216TIP3   OH261138   0.794   4.358  13.599  0.0950  0.3098 -0.1430
13216TIP3    H161139   0.703   4.385  13.589 -0.0251 -0.0993 -0.1376
13216TIP3    H261140   0.795   4.265  13.578  0.4137  0.1831  0.4029
13217TIP3   OH261141   3.136   5.887   3.947 -0.0606  0.1463  0.1063
13217TIP3    H161142   3.045   5.913   3.958  0.4939  1.9556  0.8302
13217TIP3    H261143   3.156   5.910   3.856 -0.6226 -1.3459 -0.4196
13218TIP3   OH261144   1.321   0.990  13.408  0.1684 -0.1543  0.5776
13218TIP3    H161145   1.351   0.903  13.383 -1.1933 -0.4188 -0.1782
13218TIP3    H261146   1.226   0.984  13.410 -0.0152  1.5652 -0.4884
13219TIP3   OH261147   1.751   5.539   2.571  0.1527 -0.2555 -0.0889
13219TIP3    H161148   1.664   5.504   2.590 -0.0341  0.5251  0.5835
13219TIP3    H261149   1.733   5.621   2.524  0.5614 -0.7634 -1.1501
13220TIP3   OH261150   0.941   5.219  15.711  0.2457 -0.3655  0.1942
13220TIP3    H161151   1.009   5.152  15.703 -1.1784 -2.0215  1.0177
13220TIP3    H261152   0.861   5.174  15.684 -0.8612  0.8523  1.3329
13221TIP3   OH261153   0.783   2.174   3.009  0.9356  0.2835  0.6380
13221TIP3    H161154   0.821   2.140   2.928 -1.6759  0.0512 -0.6060
13221TIP3    H261155   0.818   2.263   3.016  2.5130 -0.2698  0.2086
13222TIP3   OH261156   1.918   4.285   3.870 -0.6094 -0.5235 -0.1033
13222TIP3    H161157   1.997   4.239   3.841 -0.1336 -0.0344  0.3967
13222TIP3    H261158   1.875   4.225   3.930  0.4764  0.0087  1.2539
13223TIP3   OH261159   1.965   4.915   0.996 -0.3065 -0.1866 -0.1015
13223TIP3    H161160   1.972   4.861   0.917 -0.1111 -0.1590 -0.1036
13223TIP3    H261161   1.908   4.865   1.054 -0.2599 -0.3195 -0.1687
13224TIP3   OH261162   4.609   2.066  12.494  0.0362  0.0566 -0.1864
13224TIP3    H161163   4.518   2.077  12.522  0.5154  1.0868  1.0754
13224TIP3    H261164   4.629   1.974  12.511 -0.8574 -0.2623 -0.7949
13225TIP3   OH261165   3.850   1.747   6.620  0.2696  0.1731  0.0656
13225TIP3    H161166   3.786   1.702   6.675  1.8729 -0.7824  1.1990
13225TIP3    H261167   3.796   1.797   6.558 -1.5671 -0.5943  0.9631
13226TIP3   OH261168   5.433   6.291  10.843  0.6846 -0.0272  0.7859
13226TIP3    H161169   5.364   6.307  10.779 -0.0057 -1.6363  1.0945
13226TIP3    H261170   5.413   6.350  10.916 -1.0329 -1.2147  1.3358
13227TIP3   OH261171   6.346   4.816   4.518 -0.2777  0.0027 -0.1364
13227TIP3    H161172   6.304   4.794   4.434  0.8494 -0.1213 -0.6950
13227TIP3    H261173   6.280   4.796   4.584 -1.2169  0.1591 -0.9971
13228TIP3   OH261174   2.333   4.512   3.129  0.3844  0.5321  0.0177
13228TIP3    H161175   2.420   4.502   3.167  0.5672  0.9638 -0.2804
13228TIP3    H261176   2.286   4.568   3.190  0.6531  1.1607 -0.3429
13229TIP3   OH261177   6.400   6.100  14.106 -0.3113 -0.0222  0.3093
13229TIP3    H161178   6.338   6.112  14.033 -2.2602  3.5363  2.2851
13229TIP3    H261179   6.481   6.140  14.074 -0.1356 -1.3259 -0.9731
13230TIP3   OH261180   5.926   4.163  14.701 -0.2283  0.3104  0.3087
13230TIP3    H161181   5.997   4.100  14.689  0.5832  1.0910  0.8794
13230TIP3    H261182   5.905   4.192  14.612  1.5565  1.5534  0.2461
13231TIP3   OH261183   0.219   5.486  13.809 -0.0771 -0.1289  0.0490
13231TIP3    H161184   0.312   5.483  13.832  0.2373 -2.3045 -1.2926
13231TIP3    H261185   0.175   5.507  13.892  1.6368  2.3702  0.4397
13232TIP3   OH261186   0.500   4.990  12.765 -0.7805 -0.4775  0.3518
13232TIP3    H161187   0.527   5.072  12.806 -0.4962 -0.8878  0.9995
13232TIP3    H261188   0.578   4.934  12.770  0.1573  0.2656 -3.0256
13233TIP3   OH261189   2.307   0.744   5.783 -0.0649  0.1294  0.1882
13233TIP3    H161190   2.230   0.787   5.746  0.3605  1.5803  0.9260
13233TIP3    H261191   2.364   0.816   5.811  1.7193 -0.9045 -0.6428
13234TIP3   OH261192   4.419   0.840  12.836 -0.1373  0.3545  0.1037
13234TIP3    H161193   4.481   0.829  12.764  1.2286 -0.4470  1.3489
13234TIP3    H261194   4.441   0.926  12.873 -0.1342  0.3098  0.2060
13235TIP3   OH261195   0.698   3.814  14.331  0.3491 -0.3207  0.2713
13235TIP3    H161196   0.776   3.810  14.277  0.4250  0.4405  0.3202
13235TIP3    H261197   0.636   3.867  14.280  1.0754  2.0390  1.7168
13236TIP3   OH261198   3.750   2.168   0.478  0.3738 -0.1239  0.3527
13236TIP3    H161199   3.767   2.227   0.551  0.5597  0.1650  0.0773
13236TIP3    H261200   3.832   2.121   0.466 -0.0427 -1.0939  1.1543
13237TIP3   OH261201   4.463   1.921   1.664  0.4738 -0.1368 -0.3051
13237TIP3    H161202   4.554   1.889   1.664  0.4442 -0.2200  0.2106
13237TIP3    H261203   4.465   1.998   1.608  1.1236  0.5967  0.6941
13238TIP3   OH261204   0.584   0.394   0.500  0.0311 -0.5267  0.1502
13238TIP3    H161205   0.634   0.445   0.436  0.6800  2.6177  2.9213
13238TIP3    H261206   0.493   0.405   0.471  0.3734 -0.0721 -0.8246
13239TIP3   OH261207   6.560   4.509  12.887  0.4019 -0.2415 -0.4089
13239TIP3    H161208   6.508   4.536  12.963 -0.1825  1.3846 -1.3413
13239TIP3    H261209   6.644   4.482  12.923 -0.8185 -2.3511  1.0857
13240TIP3   OH261210   3.020   1.018  11.707  0.0344 -0.4914  1.1564
13240TIP3    H161211   3.057   1.076  11.641 -0.3795 -1.7458 -0.2090
13240TIP3    H261212   3.060   0.933  11.691 -1.3174 -1.2195  1.4180
13241TIP3   OH261213   0.837   1.573   0.171  0.2669 -0.4003 -0.4218
13241TIP3    H161214   0.921   1.562   0.125  0.1139  0.5482 -0.9560
13241TIP3    H261215   0.772   1.576   0.101 -0.1262 -0.2819 -0.0513
13242TIP3   OH261216   6.567   4.006  10.911 -0.0184 -0.4878  0.0041
13242TIP3    H161217   6.642   4.064  10.903  0.5701 -1.4285 -1.6716
13242TIP3    H261218   6.497   4.050  10.863  0.1934 -0.7810 -0.5758
13243TIP3   OH261219   0.158   4.615   0.183 -0.0554 -0.7321 -0.0461
13243TIP3    H161220   0.177   4.604   0.276 -0.5151 -1.2011 -0.0004
13243TIP3    H261221   0.194   4.537   0.142  0.2244 -0.4845 -0.2737
13244TIP3   OH261222   5.780   2.034   4.673 -0.0962 -0.3086 -0.0571
13244TIP3    H161223   5.714   1.968   4.653 -1.3702  0.5068  1.3021
13244TIP3    H261224   5.760   2.107   4.615 -1.6909  0.7218  1.6910
13245TIP3   OH261225   3.901   3.574  16.679  0.1843  1.0110  0.2298
13245TIP3    H161226   3.881   3.625  16.601 -1.1699  1.9919  1.1620
13245TIP3    H261227   3.882   3.483  16.654 -0.4699  1.3379 -0.5228
13246TIP3   OH261228   4.398   1.336  15.584 -0.0878 -0.4183  0.2494
13246TIP3    H161229   4.429   1.245  15.579 -2.4582 -1.2691  0.1137
13246TIP3    H261230   4.318   1.332  15.635 -0.2745  1.6223  0.2045
13247TIP3   OH261231   0.659   2.898   0.770 -0.2601  0.3418  0.1893
13247TIP3    H161232   0.727   2.961   0.746  0.6273 -0.6911 -0.0785
13247TIP3    H261233   0.629   2.862   0.687  0.1910 -0.5486  0.3998
13248TIP3   OH261234   3.787   0.561  16.201 -0.5075  0.1504  0.6538
13248TIP3    H161235   3.747   0.644  16.179  0.0222 -0.3532 -2.9753
13248TIP3    H261236   3.726   0.495  16.168 -0.1059 -0.8485  1.8289
13249TIP3   OH261237   3.932   3.884  11.709  0.5766 -0.0084  0.3853
13249TIP3    H161238   4.027   3.884  11.710  0.6408 -1.2139 -1.3539
13249TIP3    H261239   3.907   3.840  11.790  1.5574 -1.1040  0.1188
13250TIP3   OH261240   2.111   1.978  15.180 -0.2758  0.1052  0.4429
13250TIP3    H161241   2.116   2.072  15.162  0.1441  0.0072 -0.0003
13250TIP3    H261242   2.199   1.946  15.161 -0.8525 -0.6647 -1.1306
13251TIP3   OH261243   1.460   6.064  16.597 -0.5048  0.3486  0.1372
13251TIP3    H161244   1.550   6.038  16.575 -0.8457  1.1231 -2.4319
13251TIP3    H261245   1.433   6.001  16.663  2.1285  0.4811  1.5034
13252TIP3   OH261246   0.312   1.043   2.124  0.1301  1.0327 -0.3726
13252TIP3    H161247   0.352   1.008   2.203  2.2777  1.0226 -1.4047
13252TIP3    H261248   0.270   0.968   2.082  2.4235  0.1205 -1.2159
13253TIP3   OH261249   4.811   0.148  11.107  0.2455 -0.1303  0.4646
13253TIP3    H161250   4.777   0.181  11.024  0.8571 -1.3302 -0.3022
13253TIP3    H261251   4.862   0.070  11.082  0.9764 -0.1393  1.8933
13254TIP3   OH261252   5.076   3.455   4.536 -0.8245 -0.0955 -0.2633
13254TIP3    H161253   5.113   3.369   4.559 -0.8652  0.0026  0.1700
13254TIP3    H261254   5.145   3.498   4.486 -0.2827  0.1401  0.6542
13255TIP3   OH261255   2.887   5.561  14.888 -0.1745  0.0254 -0.4285
13255TIP3    H161256   2.934   5.604  14.959  0.6240  0.0804 -0.9855
13255TIP3    H261257   2.892   5.467  14.909  0.3945  0.0139 -0.6214
13256TIP3   OH261258   1.969   0.196  11.384  0.0849  0.0677  0.1953
13256TIP3    H161259   2.050   0.201  11.435  0.5579 -2.2638 -0.2254
13256TIP3    H261260   1.905   0.246  11.435  1.7665  2.0323  0.4931
13257TIP3   OH261261   5.946   5.890  16.732  0.0976 -0.0414  0.4631
13257TIP3    H161262   5.930   5.952  16.802 -0.2903  0.3128  0.0683
13257TIP3    H261263   6.038   5.903  16.708  1.1279 -2.1814  2.8385
13258TIP3   OH261264   2.168   0.057   5.994  0.0007 -0.0239 -0.9218
13258TIP3    H161265   2.191  -0.025   6.038 -0.7535  0.2103 -0.0655
13258TIP3    H261266   2.079   0.077   6.025  0.4837  1.5446 -0.4714
13259TIP3   OH261267   1.929   4.952   3.816 -0.3926 -0.2370 -0.2729
13259TIP3    H161268   1.873   4.894   3.765 -1.6823  0.1353  0.6441
13259TIP3    H261269   1.923   4.918   3.906  2.8035 -1.6375 -0.4624
13260TIP3   OH261270   5.570   0.068   2.344  0.3833  0.8748 -0.4545
13260TIP3    H161271   5.558   0.134   2.413  0.8469  1.0799 -0.5624
13260TIP3    H261272   5.599   0.117   2.268 -1.0365  0.7553 -1.0872
13261TIP3   OH261273   6.146   4.982   2.049 -0.1130  0.1964 -0.3536
13261TIP3    H161274   6.201   4.909   2.077  0.8658  0.6416 -1.0790
13261TIP3    H261275   6.061   4.964   2.090  0.7543 -0.1058  1.4290
13262TIP3   OH261276   6.812   6.078  13.161  0.2780 -0.2909 -0.5544
13262TIP3    H161277   6.727   6.099  13.121  0.5239  1.0110 -0.4351
13262TIP3    H261278   6.860   6.032  13.093 -0.1985 -0.2630 -0.9169
13263TIP3   OH261279   3.094   3.477  11.435 -0.0374 -0.3927  0.1872
13263TIP3    H161280   3.145   3.514  11.363 -2.3632 -0.3075 -1.5474
13263TIP3    H261281   3.097   3.544  11.504 -0.7520  1.2549 -1.2987
13264TIP3   OH261282   3.095   5.855   2.560  0.1812  0.8487 -0.2000
13264TIP3    H161283   3.087   5.858   2.656  2.1328 -0.9042  0.0767
13264TIP3    H261284   3.181   5.894   2.543 -0.3760  1.6371 -1.3282
13265TIP3   OH261285   0.926   1.102  13.918 -0.1294  0.1823  0.3517
13265TIP3    H161286   0.960   1.178  13.872  0.2753  0.0201  0.3871
13265TIP3    H261287   0.844   1.134  13.958 -1.2362 -0.0491 -1.6091
13266TIP3   OH261288   1.163   2.461  13.388 -0.2515  0.4108  0.4637
13266TIP3    H161289   1.222   2.402  13.435  1.1143  1.3014 -0.0535
13266TIP3    H261290   1.204   2.547  13.395 -1.5713  1.0978  0.1770
13267TIP3   OH261291   6.591   1.085   2.933 -0.3222 -0.2008 -0.2647
13267TIP3    H161292   6.500   1.111   2.949 -0.1989  0.0250  0.0783
13267TIP3    H261293   6.611   1.023   3.004 -0.2185 -0.2815 -0.3634
13268TIP3   OH261294   6.639   6.390  17.098 -0.2964  0.4363  0.4067
13268TIP3    H161295   6.704   6.449  17.137 -0.5791  1.0514 -0.0346
13268TIP3    H261296   6.648   6.403  17.004 -1.9156  1.5042  0.3548
13269TIP3   OH261297   5.855   4.743   3.636  0.6479  0.2403 -0.0358
13269TIP3    H161298   5.908   4.770   3.711  0.4013  0.4454  0.0668
13269TIP3    H261299   5.811   4.663   3.665  2.4574 -1.0981 -0.8221
13270TIP3   OH261300   2.538   6.583   0.537 -0.0147  0.4246 -0.0512
13270TIP3    H161301   2.556   6.512   0.599  0.3578  0.6684  0.1239
13270TIP3    H261302   2.602   6.650   0.558  1.2250 -0.1378 -1.7734
13271TIP3   OH261303   1.913   4.047  12.375 -0.3950 -0.4217  0.1150
13271TIP3    H161304   1.950   4.122  12.327 -0.0803 -0.9005 -0.4108
13271TIP3    H261305   1.926   4.069  12.467  0.5939 -0.2653 -0.0498
13272TIP3   OH261306   0.371   5.456  14.783  0.3239 -0.8738 -0.5834
13272TIP3    H161307   0.365   5.378  14.838  0.8927 -0.5561 -0.0562
13272TIP3    H261308   0.465   5.471  14.774  0.2165 -0.1157 -0.4783
13273TIP3   OH261309   1.819   1.790   0.619 -0.0905  0.2816 -0.4303
13273TIP3    H161310   1.725   1.786   0.601 -0.5798  1.7681  1.5447
13273TIP3    H261311   1.835   1.717   0.678 -0.3332  0.9349  0.4616
13274TIP3   OH261312   6.538   4.085  13.892 -0.2288 -0.0570 -0.4134
13274TIP3    H161313   6.555   4.176  13.866 -2.1105  0.8065  1.1547
13274TIP3    H261314   6.490   4.049  13.818 -1.0252  0.7832 -0.3268
13275TIP3   OH261315   5.709   6.555   3.801  0.0757 -0.2509 -0.1514
13275TIP3    H161316   5.647   6.618   3.840 -0.2275 -1.3849  1.2880
13275TIP3    H261317   5.655   6.486   3.765  0.4570 -0.6486  0.0220
13276TIP3   OH261318   4.545   1.005   2.881  0.5968  0.5087 -0.1647
13276TIP3    H161319   4.502   0.940   2.937 -0.5953  1.1089 -0.3443
13276TIP3    H261320   4.506   1.088   2.906  2.0083  1.1593 -0.0350
13277TIP3   OH261321   4.264   2.576   2.959 -0.0840  0.8302  0.7138
13277TIP3    H161322   4.229   2.624   3.034 -0.4786 -0.3281  1.2875
13277TIP3    H261323   4.195   2.514   2.936 -0.2512  1.6095 -1.0462
13278TIP3   OH261324   6.477   3.646   5.150  0.0442 -0.7782  0.0097
13278TIP3    H161325   6.489   3.723   5.094  0.8589  0.2688  1.5443
13278TIP3    H261326   6.403   3.670   5.206 -0.1189 -1.4001  0.0610
13279TIP3   OH261327   3.889   6.580   1.002  1.0380 -0.0394 -0.4890
13279TIP3    H161328   3.945   6.503   1.014  1.5914  0.5212  0.5809
13279TIP3    H261329   3.807   6.556   1.046 -0.0936 -1.3413 -3.0765
13280TIP3   OH261330   3.104   4.685  11.374  0.0113 -0.2324 -0.1794
13280TIP3    H161331   3.132   4.615  11.316  1.6831  2.0407 -2.3627
13280TIP3    H261332   3.186   4.724  11.406 -0.8465 -1.0217  3.3940
13281TIP3   OH261333   4.718   1.199  15.195  0.0269 -0.2597  0.3294
13281TIP3    H161334   4.706   1.294  15.197 -0.1181 -0.2500 -0.6459
13281TIP3    H261335   4.801   1.185  15.241  0.4688  0.4188 -0.2417
13282TIP3   OH261336   5.334   4.549   0.876  0.0779  0.3529  0.1656
13282TIP3    H161337   5.241   4.530   0.884  0.4047 -0.8533  1.6707
13282TIP3    H261338   5.339   4.642   0.857 -1.4049  0.6160  0.9722
13283TIP3   OH261339   5.170   3.419   5.687 -0.2892 -0.0023  0.1232
13283TIP3    H161340   5.157   3.514   5.691 -0.6795  0.0387 -1.5133
13283TIP3    H261341   5.193   3.402   5.596 -2.0761 -1.7126 -0.0610
13284TIP3   OH261342   0.652   6.480   1.317  0.5725 -0.0297 -0.2113
13284TIP3    H161343   0.653   6.386   1.330 -0.3933  0.2103  2.1598
13284TIP3    H261344   0.729   6.511   1.365 -0.0932  0.5016  0.5447
13285TIP3   OH261345   1.704   0.491   0.240  0.4675  0.0153  0.5260
13285TIP3    H161346   1.770   0.560   0.246  1.9738 -1.3720  0.8956
13285TIP3    H261347   1.704   0.466   0.147  0.3789  0.0903  0.5058
13286TIP3   OH261348   3.516   1.329   1.274  0.5444 -0.1800  0.1756
13286TIP3    H161349   3.552   1.279   1.347 -0.6821 -0.7370  0.4261
13286TIP3    H261350   3.592   1.362   1.227  1.3808 -1.4375  0.5967
13287TIP3   OH261351   4.447   0.414   5.166  0.5448 -0.1024  0.5737
13287TIP3    H161352   4.542   0.411   5.168  0.5848  0.3577 -0.2231
13287TIP3    H261353   4.425   0.415   5.072 -0.2385 -0.1848  0.7508
13288TIP3   OH261354   4.872   6.781  13.251  0.0901  0.3264 -0.4352
13288TIP3    H161355   4.782   6.749  13.249  0.8818 -2.0905 -0.2129
13288TIP3    H261356   4.902   6.776  13.160  0.5317 -0.5840 -0.2499
13289TIP3   OH261357   2.947   5.180  17.028 -0.1056  0.1844  0.1063
13289TIP3    H161358   2.969   5.232  16.951  0.0192  0.1788  0.1374
13289TIP3    H261359   2.851   5.178  17.030 -0.1068 -0.0831 -0.2272
13290TIP3   OH261360   0.686   4.796  12.050 -0.7345  0.6039  0.2631
13290TIP3    H161361   0.703   4.822  11.960 -0.6285 -1.5269 -0.3840
13290TIP3    H261362   0.769   4.810  12.095 -0.1105 -0.3951 -0.5284
13291TIP3   OH261363   4.239   3.837   5.059 -0.8730  0.2108  0.0817
13291TIP3    H161364   4.206   3.799   5.141  1.6142 -1.5404  0.3763
13291TIP3    H261365   4.292   3.911   5.086 -0.1588 -0.2871  0.0635
13292TIP3   OH261366   3.616   2.864  15.420  0.3076  0.2897 -0.1973
13292TIP3    H161367   3.563   2.866  15.340  0.3014  0.5066 -0.1865
13292TIP3    H261368   3.576   2.795  15.473 -1.0914  1.6503  0.5893
13293TIP3   OH261369   3.743   2.634   0.706  0.3157 -0.3015 -0.4842
13293TIP3    H161370   3.782   2.720   0.692 -0.1140 -0.1995 -1.1079
13293TIP3    H261371   3.683   2.646   0.779  0.2775 -0.0787 -0.5518
13294TIP3   OH261372   0.171   0.381   1.285 -0.4605 -0.0662 -0.8248
13294TIP3    H161373   0.215   0.419   1.209  0.9028  2.1505  0.9527
13294TIP3    H261374   0.222   0.303   1.306  2.2483  1.8779  0.5533
13295TIP3   OH261375   2.090   3.464   3.382  0.0852  0.8613  0.1712
13295TIP3    H161376   2.149   3.449   3.456  0.0643  0.7748  0.1700
13295TIP3    H261377   2.087   3.380   3.336  1.4600  1.3681 -0.9212
13296TIP3   OH261378   2.003   2.877   4.844 -0.0129  0.5539 -0.4182
13296TIP3    H161379   1.977   2.852   4.933  1.3500 -0.6124 -0.3116
13296TIP3    H261380   2.098   2.885   4.848  0.0462  0.7179 -1.7182
13297TIP3   OH261381   3.323   0.118  11.026 -0.0710  0.1451  0.9850
13297TIP3    H161382   3.253   0.098  10.964 -0.5223  0.4106  1.3979
13297TIP3    H261383   3.279   0.126  11.111  0.2461  1.6374  1.0450
13298TIP3   OH261384   2.811   6.056  13.303 -0.3342 -0.1732 -0.2778
13298TIP3    H161385   2.893   6.102  13.322 -1.1568  0.8172  1.0343
13298TIP3    H261386   2.806   5.988  13.370 -0.3043 -0.6341 -0.7358
13299TIP3   OH261387   1.168   3.394  16.026  0.1790  0.3867  0.0031
13299TIP3    H161388   1.145   3.485  16.041  1.4890  1.2142 -2.4588
13299TIP3    H261389   1.238   3.397  15.960  0.5787 -2.3729  0.1741
13300TIP3   OH261390   6.083   2.413  12.390  0.1009  0.4620 -0.1459
13300TIP3    H161391   5.993   2.442  12.379 -0.0636 -0.1435 -0.4314
13300TIP3    H261392   6.122   2.424  12.303  0.0814 -0.0147 -0.2167
13301TIP3   OH261393   0.477   0.859   1.029  0.0646 -0.5985 -0.1265
13301TIP3    H161394   0.401   0.815   1.067 -0.6910 -1.4336 -2.4404
13301TIP3    H261395   0.546   0.850   1.096 -0.9945 -2.5057  0.7852
13302TIP3   OH261396   2.181   3.481  13.810  0.0764 -0.0493 -0.7839
13302TIP3    H161397   2.093   3.511  13.830 -0.2693 -1.5364  0.0570
13302TIP3    H261398   2.168   3.410  13.747  0.3554 -2.4099  1.6359
13303TIP3   OH261399   4.076   2.933   4.611 -0.0954  0.6201  0.5392
13303TIP3    H161400   3.982   2.942   4.593 -0.3078  1.3715  1.8177
13303TIP3    H261401   4.080   2.868   4.681  0.5952 -1.3840 -1.2568
13304TIP3   OH261402   4.583   5.886   6.816 -0.0937 -0.0517  0.3683
13304TIP3    H161403   4.535   5.823   6.762 -1.4076  0.0836  1.3229
13304TIP3    H261404   4.613   5.953   6.755 -1.1487 -0.1476 -0.2718
13305TIP3   OH261405   3.223   4.587  12.537 -0.6369  0.8666 -0.2382
13305TIP3    H161406   3.134   4.607  12.508 -0.9643  1.2664  1.0065
13305TIP3    H261407   3.217   4.582  12.632  0.7441  1.2099 -0.1151
13306TIP3   OH261408   3.076   3.986   0.954 -0.8665 -0.9075  0.2270
13306TIP3    H161409   3.169   3.993   0.931 -0.9583 -1.5552 -0.3756
13306TIP3    H261410   3.031   3.994   0.870 -1.3896 -0.0386  0.5823
13307TIP3   OH261411   2.833   6.294   5.539  0.6372  0.1430 -0.2963
13307TIP3    H161412   2.898   6.358   5.510  0.4414  0.7388  0.5836
13307TIP3    H261413   2.879   6.242   5.605  1.0088 -1.0751 -1.4679
13308TIP3   OH261414   4.665   3.965  15.581  0.4298  0.4393  0.2658
13308TIP3    H161415   4.756   3.945  15.602  0.6143 -1.9936 -2.2230
13308TIP3    H261416   4.622   3.879  15.581 -1.1785  1.1907 -1.4761
13309TIP3   OH261417   1.597   3.094  12.486 -0.2045  0.3400 -0.3270
13309TIP3    H161418   1.632   3.118  12.572  0.4729 -0.5658 -0.3339
13309TIP3    H261419   1.507   3.068  12.503  0.7776 -2.8004  0.6605
13310TIP3   OH261420   2.271   0.966   0.658  0.1968 -0.0523 -0.1040
13310TIP3    H161421   2.353   0.960   0.708  0.2230  0.4775 -0.0764
13310TIP3    H261422   2.298   0.962   0.566  0.3156  0.7194 -0.1089
13311TIP3   OH261423   0.177   4.341  16.871 -0.5587 -0.1723 -0.4667
13311TIP3    H161424   0.104   4.292  16.833 -0.7060 -1.7202  1.5874
13311TIP3    H261425   0.253   4.285  16.856 -0.6197 -0.8257  1.3354
13312TIP3   OH261426   2.567   2.489  14.860 -0.2560  0.5492  0.2438
13312TIP3    H161427   2.633   2.431  14.898  1.4989  2.2781  0.0032
13312TIP3    H261428   2.539   2.444  14.780  0.9412 -0.0394  0.1310
13313TIP3   OH261429   5.650   1.836  17.085  0.2673  0.2427  0.1744
13313TIP3    H161430   5.644   1.864  17.176 -0.4707 -0.2546  0.2906
13313TIP3    H261431   5.731   1.876  17.053 -0.0769  1.4160  0.6995
13314TIP3   OH261432   3.116   3.503  11.094  0.4350 -0.3653  0.2339
13314TIP3    H161433   3.182   3.435  11.105  1.4052  0.7141  1.4172
13314TIP3    H261434   3.081   3.489  11.007  1.4711 -1.6395 -0.0003
13315TIP3   OH261435   2.070   2.541   5.584 -0.1617 -0.5725  0.0668
13315TIP3    H161436   2.004   2.567   5.521  0.2597  0.2127 -0.0616
13315TIP3    H261437   2.022   2.525   5.665 -0.3567  1.5448  0.4196
13316TIP3   OH261438   6.569   5.643   2.044 -0.1089 -0.3795  0.0403
13316TIP3    H161439   6.602   5.706   1.980 -0.9971  0.7305  0.6430
13316TIP3    H261440   6.628   5.568   2.037  1.4667  0.8457 -0.1091
13317TIP3   OH261441   1.183   5.122  16.403  0.2219  0.4206  0.0309
13317TIP3    H161442   1.177   5.068  16.325  0.5414  1.6192 -0.8619
13317TIP3    H261443   1.250   5.080  16.457 -1.2255 -1.3971  0.5066
13318TIP3   OH261444   4.170   0.329  11.561 -0.4395 -0.0937  0.1106
13318TIP3    H161445   4.219   0.388  11.503 -0.6443 -0.1872 -0.1629
13318TIP3    H261446   4.102   0.292  11.505 -1.2609  0.5692  0.6511
13319TIP3   OH261447   4.250   2.688   0.034  0.3134  0.5671 -0.1941
13319TIP3    H161448   4.219   2.759  -0.021  0.5840  0.3301 -0.6523
13319TIP3    H261449   4.263   2.614  -0.026  2.7370  0.9294 -0.2127
13320TIP3   OH261450   0.149   3.137   0.457  0.0781  0.3371  0.5225
13320TIP3    H161451   0.228   3.183   0.485  0.9297 -1.8378  1.9356
13320TIP3    H261452   0.175   3.089   0.379 -0.4045  1.0765 -0.1072
13321TIP3   OH261453   0.847   6.589   0.614 -0.0563 -0.6961  0.4195
13321TIP3    H161454   0.874   6.522   0.552  1.2717  1.3530 -1.3840
13321TIP3    H261455   0.915   6.587   0.682  0.4962 -0.6018 -0.1161
13322TIP3   OH261456   0.627   1.795   3.432  0.0298  0.0065  0.3361
13322TIP3    H161457   0.712   1.789   3.389 -1.3428  0.9258 -2.7813
13322TIP3    H261458   0.616   1.888   3.453 -0.9769  0.2377 -1.1004
13323TIP3   OH261459   5.187   6.755   4.061 -0.4588  0.1667  0.4646
13323TIP3    H161460   5.129   6.721   3.992 -1.4000 -0.6901  1.6252
13323TIP3    H261461   5.275   6.743   4.027 -0.8287 -1.9019  0.1114
13324TIP3   OH261462   3.232   1.152   5.132 -0.0301  0.2441 -0.4617
13324TIP3    H161463   3.245   1.246   5.146  1.6632  0.5028 -3.0726
13324TIP3    H261464   3.137   1.140   5.136 -0.2886  2.0600 -0.1222
13325TIP3   OH261465   1.548   3.691   0.602  0.3974 -0.0618  0.2119
13325TIP3    H161466   1.519   3.651   0.684 -1.3595  1.0856  0.2034
13325TIP3    H261467   1.600   3.767   0.629 -1.8306  1.4931  0.3673
13326TIP3   OH261468   6.651   4.400   0.112 -0.3879 -0.4163 -0.0955
13326TIP3    H161469   6.576   4.393   0.171 -1.4993 -0.0235 -1.4113
13326TIP3    H261470   6.687   4.486   0.129 -0.5673 -0.3940  0.1810
13327TIP3   OH261471   2.297   2.452  14.001  0.1273  0.5100  0.0906
13327TIP3    H161472   2.389   2.443  13.973 -0.1189 -2.8321 -0.0659
13327TIP3    H261473   2.303   2.478  14.093  1.0251  5.2288 -1.0366
13328TIP3   OH261474   5.180   4.700  17.016 -0.8980  0.0734  0.2901
13328TIP3    H161475   5.193   4.605  17.026 -0.6730 -0.1468 -1.7307
13328TIP3    H261476   5.090   4.714  17.047 -1.5483 -1.1114 -0.9158
13329TIP3   OH261477   6.074   0.712   0.945  0.9913 -0.0084  0.7103
13329TIP3    H161478   6.121   0.769   0.884  0.8387 -1.1408 -0.5015
13329TIP3    H261479   5.983   0.716   0.917  1.2050 -2.1525 -0.5341
13330TIP3   OH261480   3.941   3.437   2.903 -0.3161 -0.3492 -0.4375
13330TIP3    H161481   3.848   3.444   2.923 -1.2798 -2.8909 -3.3385
13330TIP3    H261482   3.947   3.452   2.809  2.0383 -1.4733 -0.5353
13331TIP3   OH261483   4.977   5.484  15.964  0.1681 -0.2996  0.2077
13331TIP3    H161484   5.063   5.443  15.966  0.3918  0.1764  1.4676
13331TIP3    H261485   4.993   5.574  15.992 -0.3667  0.5911 -2.1074
13332TIP3   OH261486   3.483   0.878   4.353  0.2944 -0.1971 -0.5605
13332TIP3    H161487   3.554   0.938   4.378  0.1496  0.0045 -0.6353
13332TIP3    H261488   3.504   0.796   4.399  0.5025 -0.0965 -0.4748
13333TIP3   OH261489   3.195   3.629   3.384 -0.2970 -0.1760  0.0607
13333TIP3    H161490   3.199   3.608   3.290  0.4668 -0.8813  0.2390
13333TIP3    H261491   3.287   3.626   3.412 -0.4563  0.7061  0.6890
13334TIP3   OH261492   2.846   3.269  12.554  0.2289 -0.3506 -0.0170
13334TIP3    H161493   2.792   3.283  12.476  0.5907  0.6546 -0.1030
13334TIP3    H261494   2.920   3.328  12.543  0.2299 -0.1025  1.1457
13335TIP3   OH261495   2.637   0.962   2.304 -0.1332 -0.1634  0.1384
13335TIP3    H161496   2.725   0.998   2.312  0.3194 -0.9481 -0.9541
13335TIP3    H261497   2.649   0.882   2.252 -1.7349  0.7859 -1.8327
13336TIP3   OH261498   3.302   1.430   2.646 -0.2238 -0.4682 -0.5414
13336TIP3    H161499   3.223   1.437   2.592 -0.4919  0.7396 -0.0361
13336TIP3    H261500   3.292   1.499   2.711  0.9061 -0.7902 -0.0009
13337TIP3   OH261501   2.891   4.384  15.365 -0.1023  0.1234  0.2019
13337TIP3    H161502   2.892   4.462  15.421 -1.9953 -0.2862  0.8697
13337TIP3    H261503   2.961   4.400  15.301  0.8605  1.4669  1.5098
13338TIP3   OH261504   3.202   3.554  14.601 -0.2588 -0.2493 -0.1024
13338TIP3    H161505   3.121   3.511  14.627 -0.4671 -0.7834 -1.5208
13338TIP3    H261506   3.270   3.489  14.617 -0.1885 -0.0385  0.4724
13339TIP3   OH261507   3.904   3.501   1.349 -0.6592  0.3767 -0.6911
13339TIP3    H161508   3.892   3.415   1.389 -0.0448  1.3806  1.8154
13339TIP3    H261509   3.993   3.499   1.314  1.2362  1.3257  3.4065
13340TIP3   OH261510   0.730   5.850   5.147 -0.2057  0.2923  0.0400
13340TIP3    H161511   0.787   5.792   5.096  2.1015  1.5007  1.1306
13340TIP3    H261512   0.726   5.809   5.234 -1.2166  0.1021 -0.0873
13341TIP3   OH261513   6.802   5.926   5.594  0.3173 -0.1816 -0.1797
13341TIP3    H161514   6.729   5.967   5.547  0.5988 -0.1229 -0.5727
13341TIP3    H261515   6.845   5.871   5.529  1.2985  0.6548 -0.2728
13342TIP3   OH261516   6.017   1.693   3.326  1.1263  0.6581 -0.9284
13342TIP3    H161517   6.053   1.606   3.306 -1.4041 -0.5452 -0.5947
13342TIP3    H261518   5.978   1.722   3.243 -1.6493 -0.4234 -0.0842
13343TIP3   OH261519   0.780   2.499   5.598  0.1407  0.6535 -0.0886
13343TIP3    H161520   0.707   2.547   5.639 -0.7716 -0.4927 -0.3122
13343TIP3    H261521   0.855   2.557   5.608 -0.9092  2.1022 -0.3221
13344TIP3   OH261522   5.963   6.222   3.789 -0.1848  0.1099 -0.1291
13344TIP3    H161523   5.902   6.195   3.857 -0.3233  0.2018 -0.2166
13344TIP3    H261524   6.046   6.179   3.812 -0.0652  0.6282  0.4374
13345TIP3   OH261525   5.135   0.413  12.523  0.0032  0.4694 -0.0097
13345TIP3    H161526   5.053   0.431  12.570 -0.4944  1.6169 -1.2358
13345TIP3    H261527   5.117   0.331  12.477 -0.6684  0.9617 -0.6607
13346TIP3   OH261528   1.458   5.285  15.651 -0.3400 -0.1915  0.4442
13346TIP3    H161529   1.444   5.354  15.716  1.5311  0.1042  0.6123
13346TIP3    H261530   1.532   5.317  15.599 -1.1660 -0.8767 -1.2116
13347TIP3   OH261531   0.825   2.097  17.027  0.0396  0.7524 -0.0214
13347TIP3    H161532   0.838   2.147  17.107 -0.7379 -0.2365  0.7518
13347TIP3    H261533   0.765   2.150  16.974 -0.9942  0.5270  0.9007
13348TIP3   OH261534   4.718   1.216   5.847 -0.4198  0.7498  0.3654
13348TIP3    H161535   4.734   1.239   5.756  0.6116 -2.9836 -0.5816
13348TIP3    H261536   4.670   1.133   5.843 -0.0350  0.2906  3.1874
13349TIP3   OH261537   6.332   1.737   5.398  0.5327 -0.5181  0.6561
13349TIP3    H161538   6.310   1.681   5.323  0.8084 -0.0857  0.2542
13349TIP3    H261539   6.289   1.820   5.379  0.4447 -0.4655  1.0736
13350TIP3   OH261540   2.277   1.828  11.377 -0.1167  0.0418 -0.1247
13350TIP3    H161541   2.239   1.815  11.290 -0.8959  0.5190  0.1383
13350TIP3    H261542   2.371   1.813  11.364 -0.2674 -0.2516 -0.9703
13351TIP3   OH261543   1.139   3.034  14.040  0.2525 -0.0818  0.1732
13351TIP3    H161544   1.140   2.995  14.128 -3.5997 -1.4984 -0.2503
13351TIP3    H261545   1.116   2.962  13.982  1.5853  1.0748 -1.9265
13352TIP3   OH261546   1.883   4.092  15.404  0.0665 -0.0486 -0.2624
13352TIP3    H161547   1.911   4.039  15.478 -2.0706 -1.5172 -0.4098
13352TIP3    H261548   1.941   4.066  15.332  1.1841  0.3122  0.4756
13353TIP3   OH261549   3.235   0.415  13.177 -0.0362  0.1998 -0.5592
13353TIP3    H161550   3.195   0.478  13.118  0.4358 -0.3656 -1.5041
13353TIP3    H261551   3.213   0.330  13.141  0.5626 -0.1499 -0.1288
13354TIP3   OH261552   3.921   6.848  15.681  0.0661 -0.4223  0.0645
13354TIP3    H161553   3.911   6.868  15.588  2.3523  1.5566  0.1752
13354TIP3    H261554   3.931   6.752  15.683  1.4632 -0.3775 -1.8995
13355TIP3   OH261555   5.637   1.769   0.284  0.2180  0.0468 -0.6752
13355TIP3    H161556   5.621   1.862   0.270 -0.8856 -0.0159 -0.0084
13355TIP3    H261557   5.558   1.738   0.329  0.9050 -1.0451 -0.1737
13356TIP3   OH261558   5.061   4.600   0.967 -0.3229  0.4963  0.1787
13356TIP3    H161559   5.003   4.524   0.970  0.9118 -0.8418 -3.7223
13356TIP3    H261560   5.007   4.669   0.929  0.0860 -0.3545 -2.1465
13357TIP3   OH261561   2.429   4.028   0.911 -0.1472 -0.1211  0.2027
13357TIP3    H161562   2.385   3.978   0.980 -0.3045  0.2475  0.3723
13357TIP3    H261563   2.441   4.115   0.948  0.0131  0.0026 -0.1365
13358TIP3   OH261564   3.513   6.411  15.081  0.2564 -0.4226 -0.4095
13358TIP3    H161565   3.500   6.325  15.120  0.3050 -0.7759 -1.1601
13358TIP3    H261566   3.468   6.471  15.140  0.3046 -0.9507  0.1686
13359TIP3   OH261567   4.434   1.460   5.886  0.4429 -0.2771  0.0053
13359TIP3    H161568   4.339   1.470   5.892  0.4423 -0.7839  1.0770
13359TIP3    H261569   4.449   1.430   5.797 -0.1913  1.9750 -0.9145
13360TIP3   OH261570   3.438   3.041  15.026 -0.0365 -0.1903  0.4193
13360TIP3    H161571   3.345   3.023  15.009  0.2938 -0.5102 -1.2785
13360TIP3    H261572   3.464   3.098  14.953  0.8242  0.8931  1.5301
13361TIP3   OH261573   1.491   3.838   4.861 -0.1526 -0.2491 -0.3081
13361TIP3    H161574   1.446   3.856   4.943  0.8894  0.0990  0.2081
13361TIP3    H261575   1.582   3.862   4.878 -0.2270  1.5765 -2.1385
13362TIP3   OH261576   0.355   5.912   4.132 -0.4819 -0.1457 -0.2651
13362TIP3    H161577   0.294   5.862   4.187 -2.5191  0.6508 -1.6691
13362TIP3    H261578   0.356   5.999   4.171  0.4777 -0.3681  0.2462
13363TIP3   OH261579   4.056   3.736   0.018  0.0660 -0.0391  0.6418
13363TIP3    H161580   3.981   3.748   0.075 -0.3540 -1.9950  0.5719
13363TIP3    H261581   4.112   3.673   0.063 -0.3889 -1.8276 -1.1180
13364TIP3   OH261582   2.220   2.477   3.930 -0.8165  0.4346 -0.3254
13364TIP3    H161583   2.273   2.536   3.982  0.9259  0.1424 -1.6920
13364TIP3    H261584   2.220   2.395   3.980 -0.9302  0.7584  0.2157
13365TIP3   OH261585   5.280   4.931  11.196  0.0309  0.4477 -0.4525
13365TIP3    H161586   5.300   4.948  11.288  2.4708  2.9818 -1.2851
13365TIP3    H261587   5.353   4.877  11.166  0.1338  0.9933 -1.2145
13366TIP3   OH261588   5.333   1.227  12.304 -0.3077  0.0819  0.0724
13366TIP3    H161589   5.256   1.186  12.343 -1.2827  0.7842 -1.0472
13366TIP3    H261590   5.310   1.238  12.212  0.9049  0.8513 -0.1568
13367TIP3   OH261591   5.698   2.307  14.881 -0.6764 -0.2406 -0.4198
13367TIP3    H161592   5.727   2.245  14.813  0.7892  0.4084 -0.4337
13367TIP3    H261593   5.638   2.366  14.836 -0.5723 -0.4808 -0.8793
13368TIP3   OH261594   3.568   1.723  14.401 -0.5330 -0.3291 -0.5365
13368TIP3    H161595   3.529   1.778  14.333 -2.2687  0.6743  1.1509
13368TIP3    H261596   3.499   1.659  14.422 -0.1497 -0.4483  0.4349
13369TIP3   OH261597   4.712   1.196  14.441  0.4297  0.3876  0.6097
13369TIP3    H161598   4.718   1.254  14.517  2.4738  0.9399  0.0688
13369TIP3    H261599   4.796   1.204  14.397  0.0301 -1.4625 -0.6225
13370TIP3   OH261600   0.332   1.905   0.445 -0.1593  0.2326  0.3390
13370TIP3    H161601   0.408   1.917   0.501 -1.4278 -0.0703  2.2312
13370TIP3    H261602   0.299   1.994   0.429 -0.6208  0.2543  1.3314
13371TIP3   OH261603   3.668   2.351  15.390  0.5932  0.8845 -0.9767
13371TIP3    H161604   3.696   2.348  15.482  0.5330  1.3777 -0.9375
13371TIP3    H261605   3.736   2.404  15.347  0.1220  1.4691 -1.0249
13372TIP3   OH261606   2.871   0.823  12.976  0.3988  0.6277  0.1729
13372TIP3    H161607   2.784   0.859  12.991  0.0545  0.4766 -1.3499
13372TIP3    H261608   2.892   0.777  13.057 -1.2462  0.0585  0.3063
13373TIP3   OH261609   0.521   2.139  13.717  0.4131 -0.8332  0.0410
13373TIP3    H161610   0.509   2.062  13.772  1.8299 -0.5784  0.7516
13373TIP3    H261611   0.616   2.145  13.704  0.2347  0.1060 -0.9932
13374TIP3   OH261612   3.707   5.990  15.748 -0.1793  0.8819 -0.1283
13374TIP3    H161613   3.687   5.979  15.655  0.7746  0.2359 -0.2842
13374TIP3    H261614   3.654   6.064  15.777  0.2237  1.7002 -1.4234
13375TIP3   OH261615   2.872   5.487   5.773 -0.2553  0.0135 -0.4263
13375TIP3    H161616   2.932   5.464   5.844  1.4004  1.9987 -1.0813
13375TIP3    H261617   2.813   5.552   5.812  1.1110  1.6496 -0.9759
13376TIP3   OH261618   4.741   1.432  12.918 -0.0832  0.1994  0.3931
13376TIP3    H161619   4.787   1.357  12.955  0.5600  0.4236  0.0678
13376TIP3    H261620   4.658   1.397  12.887  0.3905 -0.4729 -0.1525
13377TIP3   OH261621   1.042   4.249  14.228 -0.4189 -0.3354  0.2808
13377TIP3    H161622   1.070   4.333  14.191  0.0193 -1.2576 -1.6058
13377TIP3    H261623   0.989   4.209  14.159  0.2874 -2.0636  0.6857
13378TIP3   OH261624   4.178   4.105   1.003 -0.2707  0.9741  0.3899
13378TIP3    H161625   4.128   4.103   1.084 -0.5316  1.5280  0.2441
13378TIP3    H261626   4.231   4.025   1.006  1.3673  2.0569  2.1244
13379TIP3   OH261627   2.037   3.137  15.637 -0.2315  0.2769  0.1551
13379TIP3    H161628   2.124   3.101  15.624 -0.8988 -0.6605 -2.1394
13379TIP3    H261629   2.025   3.137  15.732  1.5430 -1.3209  0.4282
13380TIP3   OH261630   5.231   4.522   0.262 -0.0513  0.2333 -0.4549
13380TIP3    H161631   5.194   4.609   0.247  0.9796  1.0739  1.5035
13380TIP3    H261632   5.253   4.490   0.175 -1.4942  1.4336 -1.3181
13381TIP3   OH261633   6.661   4.622  11.796 -0.5238  0.0767 -0.1185
13381TIP3    H161634   6.695   4.634  11.707 -1.1420  2.0402 -0.1432
13381TIP3    H261635   6.736   4.594  11.847  0.2132  0.4748 -0.9559
13382TIP3   OH261636   5.747   5.616  16.244  0.1671 -0.3890  0.9682
13382TIP3    H161637   5.799   5.635  16.322  1.4407 -1.3019  0.3796
13382TIP3    H261638   5.684   5.688  16.239  2.6459  1.8941  0.5974
13383TIP3   OH261639   3.055   2.974  13.318  0.3098 -0.1629 -0.4594
13383TIP3    H161640   3.095   2.965  13.232 -0.2638 -1.0002 -0.6610
13383TIP3    H261641   2.976   3.025  13.303 -0.2161 -0.9979 -0.5820
13384TIP3   OH261642   4.442   1.040   3.619 -0.3371  0.0062  0.6815
13384TIP3    H161643   4.361   0.993   3.597 -1.7662  1.3728  2.7347
13384TIP3    H261644   4.490   0.978   3.675 -0.2770 -0.5328  0.0506
13385TIP3   OH261645   1.552   4.543  14.678  0.2178  0.8763 -0.0985
13385TIP3    H161646   1.483   4.569  14.738  0.7787 -1.3727  1.6551
13385TIP3    H261647   1.616   4.498  14.732  0.3981 -1.9812 -2.4004
13386TIP3   OH261648   1.288   4.669  13.197 -0.4084  0.8492 -0.3192
13386TIP3    H161649   1.367   4.670  13.251 -1.7668 -0.2796  1.8662
13386TIP3    H261650   1.239   4.746  13.225 -0.7183  0.7602 -0.6158
13387TIP3   OH261651   4.356   4.709   4.876 -0.2477 -0.3660  0.2867
13387TIP3    H161652   4.387   4.672   4.959  0.5077 -0.4436 -0.0226
13387TIP3    H261653   4.291   4.646   4.845 -1.3584  0.2078  1.3411
13388TIP3   OH261654   6.799   1.000   0.342  0.2629  0.4336 -0.1775
13388TIP3    H161655   6.857   1.029   0.413  1.2476 -1.9088  0.0497
13388TIP3    H261656   6.715   0.983   0.386 -0.7258  3.7580 -0.4958
13389TIP3   OH261657   1.554   4.567  11.151 -0.1535 -0.4706  0.1055
13389TIP3    H161658   1.468   4.536  11.180  0.4212 -3.5262 -1.1867
13389TIP3    H261659   1.536   4.651  11.109 -1.8796  0.9362  3.2688
13390TIP3   OH261660   2.299   5.004  16.467 -0.7502  0.2382 -0.1782
13390TIP3    H161661   2.363   5.072  16.486  0.9978 -1.6740  1.0974
13390TIP3    H261662   2.247   4.996  16.547  1.9854 -2.8818  1.5277
13391TIP3   OH261663   0.899   5.547   4.025 -0.1455 -0.7034  0.0442
13391TIP3    H161664   0.987   5.572   4.054  0.4923 -2.4538 -0.2370
13391TIP3    H261665   0.899   5.566   3.931 -0.1747 -0.4399  0.0961
13392TIP3   OH261666   3.527   1.243  13.290  0.1634 -0.0432 -0.2096
13392TIP3    H161667   3.546   1.179  13.222  2.0010  1.6515 -1.3946
13392TIP3    H261668   3.582   1.216  13.364  0.2463 -0.3392 -0.3780
13393TIP3   OH261669   4.172   3.167  11.720  0.5703  0.1692 -0.0040
13393TIP3    H161670   4.263   3.143  11.699  1.2817  0.8269  1.9979
13393TIP3    H261671   4.160   3.137  11.810 -0.6506  1.5442  0.3313
13394TIP3   OH261672   1.746   4.311  15.960  0.2396  0.3476  0.3484
13394TIP3    H161673   1.778   4.396  15.989 -0.1272  0.7562 -0.4169
13394TIP3    H261674   1.680   4.286  16.024 -0.3872  1.1199  0.0151
13395TIP3   OH261675   0.358   5.008  16.399 -0.3973  0.2220 -0.1964
13395TIP3    H161676   0.295   4.946  16.436 -0.3802 -1.2997 -2.5101
13395TIP3    H261677   0.307   5.086  16.378 -0.3448  1.3077  3.1467
13396TIP3   OH261678   4.144   4.514  12.658 -0.5626  0.0284 -0.8487
13396TIP3    H161679   4.168   4.579  12.725  2.5306  0.2170 -1.9927
13396TIP3    H261680   4.088   4.452  12.705  0.7560  0.6112  1.7243
13397TIP3   OH261681   6.411   2.493  13.209 -0.6161  0.6226  0.2892
13397TIP3    H161682   6.360   2.415  13.232 -2.0752  1.6064  0.5601
13397TIP3    H261683   6.368   2.527  13.130 -0.6851  1.7446  0.7955
13398TIP3   OH261684   6.096   0.105   1.264 -0.6563 -0.1418 -0.2190
13398TIP3    H161685   6.102   0.022   1.216 -1.3733 -1.1257  1.3288
13398TIP3    H261686   6.169   0.103   1.325 -1.5003 -0.3233  0.8165
13399TIP3   OH261687   3.678   4.374   0.614 -0.4662  0.0718 -0.4152
13399TIP3    H161688   3.636   4.406   0.534  1.6900 -0.6465 -1.9025
13399TIP3    H261689   3.659   4.441   0.679 -0.9292  1.4808 -1.9402
13400TIP3   OH261690   2.571   3.701   5.462  0.1788 -0.2717  0.2411
13400TIP3    H161691   2.592   3.767   5.528 -0.9584  1.4215 -1.0242
13400TIP3    H261692   2.492   3.659   5.494 -1.6388  2.0225 -0.9559
13401TIP3   OH261693   0.619   5.798   2.445 -0.8127 -0.2487 -0.0289
13401TIP3    H161694   0.624   5.725   2.507  0.5968  0.2524  0.4919
13401TIP3    H261695   0.608   5.756   2.360  0.4305 -1.1233  0.2133
13402TIP3   OH261696   2.965   6.201   4.099  0.5005 -0.0796 -0.0302
13402TIP3    H161697   2.907   6.249   4.158 -1.7088 -1.6681 -0.7725
13402TIP3    H261698   2.948   6.239   4.012 -0.0663 -1.0860 -0.3750
13403TIP3   OH261699   1.078   4.672  14.655 -0.4108  0.4030 -0.0155
13403TIP3    H161700   1.089   4.585  14.619 -1.5448  0.6970 -1.1404
13403TIP3    H261701   1.141   4.727  14.609  0.0311  0.2644  0.4147
13404TIP3   OH261702   4.439   3.485   3.304  0.6581 -0.2944 -0.2688
13404TIP3    H161703   4.347   3.464   3.323  0.8622 -1.0214 -0.0567
13404TIP3    H261704   4.471   3.528   3.383  0.9372 -1.4700  0.2695
13405TIP3   OH261705   6.851   4.843   3.332  0.0852 -0.6470  0.3561
13405TIP3    H161706   6.758   4.830   3.317  0.3803 -1.1136 -1.3472
13405TIP3    H261707   6.890   4.757   3.313  1.0340  0.0073 -0.8066
13406TIP3   OH261708   3.271   5.290  11.945  0.1408 -0.2230  0.1232
13406TIP3    H161709   3.261   5.197  11.928  0.3393 -0.0266 -1.2367
13406TIP3    H261710   3.237   5.332  11.866  2.2044  0.7701 -0.2936
13407TIP3   OH261711   1.749   6.804  15.042 -0.3146  0.0603  0.4514
13407TIP3    H161712   1.765   6.716  15.008 -2.1269 -0.7986  1.7036
13407TIP3    H261713   1.697   6.846  14.973 -1.2566 -0.5941  0.7395
13408TIP3   OH261714   3.681   1.861   3.240 -0.1148 -0.2386 -0.1818
13408TIP3    H161715   3.654   1.858   3.332  0.2165  0.7737 -0.0372
13408TIP3    H261716   3.735   1.784   3.228  0.3464 -0.0517  0.6466
13409TIP3   OH261717   6.486   1.309  14.656 -0.6962 -0.2794  0.2362
13409TIP3    H161718   6.445   1.288  14.572 -1.0519  0.1533  0.3013
13409TIP3    H261719   6.489   1.225  14.703 -2.1435 -0.2019  0.5162
13410TIP3   OH261720   0.889   5.671  15.141 -0.0777  0.4063 -0.1737
13410TIP3    H161721   0.903   5.611  15.215  0.6736 -0.0654 -0.6886
13410TIP3    H261722   0.835   5.621  15.080 -1.5634  1.1570  0.4845
13411TIP3   OH261723   6.553   4.297  15.126  0.4800  0.4292  0.1987
13411TIP3    H161724   6.619   4.258  15.069  0.8238  0.9187  0.2532
13411TIP3    H261725   6.512   4.223  15.170  0.9843  0.1219  0.1513
13412TIP3   OH261726   2.970   2.751  11.194  0.6818 -0.1861 -0.1850
13412TIP3    H161727   2.987   2.840  11.224 -0.3320  0.6970 -2.0095
13412TIP3    H261728   2.876   2.739  11.207  0.2733  0.1026 -2.4470
13413TIP3   OH261729   6.449   0.359  16.471 -0.2438  0.0995  0.3728
13413TIP3    H161730   6.443   0.451  16.445 -2.3965  0.2386  1.1401
13413TIP3    H261731   6.429   0.311  16.391  2.5071  0.1866 -0.4494
13414TIP3   OH261732   0.132   6.327  16.453  0.7030 -0.3502  0.3214
13414TIP3    H161733   0.093   6.327  16.365  3.3032  1.0817 -0.9511
13414TIP3    H261734   0.076   6.267  16.503 -1.2890 -0.7221 -2.0900
13415TIP3   OH261735   6.127   1.172  11.249  0.0597 -0.3133  0.0424
13415TIP3    H161736   6.195   1.170  11.317  1.8489  0.3488 -1.6370
13415TIP3    H261737   6.176   1.167  11.167 -1.9620  0.2310 -1.2454
13416TIP3   OH261738   6.096   4.984  10.982 -0.3806 -0.3660 -0.8237
13416TIP3    H161739   6.143   5.009  10.902  0.6237 -1.8968 -0.7436
13416TIP3    H261740   6.100   4.888  10.984  0.5934 -0.3510  1.6241
13417TIP3   OH261741   4.004   2.240   6.342  0.6416  0.1354 -0.1056
13417TIP3    H161742   3.937   2.224   6.407 -0.7995  1.5082 -1.1802
13417TIP3    H261743   4.062   2.305   6.382  0.1568  0.4588  0.0766
13418TIP3   OH261744   0.333   4.342   2.162  0.4739  0.2113 -0.1021
13418TIP3    H161745   0.320   4.248   2.173 -0.0234  0.3607  0.7162
13418TIP3    H261746   0.263   4.369   2.102 -1.4681  0.5487  2.1402
13419TIP3   OH261747   5.995   0.149   6.069  0.1565  0.3609 -0.5234
13419TIP3    H161748   6.065   0.203   6.107  0.1723 -0.0440  0.0400
13419TIP3    H261749   5.918   0.169   6.121  0.4626 -1.1249  0.5869
13420TIP3   OH261750   5.676   1.647  12.736  0.2756  0.2273  0.4016
13420TIP3    H161751   5.618   1.570  12.728  0.2874  0.1465  1.0850
13420TIP3    H261752   5.743   1.632  12.670 -0.9558  0.7493 -1.0328
13421TIP3   OH261753   0.458   2.361   5.363 -0.0069  0.0678 -0.3382
13421TIP3    H161754   0.416   2.411   5.433  0.8720 -1.0158  1.0216
13421TIP3    H261755   0.403   2.283   5.352 -0.4570  0.5071 -1.2757
13422TIP3   OH261756   4.694   1.523  14.598  0.0291  0.4444  0.3753
13422TIP3    H161757   4.704   1.490  14.687  0.0373 -1.7969 -0.3881
13422TIP3    H261758   4.599   1.521  14.583 -0.0821  1.9977  0.7094
13423TIP3   OH261759   4.361   2.151  11.237 -0.9875 -0.7884  0.5102
13423TIP3    H161760   4.387   2.201  11.314 -0.1915 -0.9129  0.3270
13423TIP3    H261761   4.395   2.063  11.252  1.1520 -0.2786 -0.9563
13424TIP3   OH261762   2.195   2.687  13.892 -0.0407  0.4195 -0.2272
13424TIP3    H161763   2.220   2.612  13.945  0.1250  0.5239 -0.1595
13424TIP3    H261764   2.132   2.735  13.946 -0.2290  0.2742 -0.3127
13425TIP3   OH261765   0.090   0.207  11.840  0.0458 -0.6254  0.5417
13425TIP3    H161766   0.137   0.272  11.788  0.5766  0.8697  2.7466
13425TIP3    H261767   0.006   0.197  11.797  0.2662  0.9345 -0.3118
13426TIP3   OH261768   5.068   3.360   4.911 -0.5498  0.2617  0.2014
13426TIP3    H161769   5.085   3.271   4.943 -0.3001  1.0281  2.3275
13426TIP3    H261770   5.155   3.396   4.894 -0.6324  0.3015 -0.1558
13427TIP3   OH261771   3.710   0.492  15.738 -0.6759  0.2737 -0.3220
13427TIP3    H161772   3.736   0.580  15.709 -0.3005  1.4553  3.1075
13427TIP3    H261773   3.779   0.466  15.799 -2.6681 -0.6885  1.6522
13428TIP3   OH261774   5.420   1.142  15.264  0.3957  0.1594 -0.1559
13428TIP3    H161775   5.348   1.082  15.285 -1.0363  2.0674  0.6626
13428TIP3    H261776   5.444   1.180  15.348  1.7992  0.1931 -0.5563
13429TIP3   OH261777   2.708   4.936  16.932 -0.1462  0.0749 -0.2709
13429TIP3    H161778   2.665   4.898  16.855  0.1726 -0.1718 -0.3318
13429TIP3    H261779   2.800   4.942  16.906 -0.1139  0.4194 -0.0756
13430TIP3   OH261780   4.455   6.175  14.999  0.5940  0.1474 -0.1541
13430TIP3    H161781   4.418   6.230  15.069  0.8637 -1.6443  1.4751
13430TIP3    H261782   4.497   6.103  15.045 -0.7674 -2.0990 -2.1833
13431TIP3   OH261783   2.881   4.235   0.606  0.2233  0.0079  0.1862
13431TIP3    H161784   2.929   4.288   0.542  1.6906 -1.1832  0.2471
13431TIP3    H261785   2.843   4.299   0.666  0.0798  1.0737 -0.9945
13432TIP3   OH261786   5.156   6.661   4.513  0.2936 -0.0504  0.1233
13432TIP3    H161787   5.067   6.672   4.482  0.2413 -1.4149 -0.2591
13432TIP3    H261788   5.206   6.636   4.435  0.9905  0.5523  0.3610
13433TIP3   OH261789   5.570   1.753   3.289  0.3811  0.2703  0.0016
13433TIP3    H161790   5.600   1.844   3.298  0.7226  0.1927 -0.3153
13433TIP3    H261791   5.641   1.701   3.326 -0.1181  0.1602  0.8205
13434TIP3   OH261792   2.863   2.871  10.720 -0.8201  0.2935  0.0597
13434TIP3    H161793   2.929   2.904  10.781 -0.7980  0.2028  0.0848
13434TIP3    H261794   2.790   2.845  10.775 -1.0203  0.7367  0.0043
13435TIP3   OH261795   2.952   0.629  14.407  0.0847  0.1027 -0.7895
13435TIP3    H161796   2.947   0.580  14.489  0.5596  0.7929 -0.3325
13435TIP3    H261797   2.911   0.714  14.428 -1.0035 -0.1850 -1.6475
13436TIP3   OH261798   6.845   0.884  11.282 -0.1246 -0.2070 -0.2452
13436TIP3    H161799   6.853   0.832  11.362  1.1805  1.2302  0.6056
13436TIP3    H261800   6.793   0.960  11.308 -0.5683 -0.2273 -1.0375
13437TIP3   OH261801   2.134   6.803   1.036 -0.1990 -0.0768  0.6104
13437TIP3    H161802   2.192   6.863   1.083 -2.1351  0.7465  2.0579
13437TIP3    H261803   2.058   6.856   1.013 -0.1669 -0.9413 -1.8713
13438TIP3   OH261804   3.652   4.424  17.058  0.0398  0.2340 -0.0629
13438TIP3    H161805   3.587   4.456  17.121  0.3747  0.8864 -0.0490
13438TIP3    H261806   3.734   4.461  17.088  0.3872 -0.3873 -0.2294
13439TIP3   OH261807   5.014   5.942   2.202 -0.4178 -0.3887  0.3964
13439TIP3    H161808   5.082   5.997   2.242 -0.4792 -1.1096  1.5018
13439TIP3    H261809   5.062   5.866   2.168 -0.1935  0.6914 -1.9458
13440TIP3   OH261810   6.635   6.526   2.043  0.4308  0.0957 -0.6533
13440TIP3    H161811   6.650   6.596   2.106  0.9676  1.0903 -1.8424
13440TIP3    H261812   6.584   6.461   2.091 -0.5202  1.5156  0.3409
13441TIP3   OH261813   5.101   6.499   6.690  0.2984 -0.7957  0.0931
13441TIP3    H161814   5.188   6.489   6.728  0.7502  2.5556  0.2864
13441TIP3    H261815   5.112   6.566   6.622 -2.1910  0.2039  0.5418
13442TIP3   OH261816   4.749   0.503  14.072 -0.3511  0.5904  0.5719
13442TIP3    H161817   4.795   0.560  14.134 -0.2659  2.3797 -1.0487
13442TIP3    H261818   4.776   0.535  13.986 -0.7180 -1.6148 -0.4138
13443TIP3   OH261819   0.310   3.178   3.012 -0.1630 -1.1454 -0.1242
13443TIP3    H161820   0.229   3.218   2.979 -0.4479 -0.8118  0.9317
13443TIP3    H261821   0.320   3.214   3.100  2.1740  0.3171 -0.8968
13444TIP3   OH261822   2.182   4.936  14.575  0.3168 -0.1131 -0.3191
13444TIP3    H161823   2.219   4.892  14.652 -2.3353 -0.6018  0.7652
13444TIP3    H261824   2.090   4.911  14.575 -0.2178  1.5758 -2.5011
13445TIP3   OH261825   6.126   0.437  17.083  0.3057 -0.1183 -0.1071
13445TIP3    H161826   6.201   0.391  17.119  0.8723 -0.4292 -1.5916
13445TIP3    H261827   6.050   0.395  17.122  0.8784 -0.3664  0.7622
13446TIP3   OH261828   4.024   0.048   1.264 -0.1632  0.0568  0.0926
13446TIP3    H161829   4.054  -0.008   1.193  0.3396 -2.2371  2.0141
13446TIP3    H261830   3.929   0.035   1.266 -0.5338  1.9361 -1.5333
13447TIP3   OH261831   3.209   1.848  11.149  0.2092  0.3548 -0.0539
13447TIP3    H161832   3.217   1.765  11.103 -1.6261 -0.1564  0.4507
13447TIP3    H261833   3.291   1.894  11.131  0.6082 -0.8931 -1.6498
13448TIP3   OH261834   2.394   0.748   3.746 -0.7133  0.2115 -0.0900
13448TIP3    H161835   2.403   0.663   3.789  0.1409  0.7708  0.8724
13448TIP3    H261836   2.359   0.806   3.814 -0.3040  0.8747 -0.4294
13449TIP3   OH261837   0.274   0.564  15.707 -0.3078 -0.2305 -0.4390
13449TIP3    H161838   0.214   0.507  15.754 -0.2676  0.1590  0.0897
13449TIP3    H261839   0.360   0.524  15.721 -0.4570 -0.9614 -1.4502
13450TIP3   OH261840   4.789   1.970  15.135 -0.3142 -0.1023 -0.5692
13450TIP3    H161841   4.809   1.929  15.220  0.5918  0.8453 -0.3063
13450TIP3    H261842   4.808   2.063  15.148  0.8133 -0.0916 -2.1023
13451TIP3   OH261843   5.237   2.909   1.340 -0.2100  0.1394  0.5009
13451TIP3    H161844   5.262   2.843   1.275  1.0505 -1.3448  2.3670
13451TIP3    H261845   5.219   2.987   1.288  1.5969 -0.6948 -1.5918
13452TIP3   OH261846   2.465   1.652   0.491  0.2097  0.5891 -0.3363
13452TIP3    H161847   2.504   1.739   0.497 -1.4325  1.3081  0.7240
13452TIP3    H261848   2.398   1.651   0.560  0.7382 -1.8213  0.2416
13453TIP3   OH261849   0.767   1.490  16.177 -0.7119 -0.4000 -0.0201
13453TIP3    H161850   0.767   1.585  16.168 -2.3498 -0.3577  0.1408
13453TIP3    H261851   0.844   1.471  16.230  0.0039  0.7700 -0.6091
13454TIP3   OH261852   0.288   2.881  10.991  0.1581  0.1606  0.1823
13454TIP3    H161853   0.341   2.932  11.052  2.2471  0.4730 -1.7623
13454TIP3    H261854   0.293   2.929  10.908 -0.1082 -1.7413 -0.9945
13455TIP3   OH261855   3.364   6.814  13.140  0.6122 -0.1680 -0.2143
13455TIP3    H161856   3.332   6.783  13.225  1.1594  0.2767  0.1639
13455TIP3    H261857   3.308   6.889  13.119 -0.6356 -1.3076 -1.0752
13456TIP3   OH261858   4.912   6.671   4.329  0.2119 -0.2212 -0.3184
13456TIP3    H161859   4.917   6.699   4.237  1.1380  1.3919  0.2024
13456TIP3    H261860   4.901   6.576   4.323 -0.2794 -0.0977 -2.1024
13457TIP3   OH261861   3.398   4.563   6.121 -0.6879 -0.0756  0.2440
13457TIP3    H161862   3.354   4.629   6.174 -1.1949 -0.7970  0.7563
13457TIP3    H261863   3.442   4.507   6.185 -0.6271 -0.4886 -0.1507
13458TIP3   OH261864   1.763   6.574  12.109  0.4495 -0.5383 -0.0956
13458TIP3    H161865   1.701   6.613  12.047 -0.3286 -2.0256 -0.3010
13458TIP3    H261866   1.714   6.503  12.151  1.2565 -0.1650  1.5648
13459TIP3   OH261867   2.304   1.968   3.215 -0.2951 -0.1526 -0.1843
13459TIP3    H161868   2.301   1.872   3.223  0.9633 -0.0590  2.6655
13459TIP3    H261869   2.216   1.992   3.186 -1.5787 -2.0545  1.7370
13460TIP3   OH261870   5.793   3.001   1.102 -0.2243 -0.0457  0.2717
13460TIP3    H161871   5.887   2.997   1.124 -0.5349 -0.3267  1.6631
13460TIP3    H261872   5.749   2.966   1.180 -1.5068  0.3609 -0.2488
13461TIP3   OH261873   2.761   4.070   0.887 -0.1033  0.0819 -0.0731
13461TIP3    H161874   2.675   4.076   0.845 -0.7339  0.0563  1.1754
13461TIP3    H261875   2.822   4.057   0.815 -0.9056  2.1033 -1.2058
13462TIP3   OH261876   2.733   3.258  16.858 -0.4808  0.4019  0.2893
13462TIP3    H161877   2.682   3.297  16.786 -0.7324  0.6253  0.5887
13462TIP3    H261878   2.672   3.198  16.901 -0.9041  1.6326  1.4548
13463TIP3   OH261879   6.014   2.541  14.246 -0.1951 -0.4675  0.5743
13463TIP3    H161880   6.041   2.588  14.325 -1.3615  0.8228  0.2324
13463TIP3    H261881   5.960   2.469  14.279 -0.4346 -0.1149  0.9603
13464TIP3   OH261882   0.171   6.213   3.125  0.1186  0.0119 -0.0095
13464TIP3    H161883   0.116   6.277   3.081  0.5797  0.4749  0.0817
13464TIP3    H261884   0.234   6.265   3.175 -1.5480 -0.4562  2.7640
13465TIP3   OH261885   2.089   2.142   1.913 -0.7587  0.2628  0.0596
13465TIP3    H161886   2.041   2.220   1.887 -0.6974  1.1304  2.3150
13465TIP3    H261887   2.119   2.161   2.002  1.3315 -1.3786 -0.2088
13466TIP3   OH261888   2.098   2.925   1.405  0.2328 -0.2878 -0.0364
13466TIP3    H161889   2.181   2.877   1.405 -0.7504 -2.1007 -0.0943
13466TIP3    H261890   2.118   3.009   1.446  2.2591 -0.3487 -0.8138
13467TIP3   OH261891   0.139   2.431  12.454  0.3762 -0.4469  0.2304
13467TIP3    H161892   0.060   2.379  12.436  2.4546 -3.2457 -1.6019
13467TIP3    H261893   0.201   2.368  12.490  1.9888  1.5956  1.2258
13468TIP3   OH261894   1.449   6.156  11.430  0.0230  0.1579 -0.3469
13468TIP3    H161895   1.512   6.207  11.482  0.5376 -1.3892  0.6145
13468TIP3    H261896   1.498   6.078  11.404 -0.8440 -0.0186 -1.4860
13469TIP3   OH261897   4.536   6.382  16.236 -0.6856  0.5149 -0.3101
13469TIP3    H161898   4.570   6.293  16.233 -1.4961  0.2013 -0.3446
13469TIP3    H261899   4.505   6.399  16.147 -1.7375  0.3414  0.0047
13470TIP3   OH261900   6.526   3.122   2.537  0.0166 -1.0064  0.4132
13470TIP3    H161901   6.576   3.191   2.580 -0.3140 -0.7017  0.3099
13470TIP3    H261902   6.580   3.043   2.547 -0.0785 -0.9514  1.4271
13471TIP3   OH261903   3.744   5.854   5.775 -0.0653 -0.5090 -0.0774
13471TIP3    H161904   3.662   5.898   5.797  0.1938 -0.0124 -0.1145
13471TIP3    H261905   3.754   5.787   5.843 -0.1298 -0.0952  0.3391
13472TIP3   OH261906   0.130   5.835   2.051 -0.0128  0.3077  0.0802
13472TIP3    H161907   0.168   5.842   2.139 -1.4030 -0.4771  0.7936
13472TIP3    H261908   0.075   5.913   2.043 -0.3179  0.1063  0.1549
13473TIP3   OH261909   2.781   2.432  16.381  0.5696 -0.8796 -0.8163
13473TIP3    H161910   2.801   2.407  16.291 -0.2022 -1.2811 -0.8876
13473TIP3    H261911   2.732   2.513  16.374 -2.4252 -2.5791 -1.0199
13474TIP3   OH261912   4.446   1.989  14.203 -0.3343 -0.2013  0.6581
13474TIP3    H161913   4.541   1.985  14.202 -0.3446 -0.3666  0.3757
13474TIP3    H261914   4.421   1.942  14.283 -0.1061  1.4476  1.7560
13475TIP3   OH261915   0.035   5.094   1.552  0.0857  0.3091  0.3974
13475TIP3    H161916   0.040   5.076   1.458 -0.9441  0.8482  0.2236
13475TIP3    H261917   0.108   5.154   1.569 -0.0854  0.7000 -0.1913
13476TIP3   OH261918   6.386   1.546  13.131 -0.2605  0.9836  0.0284
13476TIP3    H161919   6.362   1.517  13.219 -0.8551  3.3474  0.7433
13476TIP3    H261920   6.433   1.628  13.145  0.6739  0.8101 -1.8211
13477TIP3   OH261921   2.407   4.125  11.215  0.1576  0.1225 -0.2014
13477TIP3    H161922   2.325   4.130  11.167 -0.3023  0.2775  0.5738
13477TIP3    H261923   2.442   4.038  11.195 -1.1452 -0.7129  0.9254
13478TIP3   OH261924   3.958   0.861   1.456 -0.2828 -0.2004 -0.4233
13478TIP3    H161925   3.934   0.786   1.511  0.8869  0.6825  1.3996
13478TIP3    H261926   3.882   0.875   1.400 -0.9663 -2.0328 -0.0313
13479TIP3   OH261927   4.166   2.564  14.509  0.2975 -0.0386 -0.0904
13479TIP3    H161928   4.230   2.553  14.580  0.2213  0.0476 -0.0088
13479TIP3    H261929   4.171   2.482  14.460  0.2592 -0.1494  0.0889
13480TIP3   OH261930   4.270   2.411   2.115 -0.1054  0.3340  0.1375
13480TIP3    H161931   4.274   2.502   2.145  0.8664  0.2398  0.3531
13480TIP3    H261932   4.264   2.360   2.196  1.8427  0.1108  0.2025
13481TIP3   OH261933   1.361   2.980  12.568  0.3854 -0.1848  0.0314
13481TIP3    H161934   1.266   2.979  12.576  0.4772 -2.0272  1.7911
13481TIP3    H261935   1.386   2.887  12.565  2.1652  0.2422  0.4198
13482TIP3   OH261936   0.559   0.679  15.951  0.0975  0.1841  0.5418
13482TIP3    H161937   0.638   0.661  16.002  0.1996 -1.3762 -0.1228
13482TIP3    H261938   0.490   0.688  16.016  0.6539  0.6681  1.0782
13483TIP3   OH261939   2.291   2.744   5.802  0.2889  0.3262  0.0470
13483TIP3    H161940   2.266   2.669   5.857 -0.5058  0.6014  0.0699
13483TIP3    H261941   2.238   2.816   5.835  1.7792  1.1818  0.7084
13484TIP3   OH261942   2.242   2.753  15.360  0.8497  0.1220 -0.1941
13484TIP3    H161943   2.226   2.705  15.441  2.5013  1.3716  0.9353
13484TIP3    H261944   2.155   2.783  15.333  0.2074 -0.7173  0.8178
13485TIP3   OH261945   3.005   5.588  12.475  0.7924 -0.0312 -0.1347
13485TIP3    H161946   3.064   5.580  12.550  2.3458 -3.7044 -1.5355
13485TIP3    H261947   2.946   5.659  12.499  3.1273  1.0411  3.1783
13486TIP3   OH261948   0.528   3.602   1.714  0.1166 -0.7732 -0.4204
13486TIP3    H161949   0.465   3.657   1.668  0.0317 -0.5098  0.0073
13486TIP3    H261950   0.476   3.550   1.774  0.4131  0.5060  1.0145
13487TIP3   OH261951   6.717   3.612   0.186  0.5238  0.3757 -0.2304
13487TIP3    H161952   6.623   3.601   0.170  0.8279 -1.2145 -1.2723
13487TIP3    H261953   6.723   3.654   0.271 -1.1433 -1.5663  0.9520
13488TIP3   OH261954   1.366   4.345  15.940  0.3689  0.1213  0.0368
13488TIP3    H161955   1.412   4.328  15.858  0.7799 -3.3186  0.8495
13488TIP3    H261956   1.284   4.297  15.932 -0.6833  1.7128  0.7593
13489TIP3   OH261957   1.005   1.310  14.223  0.2373 -0.3873 -0.2337
13489TIP3    H161958   0.969   1.236  14.175  2.4140 -2.2854  0.8609
13489TIP3    H261959   1.075   1.344  14.167  1.2536 -1.1528  0.5188
13490TIP3   OH261960   0.105   6.704   5.503 -0.0620  0.0018 -0.1628
13490TIP3    H161961   0.073   6.791   5.479 -1.9603 -0.4820  0.4099
13490TIP3    H261962   0.069   6.646   5.436  0.9769 -0.3962 -0.3966
13491TIP3   OH261963   2.005   3.576  10.662 -0.0657 -0.1389 -0.1969
13491TIP3    H161964   2.034   3.492  10.626  2.5328  0.3532  0.5074
13491TIP3    H261965   1.910   3.573  10.658 -0.0086 -1.4352 -3.9853
13492TIP3   OH261966   3.553   2.944  16.752  0.5943 -0.0500  0.0601
13492TIP3    H161967   3.519   2.895  16.677  0.3767  0.2905 -0.0638
13492TIP3    H261968   3.492   3.016  16.764  0.4694 -0.2649  0.7504
13493TIP3   OH261969   6.079   6.816  16.812  0.1217  0.2177  0.3206
13493TIP3    H161970   6.085   6.878  16.738  1.2424  0.3993  0.5425
13493TIP3    H261971   5.988   6.786  16.811 -0.2074  1.1837 -0.3535
13494TIP3   OH261972   2.516   4.624   0.240 -0.7975 -0.0089 -0.2642
13494TIP3    H161973   2.516   4.638   0.146 -2.8072 -2.3721 -0.7276
13494TIP3    H261974   2.455   4.689   0.275  2.0107  2.7577 -0.0939
13495TIP3   OH261975   6.726   2.339  17.060 -0.0877  0.1194 -0.3900
13495TIP3    H161976   6.798   2.304  17.008 -0.7408  0.4706 -1.5576
13495TIP3    H261977   6.740   2.434  17.059  0.7975  0.0691  1.4644
13496TIP3   OH261978   3.376   1.838  13.544  0.2459 -0.6104 -0.2388
13496TIP3    H161979   3.370   1.930  13.517  0.4752 -0.8462 -1.1482
13496TIP3    H261980   3.343   1.789  13.469  1.7005 -1.3419 -0.4560
13497TIP3   OH261981   5.361   2.423  12.562 -0.3066 -0.4850  0.0579
13497TIP3    H161982   5.393   2.502  12.605  1.1130 -0.9651 -0.0466
13497TIP3    H261983   5.374   2.354  12.628 -0.4199 -0.8238 -0.2740
13498TIP3   OH261984   1.822   3.602  15.232 -0.9195 -0.8845 -0.4028
13498TIP3    H161985   1.775   3.521  15.216 -1.1895 -0.9701  0.7001
13498TIP3    H261986   1.794   3.629  15.320 -1.4819  0.8364 -1.0636
13499TIP3   OH261987   2.921   0.219   1.567  0.2425 -0.3117 -0.1028
13499TIP3    H161988   2.834   0.225   1.607 -0.4618 -0.3842 -1.5895
13499TIP3    H261989   2.974   0.174   1.634 -0.8520 -0.2883  0.8143
13500TIP3   OH261990   4.051   4.843  12.697 -0.4359 -0.3850 -0.1026
13500TIP3    H161991   3.961   4.817  12.679 -0.1483 -2.2651  0.9371
13500TIP3    H261992   4.066   4.818  12.788  0.6529  1.4018  0.2603
13501TIP3   OH261993   1.636   0.082  12.611  0.1196  0.0068 -0.5731
13501TIP3    H161994   1.657  -0.004  12.574 -0.8918 -0.5578  0.1333
13501TIP3    H261995   1.674   0.080  12.699 -0.2498  0.1390 -0.4124
13502TIP3   OH261996   1.487   6.038   1.796  0.0799  0.4775  0.1236
13502TIP3    H161997   1.526   5.960   1.835 -0.3161 -0.1182 -0.6332
13502TIP3    H261998   1.502   6.108   1.860 -0.5308 -0.4602  1.3391
13503TIP3   OH261999   1.527   0.424  14.417 -0.0669  0.2320  0.0969
13503TIP3    H162000   1.505   0.341  14.459  0.9437 -0.9684 -1.6226
13503TIP3    H262001   1.463   0.486  14.452 -0.2719 -1.0259  2.1438
13504TIP3   OH262002   5.262   0.528  14.160 -0.0947  0.3600  0.0579
13504TIP3    H162003   5.225   0.441  14.140 -1.2699  1.1888 -1.6537
13504TIP3    H262004   5.191   0.574  14.205  0.9263  0.1054  2.0446
13505TIP3   OH262005   2.875   3.081   2.984 -0.8292 -0.1245  0.1867
13505TIP3    H162006   2.949   3.074   3.045 -1.0594 -1.1728  0.3666
13505TIP3    H262007   2.902   3.148   2.922 -0.3196  0.5099  1.0730
13506TIP3   OH262008   5.156   1.266  12.864 -0.0143 -0.1986 -0.1668
13506TIP3    H162009   5.157   1.322  12.786 -1.6647  0.8234  0.4784
13506TIP3    H262010   5.231   1.297  12.916 -0.2286  0.6565 -0.3454
13507TIP3   OH262011   4.538   0.377  10.662 -0.4052 -0.0420  0.1395
13507TIP3    H162012   4.482   0.390  10.739 -1.2911  0.6418 -0.6046
13507TIP3    H262013   4.558   0.465  10.632  1.2180 -0.2630  0.4652
13508TIP3   OH262014   4.866   4.206  15.631 -0.1027 -0.3628 -0.0872
13508TIP3    H162015   4.897   4.181  15.718 -0.4011 -2.2946 -0.4918
13508TIP3    H262016   4.771   4.208  15.639 -0.0975  0.5806 -0.1107
13509TIP3   OH262017   0.968   3.687  15.604  0.3094 -0.1620  0.2128
13509TIP3    H162018   0.953   3.780  15.585 -0.1046 -0.4348 -0.8590
13509TIP3    H262019   0.956   3.643  15.520  0.7167 -1.1672  0.6661
13510TIP3   OH262020   3.302   1.457   2.305  0.4381  0.3595 -0.3648
13510TIP3    H162021   3.229   1.434   2.362 -0.2211  0.2954 -1.2184
13510TIP3    H262022   3.311   1.552   2.315  1.6433  0.1177  1.3642
13511TIP3   OH262023   1.537   3.863  14.832 -0.0024 -0.5592 -0.5564
13511TIP3    H162024   1.587   3.903  14.903 -2.4491  2.1418 -0.2069
13511TIP3    H262025   1.532   3.770  14.856 -0.8389  0.2491  2.9367
13512TIP3   OH262026   0.210   3.834   4.573  1.1898 -0.6422 -0.4832
13512TIP3    H162027   0.176   3.818   4.661  0.6172 -0.0211 -0.5868
13512TIP3    H262028   0.262   3.914   4.581 -1.7730  1.5544 -1.3894
13513TIP3   OH262029   5.258   6.421   4.618  0.9892  0.3074 -0.4505
13513TIP3    H162030   5.257   6.480   4.543  0.1236  1.1735  0.2139
13513TIP3    H262031   5.314   6.465   4.682 -0.4499  0.9263  0.4226
13514TIP3   OH262032   1.546   0.692   5.544  0.4017  0.5072  0.8104
13514TIP3    H162033   1.570   0.722   5.456 -1.6450 -0.1874 -0.0510
13514TIP3    H262034   1.485   0.620   5.529 -0.0908  0.4521  2.8011
13515TIP3   OH262035   1.039   6.456   4.293  0.2098 -0.0379 -0.7811
13515TIP3    H162036   1.028   6.361   4.293 -2.8491  0.1734  1.0648
13515TIP3    H262037   0.950   6.490   4.282  1.2001  2.6444 -1.3073
13516TIP3   OH262038   1.309   3.118   0.656 -0.5654 -0.1350 -0.4133
13516TIP3    H162039   1.404   3.106   0.648 -0.4789  0.3118 -0.0948
13516TIP3    H262040   1.283   3.155   0.571 -0.4949 -0.5049 -0.5956
13517TIP3   OH262041   5.969   2.334  13.829 -0.7606  0.0865  0.3095
13517TIP3    H162042   5.922   2.284  13.762 -0.1618  0.5698 -0.4999
13517TIP3    H262043   5.980   2.273  13.902  0.0378 -1.0127 -0.6869
13518TIP3   OH262044   0.817   6.676   1.537  0.4128 -0.1806  0.2731
13518TIP3    H162045   0.811   6.752   1.479  1.6701  0.8751  1.4539
13518TIP3    H262046   0.903   6.685   1.579  0.8272 -2.5565  0.0585
13519TIP3   OH262047   1.867   1.280  13.189  0.4170 -0.0000  0.1008
13519TIP3    H162048   1.907   1.225  13.121  0.1257  0.0744 -0.1295
13519TIP3    H262049   1.804   1.334  13.142  1.5281  1.3791  0.1309
13520TIP3   OH262050   0.291   4.048  13.458 -0.3391  0.0997 -0.1886
13520TIP3    H162051   0.296   4.093  13.373  1.8827 -0.3474 -0.3583
13520TIP3    H262052   0.337   4.107  13.518  0.4521 -0.8097  0.1091
13521TIP3   OH262053   2.014   4.741  16.247 -0.6174 -0.1095  0.0627
13521TIP3    H162054   2.023   4.836  16.253  0.1156 -0.2270  1.0782
13521TIP3    H262055   1.985   4.714  16.333 -0.6133 -0.8293 -0.1531
13522TIP3   OH262056   5.855   0.050  16.002  0.5470 -0.7484  0.1447
13522TIP3    H162057   5.858  -0.019  16.068 -0.6375 -0.8122  0.1576
13522TIP3    H262058   5.907   0.016  15.929  0.0457 -1.6271  0.1848
13523TIP3   OH262059   1.593   5.804   2.485 -0.2631  0.7255  0.2288
13523TIP3    H162060   1.574   5.869   2.552 -0.0299  0.0452  0.9609
13523TIP3    H262061   1.510   5.759   2.471  0.3746 -1.2627  2.3745
13524TIP3   OH262062   1.446   0.817   4.249 -0.1882 -0.1249  0.3809
13524TIP3    H162063   1.435   0.771   4.166 -0.6641  1.1050 -0.2741
13524TIP3    H262064   1.446   0.748   4.315 -0.2367 -1.0977 -0.5993
13525TIP3   OH262065   4.695   2.469   2.177  0.1747 -0.0818  0.3592
13525TIP3    H162066   4.700   2.561   2.205  0.2774  0.2883 -0.8081
13525TIP3    H262067   4.675   2.421   2.257  0.5305  0.9100  1.0747
13526TIP3   OH262068   3.151   6.201  11.716  0.2294  0.0224 -0.0012
13526TIP3    H162069   3.182   6.265  11.652 -0.2620 -0.4402 -0.7252
13526TIP3    H262070   3.228   6.178  11.766  0.0268  2.9071  1.8821
13527TIP3   OH262071   6.732   1.325  12.886  0.3185  0.0279 -0.8415
13527TIP3    H162072   6.654   1.298  12.839 -0.4431 -0.2607  0.5376
13527TIP3    H262073   6.700   1.352  12.972  1.5777  1.1883 -0.7065
13528TIP3   OH262074   5.216   1.231  13.540 -0.1947 -0.5857 -0.3085
13528TIP3    H162075   5.208   1.250  13.447  0.1438  0.2568 -0.1730
13528TIP3    H262076   5.263   1.306  13.576 -2.3993  0.2984  0.9453
13529TIP3   OH262077   3.024   3.818   4.919  0.0302  0.3120 -0.1093
13529TIP3    H162078   3.109   3.859   4.933 -0.3221  0.6388  1.2163
13529TIP3    H262079   3.018   3.751   4.987 -0.8102  0.3439 -0.1406
13530TIP3   OH262080   0.208   4.146  12.810 -0.8643 -0.6966 -0.0428
13530TIP3    H162081   0.287   4.172  12.857 -0.8041 -0.3790 -0.3134
13530TIP3    H262082   0.138   4.197  12.850 -0.3123  2.3224 -2.5759
13531TIP3   OH262083   2.016   5.096  17.070 -0.1454  0.4903 -0.2194
13531TIP3    H162084   2.104   5.061  17.085 -1.3982 -3.1549 -0.1989
13531TIP3    H262085   1.991   5.137  17.152  0.9540  0.1368  0.3045
13532TIP3   OH262086   6.543   2.238  15.302  0.1697 -0.3222 -0.1996
13532TIP3    H162087   6.584   2.223  15.217  2.6825  1.4898  0.5836
13532TIP3    H262088   6.583   2.173  15.360  0.6979  0.3637  0.2153
13533TIP3   OH262089   6.834   6.591   4.205 -0.0693  0.1306  0.4954
13533TIP3    H162090   6.771   6.575   4.135  1.3173  0.6016 -0.9004
13533TIP3    H262091   6.814   6.680   4.235  0.1626  0.4132 -0.1847
13534TIP3   OH262092   0.333   0.807  15.579  0.1809 -0.9370  0.1727
13534TIP3    H162093   0.398   0.856  15.630  1.0179  0.3150 -1.9268
13534TIP3    H262094   0.328   0.722  15.621  1.4280 -0.2589  1.8073
13535TIP3   OH262095   2.655   3.350  11.449 -0.2053  0.3578 -0.7082
13535TIP3    H162096   2.720   3.291  11.409 -0.8301 -1.0538  0.2642
13535TIP3    H262097   2.583   3.292  11.474 -0.2670  1.3137  1.5272
13536TIP3   OH262098   6.184   6.652   4.075 -0.5443 -0.2655  0.6293
13536TIP3    H162099   6.159   6.590   4.007  0.2894 -0.6227  0.6372
13536TIP3    H262100   6.225   6.598   4.143  1.1591  0.3963  0.1731
13537TIP3   OH262101   3.517   1.581   5.432 -0.4199  0.0191 -0.3215
13537TIP3    H162102   3.491   1.544   5.348 -2.5901 -1.9486  1.1033
13537TIP3    H262103   3.458   1.657   5.444 -1.3301 -0.7361  0.1394
13538TIP3   OH262104   6.801   6.763   0.458 -0.2784  0.1074 -0.2308
13538TIP3    H162105   6.793   6.857   0.442  0.7196  0.1436 -0.5816
13538TIP3    H262106   6.758   6.722   0.383 -0.5109  0.2810 -0.1935
13539TIP3   OH262107   0.794   3.540  11.203  0.2581 -0.3452 -0.0845
13539TIP3    H162108   0.826   3.463  11.155 -0.4036  0.2186 -1.4803
13539TIP3    H262109   0.699   3.537  11.191  0.1228  0.0762  0.8155
13540TIP3   OH262110   2.228   2.028   4.849 -0.0310  0.0653  0.6391
13540TIP3    H162111   2.307   2.026   4.794  0.3868  1.8738  1.0948
13540TIP3    H262112   2.248   1.969   4.921  0.9212  0.4754  0.7316
13541TIP3   OH262113   5.931   4.672  16.888  0.6023  0.1403  0.4849
13541TIP3    H162114   5.838   4.691  16.900  0.5117  0.7436 -1.0611
13541TIP3    H262115   5.956   4.626  16.969 -1.3024 -1.0965  0.4417
13542TIP3   OH262116   0.229   5.247   0.709  0.3070  0.0915 -0.9039
13542TIP3    H162117   0.190   5.204   0.633 -1.3085  1.7058 -1.0493
13542TIP3    H262118   0.226   5.340   0.688 -1.7160  0.7526  1.7394
13543TIP3   OH262119   2.632   4.643   5.202  0.4367 -0.0837 -0.0191
13543TIP3    H162120   2.647   4.550   5.216  1.2542  0.0844  0.2596
13543TIP3    H262121   2.690   4.667   5.129 -0.1313  0.1103 -0.4206
13544TIP3   OH262122   3.909   2.505  14.600  0.4636 -0.0026  0.2011
13544TIP3    H162123   3.879   2.423  14.562  2.3306 -1.4967  1.7357
13544TIP3    H262124   3.986   2.529  14.549  0.9953 -0.2164  0.8794
13545TIP3   OH262125   4.183   2.725  16.219 -0.2711  0.2087  0.2022
13545TIP3    H162126   4.138   2.646  16.248  0.8710 -0.7332 -0.5176
13545TIP3    H262127   4.177   2.785  16.294 -0.9776 -0.6195  0.8298
13546TIP3   OH262128   5.117   1.116  14.344 -0.1399 -0.1111  0.1233
13546TIP3    H162129   5.205   1.082  14.360 -0.5762 -1.5222 -0.2874
13546TIP3    H262130   5.064   1.079  14.414 -0.2161  1.6961  1.0740
13547TIP3   OH262131   4.757   5.883  12.145  0.2436  0.0646 -0.0971
13547TIP3    H162132   4.673   5.904  12.187 -0.2141 -0.3325 -0.7949
13547TIP3    H262133   4.783   5.965  12.104  1.5928  0.9896  2.3883
13548TIP3   OH262134   1.663   6.516  15.547  0.0533  0.1478  0.1314
13548TIP3    H162135   1.728   6.545  15.612  0.0018 -0.8286  0.6447
13548TIP3    H262136   1.713   6.464  15.484  0.1024  1.0966 -0.6274
13549TIP3   OH262137   2.717   0.615   6.423  0.6678 -0.1219 -0.0523
13549TIP3    H162138   2.798   0.664   6.441  1.6918 -2.0982  1.0568
13549TIP3    H262139   2.745   0.544   6.365 -0.3306 -0.6466  0.0944
13550TIP3   OH262140   4.153   1.600  13.446  0.2733  0.0284  0.1365
13550TIP3    H162141   4.123   1.690  13.439 -1.3899 -0.4809  0.4584
13550TIP3    H262142   4.196   1.583  13.362 -1.0898  0.5247 -0.6914
13551TIP3   OH262143   2.631   4.379   5.845 -0.1550 -0.7592  0.8932
13551TIP3    H162144   2.667   4.466   5.825  0.9188 -1.1327  1.1032
13551TIP3    H262145   2.560   4.396   5.906 -0.0454 -0.0102  0.8238
13552TIP3   OH262146   4.141   5.090   5.902  0.0813 -0.0537  0.2505
13552TIP3    H162147   4.228   5.094   5.862 -0.1196 -0.1565 -0.2000
13552TIP3    H262148   4.151   5.028   5.974  1.5464  3.2308  3.1314
13553TIP3   OH262149   0.073   2.185  16.144  0.4663  0.4633 -0.2210
13553TIP3    H162150   0.047   2.272  16.174  1.1259 -0.0203  1.9075
13553TIP3    H262151   0.042   2.126  16.212  0.5003 -0.9458 -1.3762
13554TIP3   OH262152   4.636   4.702   4.802  0.4277  0.0472 -0.8259
13554TIP3    H162153   4.553   4.741   4.826  0.1770  0.5449 -2.4104
13554TIP3    H262154   4.613   4.630   4.743  1.0562 -0.5984 -0.3050
13555TIP3   OH262155   6.169   2.267  16.305  0.6439  0.1725 -0.1941
13555TIP3    H162156   6.162   2.255  16.399 -0.1386  0.0201 -0.2596
13555TIP3    H262157   6.156   2.361  16.291  1.4024  0.2932 -0.1027
13556TIP3   OH262158   2.860   4.543  10.669 -0.1599 -0.8344 -0.0956
13556TIP3    H162159   2.919   4.468  10.668  0.7698 -0.1115 -0.2599
13556TIP3    H262160   2.910   4.614  10.631 -0.1873  0.4881  2.1768
13557TIP3   OH262161   0.359   0.582   0.836  0.2178 -0.1262  0.8139
13557TIP3    H162162   0.338   0.668   0.873  0.3694  0.5597 -0.6360
13557TIP3    H262163   0.397   0.601   0.751 -1.1525 -1.6611 -0.2110
13558TIP3   OH262164   2.655   1.266  11.880 -0.0667  0.2638 -0.0265
13558TIP3    H162165   2.696   1.288  11.796 -0.7126  1.1745 -0.1204
13558TIP3    H262166   2.614   1.348  11.909 -2.6284 -0.7803 -0.3987
13559TIP3   OH262167   1.107   2.859  15.070  0.3364  0.6575 -0.0397
13559TIP3    H162168   1.164   2.927  15.034  2.1017 -0.6006  0.2504
13559TIP3    H262169   1.142   2.843  15.158  1.2726 -1.9856 -0.8006
13560TIP3   OH262170   2.000   2.326  12.850 -0.1057 -0.2605 -0.4516
13560TIP3    H162171   1.909   2.304  12.874  0.5402 -0.4965  2.1004
13560TIP3    H262172   2.044   2.241  12.846 -0.1476 -0.2175 -2.6084
13561TIP3   OH262173   0.157   3.489  10.746  0.0664 -0.1285  0.3767
13561TIP3    H162174   0.204   3.559  10.792 -2.6869  1.7008  0.6257
13561TIP3    H262175   0.138   3.525  10.660  0.2991 -1.3980 -0.2401
13562TIP3   OH262176   5.398   3.055   0.413  0.1776  0.2472 -0.3144
13562TIP3    H162177   5.385   3.076   0.506  1.6078  1.0609 -0.2589
13562TIP3    H262178   5.462   2.984   0.414 -0.9003 -0.7599 -0.6648
13563TIP3   OH262179   4.786   4.362  17.122 -0.0536  0.1950 -0.1306
13563TIP3    H162180   4.706   4.317  17.150 -0.2948  1.1729  0.8141
13563TIP3    H262181   4.857   4.306  17.152 -0.3585  0.1975  0.6165
13564TIP3   OH262182   5.206   1.853  12.879  0.0614 -0.7673 -0.0135
13564TIP3    H162183   5.240   1.808  12.802 -0.4925 -0.0378 -0.6959
13564TIP3    H262184   5.245   1.806  12.953  0.0836 -1.9062 -0.7116
13565TIP3   OH262185   2.402   3.764   3.276  0.1859 -0.2229 -0.0333
13565TIP3    H162186   2.430   3.708   3.348 -1.2896 -0.3180  0.4951
13565TIP3    H262187   2.361   3.839   3.318  2.9614  1.8154 -0.7064
13566TIP3   OH262188   6.369   5.604  15.998 -0.3478 -0.0269  0.6109
13566TIP3    H162189   6.462   5.625  15.987 -0.5091  0.5056  0.2347
13566TIP3    H262190   6.340   5.661  16.069 -0.5044  0.1619  0.3938
13567TIP3   OH262191   1.165   2.991  12.309 -0.2148  0.4573  0.1662
13567TIP3    H162192   1.084   3.008  12.260 -0.0149 -2.1341 -1.2498
13567TIP3    H262193   1.155   3.042  12.389 -2.2288  1.9847 -0.9381
13568TIP3   OH262194   2.667   2.004  16.525 -0.2359 -0.1014  0.7216
13568TIP3    H162195   2.600   1.943  16.555 -0.5011 -0.0197  0.2981
13568TIP3    H262196   2.750   1.959  16.543 -0.2394  0.8370  3.6584
13569TIP3   OH262197   1.063   3.406  14.675 -0.2538 -0.4299  0.6243
13569TIP3    H162198   0.971   3.391  14.652 -0.4221 -0.0468  1.0048
13569TIP3    H262199   1.111   3.397  14.593 -0.9150  1.6301 -0.0680
13570TIP3   OH262200   0.286   5.616  12.639  0.5507  0.1167  0.0019
13570TIP3    H162201   0.306   5.522  12.647 -0.8675 -0.1024  1.8385
13570TIP3    H262202   0.200   5.617  12.596  0.0109  0.4956  1.0731
13571TIP3   OH262203   0.356   4.193  12.569  0.0945  0.0391  0.2786
13571TIP3    H162204   0.447   4.166  12.585  1.0262  2.5739 -0.1675
13571TIP3    H262205   0.308   4.164  12.647  1.0899 -2.0238  0.1816
13572TIP3   OH262206   5.267   5.017  13.060  0.8771  0.2286 -0.4724
13572TIP3    H162207   5.240   5.027  12.969  0.5453  1.4174 -0.2555
13572TIP3    H262208   5.346   5.071  13.068 -0.1704  1.7259  0.3938
13573TIP3   OH262209   2.926   1.927  10.451  0.0366 -0.6835 -0.0186
13573TIP3    H162210   2.974   2.005  10.477 -0.0421 -1.5365  3.0566
13573TIP3    H262211   2.990   1.872  10.406  1.0591 -0.3461  0.9839
13574TIP3   OH262212   2.867   5.461   2.128  0.5342 -0.2744 -0.1625
13574TIP3    H162213   2.826   5.546   2.142  1.0681  0.0971 -0.8002
13574TIP3    H262214   2.885   5.428   2.216  2.8400  1.5185  0.1234
13575TIP3   OH262215   6.200   4.389  13.299 -0.5315 -0.0005  0.3518
13575TIP3    H162216   6.231   4.364  13.212 -0.8916  0.8341 -0.0336
13575TIP3    H262217   6.113   4.348  13.306 -0.0326 -1.0094  0.7875
13576TIP3   OH262218   0.294   0.740  10.909 -0.1880  0.5586 -0.3248
13576TIP3    H162219   0.308   0.649  10.885 -1.3023 -0.0925  1.3244
13576TIP3    H262220   0.203   0.758  10.884  0.1401  1.3649 -1.0104
13577TIP3   OH262221   5.251   2.847  14.302  0.3002 -0.1164 -0.2550
13577TIP3    H162222   5.285   2.779  14.360  0.0159 -0.5752 -0.6255
13577TIP3    H262223   5.253   2.926  14.355 -0.7637 -0.6860  0.6725
13578TIP3   OH262224   3.165   0.810  11.557 -0.0524 -0.1788  0.7014
13578TIP3    H162225   3.231   0.876  11.581  0.9043 -0.1377 -1.7603
13578TIP3    H262226   3.201   0.727  11.589  1.5106 -0.2261 -1.0181
13579TIP3   OH262227   2.474   5.391  14.063 -0.2997  0.4934  0.4779
13579TIP3    H162228   2.527   5.349  14.131  0.2773  0.5462  0.0784
13579TIP3    H262229   2.384   5.374  14.088 -0.1320 -2.0254 -0.2588
13580TIP3   OH262230   6.328   6.521  14.610  0.3271  0.0578  0.4640
13580TIP3    H162231   6.331   6.563  14.696  1.9528  0.6815  0.1347
13580TIP3    H262232   6.401   6.460  14.610  0.5803  0.3353 -0.5938
13581TIP3   OH262233   4.583   4.215  15.669 -0.9869 -0.0185  0.5226
13581TIP3    H162234   4.525   4.210  15.745 -1.2101  0.1970  0.3668
13581TIP3    H262235   4.592   4.124  15.640 -2.2570  0.0608 -0.2118
13582TIP3   OH262236   3.928   5.238   5.819  0.1537 -0.6062  0.3026
13582TIP3    H162237   3.920   5.332   5.831  0.0271 -0.7507  1.4338
13582TIP3    H262238   4.016   5.217   5.848  1.3033 -0.4673 -2.6737
13583TIP3   OH262239   6.272   2.158   4.519 -0.4238 -0.0692 -0.5561
13583TIP3    H162240   6.233   2.243   4.536  1.7642  1.1819 -1.3512
13583TIP3    H262241   6.207   2.095   4.550 -1.1215  1.8618  2.3446
13584TIP3   OH262242   2.016   5.158   4.998 -0.0710 -0.4524 -0.3054
13584TIP3    H162243   2.073   5.086   5.026  0.8307  0.4399  0.1972
13584TIP3    H262244   2.070   5.210   4.938 -0.3061  0.4651  0.2640
13585TIP3   OH262245   2.095   2.753  10.853 -0.0268  0.4622  0.2549
13585TIP3    H162246   2.189   2.759  10.873  0.0691  1.4515 -0.4075
13585TIP3    H262247   2.066   2.844  10.848 -0.0265  0.4404 -3.8832
13586TIP3   OH262248   4.582   5.209   2.599  0.0651 -0.3026  0.5915
13586TIP3    H162249   4.487   5.204   2.605  0.1807 -0.5005  3.3273
13586TIP3    H262250   4.608   5.124   2.563 -0.6682 -1.6866  3.0814
13587TIP3   OH262251   1.165   3.730  16.372  0.2575 -0.0593  0.3110
13587TIP3    H162252   1.182   3.640  16.399 -0.3407  0.1274  1.3676
13587TIP3    H262253   1.074   3.730  16.341  0.2550  0.1835  0.3131
13588TIP3   OH262254   3.034   4.616  12.205 -0.0582 -0.0525 -0.0258
13588TIP3    H162255   3.003   4.634  12.117  0.0393 -1.8992 -0.4837
13588TIP3    H262256   3.018   4.522  12.218  2.7313 -0.5241  0.7401
13589TIP3   OH262257   4.180   0.187   0.084  0.0235 -0.0616  0.4598
13589TIP3    H162258   4.178   0.179   0.179  1.6282 -0.1887  0.5082
13589TIP3    H262259   4.252   0.247   0.066  0.8465 -1.3485 -0.7236
13590TIP3   OH262260   5.799   1.799  14.278 -0.1683  0.1738 -0.0483
13590TIP3    H162261   5.844   1.725  14.319  2.1391  1.2570 -0.4676
13590TIP3    H262262   5.868   1.846  14.231 -2.0942  0.8632 -2.4016
13591TIP3   OH262263   3.103   1.435  16.225 -0.2232 -0.2398 -0.1953
13591TIP3    H162264   3.170   1.384  16.180  0.3990  1.6649 -1.5440
13591TIP3    H262265   3.140   1.451  16.312  0.4098 -0.4557 -0.4152
13592TIP3   OH262266   4.513   5.721   7.003  0.4617  0.9345  0.6747
13592TIP3    H162267   4.540   5.780   6.934  0.4930  0.0655 -0.0779
13592TIP3    H262268   4.430   5.684   6.972  1.1481 -0.4931  0.4393
13593TIP3   OH262269   4.519   6.381   5.416 -0.3929  0.0785 -0.3397
13593TIP3    H162270   4.495   6.452   5.358 -1.5498 -0.9830 -1.2050
13593TIP3    H262271   4.595   6.341   5.375 -0.6938 -0.1463 -0.6795
13594TIP3   OH262272   5.134   3.514  16.777 -0.1392  0.3073 -0.2820
13594TIP3    H162273   5.136   3.607  16.757  1.4833  0.4830  0.5518
13594TIP3    H262274   5.176   3.507  16.863  0.5015 -1.2710 -0.6913
13595TIP3   OH262275   6.267   3.141  16.794  0.1659 -0.8185  0.2829
13595TIP3    H162276   6.277   3.194  16.872 -1.5718 -0.9872  0.6775
13595TIP3    H262277   6.200   3.187  16.743 -1.0772 -2.3618  0.4409
13596TIP3   OH262278   5.383   0.855  12.290 -0.0428 -0.3370  0.1115
13596TIP3    H162279   5.478   0.848  12.280 -0.1018 -0.4361 -0.3808
13596TIP3    H262280   5.359   0.935  12.243 -0.0360  0.4426  1.3917
13597TIP3   OH262281   0.971   2.402  16.065  0.4488  0.7107 -0.0778
13597TIP3    H162282   1.059   2.381  16.095  0.0683 -0.5900  0.1704
13597TIP3    H262283   0.959   2.348  15.987 -0.6818 -0.3112  0.7717
13598TIP3   OH262284   0.859   0.521   5.247  0.6368  0.0149 -0.7048
13598TIP3    H162285   0.933   0.565   5.206  1.2414 -0.5456 -0.2323
13598TIP3    H262286   0.854   0.559   5.334 -0.0808  0.5529 -0.9684
13599TIP3   OH262287   3.758   3.077   5.456  0.1428 -0.4232  0.1214
13599TIP3    H162288   3.803   3.014   5.511 -0.1848 -0.6971  0.0754
13599TIP3    H262289   3.812   3.156   5.461  2.0795 -1.5105 -1.9929
13600TIP3   OH262290   1.880   2.090  11.151 -0.9522  0.2386 -0.0824
13600TIP3    H162291   1.932   2.118  11.227 -1.6747 -0.3610  0.6524
13600TIP3    H262292   1.913   2.002  11.132 -1.5497 -0.0637  0.2615
13601TIP3   OH262293   6.567   6.582  15.615  0.2840  0.3445 -0.2753
13601TIP3    H162294   6.489   6.542  15.578  1.1439 -0.4443 -1.2934
13601TIP3    H262295   6.613   6.510  15.658  1.2859  0.4287 -1.1621
13602TIP3   OH262296   1.317   4.822  14.917 -0.1433 -0.6870 -0.4862
13602TIP3    H162297   1.334   4.799  14.825 -0.5270 -0.6936 -0.5574
13602TIP3    H262298   1.222   4.818  14.925 -0.2590  1.0703 -0.5680
13603TIP3   OH262299   0.679   4.872  11.796  0.6545  0.4393  0.1488
13603TIP3    H162300   0.747   4.824  11.750 -0.3016 -0.7918 -0.0401
13603TIP3    H262301   0.598   4.849  11.751 -0.3482 -0.9308  2.4525
13604TIP3   OH262302   6.691   4.127   1.405  0.0730  0.8193  0.0522
13604TIP3    H162303   6.757   4.195   1.415 -0.6295  1.8540 -1.9079
13604TIP3    H262304   6.740   4.049   1.379  0.8385  0.6102  1.9640
13605TIP3   OH262305   0.794   4.887   5.050 -0.3810 -0.0915 -0.2285
13605TIP3    H162306   0.838   4.803   5.065 -0.1971 -0.0706 -0.6288
13605TIP3    H262307   0.849   4.951   5.096 -0.5094 -0.1833  0.0588
13606TIP3   OH262308   5.311   4.771   0.592 -0.1999  0.1427  0.0106
13606TIP3    H162309   5.233   4.735   0.633  0.6105 -0.0649  1.4192
13606TIP3    H262310   5.284   4.856   0.558 -0.6750  0.7488  1.8175
13607TIP3   OH262311   1.914   2.511   1.001  0.0456  0.1114 -0.2010
13607TIP3    H162312   1.953   2.597   0.985 -0.1526  0.3079  0.3192
13607TIP3    H262313   1.950   2.484   1.086 -1.1339  0.4268  0.4259
13608TIP3   OH262314   1.063   4.525  16.768 -0.4276 -0.0973 -0.4602
13608TIP3    H162315   1.146   4.535  16.815  0.1826 -4.0099 -0.3166
13608TIP3    H262316   0.996   4.558  16.828  0.7537 -0.2871  1.0152
13609TIP3   OH262317   5.659   6.531  12.809  0.4219 -0.2356 -0.6064
13609TIP3    H162318   5.565   6.544  12.796  0.3440  0.5837  0.5966
13609TIP3    H262319   5.675   6.557  12.900  2.0352  0.9752 -1.1650
13610TIP3   OH262320   5.798   6.268   4.172 -0.3333  0.2789  0.0101
13610TIP3    H162321   5.779   6.230   4.086 -0.4413  0.2511  0.0457
13610TIP3    H262322   5.742   6.345   4.178  0.5163  0.9429 -0.4179
13611TIP3   OH262323   5.897   4.637   4.887  0.1771  0.6925 -0.2674
13611TIP3    H162324   5.898   4.642   4.792 -0.6412 -0.8328 -0.4066
13611TIP3    H262325   5.889   4.543   4.905  3.1719  0.6354  1.3679
13612TIP3   OH262326   2.605   6.393   0.728  0.2383 -0.1772  0.3401
13612TIP3    H162327   2.560   6.341   0.795  0.2395 -0.5188  0.0780
13612TIP3    H262328   2.663   6.331   0.684  0.9305  0.2511  0.6408
13613TIP3   OH262329   1.471   1.172  11.043  0.1806  0.8760 -0.2319
13613TIP3    H162330   1.477   1.120  10.963 -0.7572  0.7946 -0.2656
13613TIP3    H262331   1.482   1.263  11.013 -1.7888  1.0047 -0.7349
13614TIP3   OH262332   1.369   0.009   3.107  0.5202  0.0230 -0.2009
13614TIP3    H162333   1.324   0.047   3.182  0.1974 -0.8469  0.0558
13614TIP3    H262334   1.340  -0.082   3.105  1.6077 -0.3368 -0.5344
13615TIP3   OH262335   2.177   5.657   4.247  0.9423 -0.0629  0.4312
13615TIP3    H162336   2.138   5.604   4.178  0.7880  0.5489  0.0434
13615TIP3    H262337   2.144   5.620   4.328  0.5019 -0.2927  0.1455
13616TIP3   OH262338   2.082   3.192   0.725  0.4325 -0.1631 -0.3004
13616TIP3    H162339   2.030   3.147   0.659  1.5062 -1.3027 -0.4073
13616TIP3    H262340   2.038   3.171   0.808 -0.4395  0.5950 -0.5469
13617TIP3   OH262341   3.273   0.614   4.437 -0.5290  0.1228  0.0685
13617TIP3    H162342   3.268   0.591   4.344 -0.4681 -2.6106  0.6660
13617TIP3    H262343   3.367   0.623   4.454 -0.5971  3.0945 -0.5832
13618TIP3   OH262344   6.582   6.669  10.736  0.1351  0.1206  0.0578
13618TIP3    H162345   6.640   6.722  10.681 -0.2891 -0.7294 -1.2273
13618TIP3    H262346   6.512   6.641  10.678  0.7227 -2.4783  0.4898
13619TIP3   OH262347   3.926   3.569   4.037  0.4409 -0.7775  0.2356
13619TIP3    H162348   3.878   3.523   4.105  0.6411  0.9895  1.6612
13619TIP3    H262349   3.958   3.500   3.979 -0.1872 -2.3137  1.6285
13620TIP3   OH262350   6.686   2.441   1.934 -0.2279 -0.2008 -0.3965
13620TIP3    H162351   6.718   2.385   2.004  0.2297 -0.3799 -0.7476
13620TIP3    H262352   6.762   2.457   1.879 -0.9838 -1.7494 -2.0052
13621TIP3   OH262353   3.346   3.377   5.193 -0.0362  0.2348 -0.3674
13621TIP3    H162354   3.325   3.434   5.267 -0.5685  1.2424 -1.2492
13621TIP3    H262355   3.439   3.390   5.178  0.0069  0.2774 -0.0637
13622TIP3   OH262356   1.103   6.454   3.003  0.3056 -0.3312  0.0113
13622TIP3    H162357   1.066   6.369   2.980 -1.1897  0.2416  0.1847
13622TIP3    H262358   1.039   6.493   3.063  0.3509  1.4030 -1.0022
13623TIP3   OH262359   5.555   6.364   3.682 -0.5356 -0.4028  0.5889
13623TIP3    H162360   5.485   6.389   3.621  0.5885 -1.8014 -1.3791
13623TIP3    H262361   5.568   6.271   3.666  1.3833 -0.2974  1.3214
13624TIP3   OH262362   5.474   0.770   0.660  0.1942 -0.4598  0.2382
13624TIP3    H162363   5.480   0.824   0.581  0.5805  0.7848  1.0910
13624TIP3    H262364   5.551   0.713   0.657  0.2618 -0.3471 -0.2196
13625TIP3   OH262365   6.555   5.191   4.333  0.2155  0.0971  0.0676
13625TIP3    H162366   6.463   5.220   4.336  0.2204  0.0118  1.0518
13625TIP3    H262367   6.553   5.101   4.365  0.4418 -0.4752 -1.4144
13626TIP3   OH262368   6.345   1.221  14.429  0.7319  0.3791  0.3147
13626TIP3    H162369   6.354   1.126  14.424  1.2947  0.4479 -0.1234
13626TIP3    H262370   6.390   1.253  14.350 -3.3194  0.7779 -2.0905
13627TIP3   OH262371   3.328   6.537  15.220 -0.4216  0.1706 -0.3741
13627TIP3    H162372   3.247   6.559  15.172 -1.5036 -1.4813  0.6134
13627TIP3    H262373   3.302   6.467  15.280  2.2594 -2.1011 -1.6517
13628TIP3   OH262374   2.237   4.211  14.941  0.3170 -0.3133  0.2993
13628TIP3    H162375   2.174   4.188  14.873  1.7889 -0.8267 -0.9636
13628TIP3    H262376   2.224   4.305  14.955 -1.1104 -0.5228  0.5149
13629TIP3   OH262377   1.922   1.215  10.565  0.7552  0.3280  0.0263
13629TIP3    H162378   1.900   1.222  10.472 -0.1806 -0.6722  0.1551
13629TIP3    H262379   2.004   1.166  10.567  1.3933  1.3545 -0.3135
13630TIP3   OH262380   0.434   2.388   1.453 -0.1805 -0.0096 -0.3723
13630TIP3    H162381   0.511   2.442   1.469  0.5029 -0.8991 -0.5812
13630TIP3    H262382   0.360   2.445   1.474  0.5521  0.3137  1.6288
13631TIP3   OH262383   5.430   4.354  12.877  0.4294 -0.4136 -0.1313
13631TIP3    H162384   5.470   4.347  12.790  0.4294  0.4311 -0.2016
13631TIP3    H262385   5.479   4.423  12.921  1.3781 -1.8169  1.0813
13632TIP3   OH262386   6.008   4.666   2.678 -0.3139  0.0539 -0.5562
13632TIP3    H162387   5.981   4.732   2.742 -0.7764 -1.8874  1.3812
13632TIP3    H262388   6.095   4.638   2.707 -0.2685 -0.4402 -1.1430
13633TIP3   OH262389   5.835   1.068  14.361 -0.3694  0.3010  0.2702
13633TIP3    H162390   5.830   1.145  14.418  1.3187 -0.3886  1.4345
13633TIP3    H262391   5.890   1.096  14.288  0.6725  0.1016  0.9475
13634TIP3   OH262392   1.811   3.579   3.317 -0.0701 -0.0059  0.0261
13634TIP3    H162393   1.878   3.530   3.363 -0.3387 -1.3850 -1.0051
13634TIP3    H262394   1.855   3.615   3.240 -0.1712  0.3500  0.1297
13635TIP3   OH262395   3.854   6.671  14.818  0.0372 -0.5373 -0.4405
13635TIP3    H162396   3.766   6.708  14.816 -0.5744 -1.8874  0.1433
13635TIP3    H262397   3.860   6.627  14.903  0.6155 -1.9534 -1.1746
13636TIP3   OH262398   4.132   6.536   3.657 -0.2447 -0.4447 -0.0470
13636TIP3    H162399   4.156   6.596   3.728  0.6350 -0.2440 -0.5043
13636TIP3    H262400   4.160   6.450   3.687  1.9679 -0.1003 -0.9407
13637TIP3   OH262401   0.269   3.818   1.317 -0.7771 -0.1020  0.4093
13637TIP3    H162402   0.257   3.911   1.332 -1.1888  0.0274 -0.6346
13637TIP3    H262403   0.230   3.776   1.393  0.6586  0.5869  1.5920
13638TIP3   OH262404   1.189   1.810  12.418 -0.0391  0.9333  0.2260
13638TIP3    H162405   1.104   1.825  12.460  0.2350 -1.1661  1.6994
13638TIP3    H262406   1.185   1.718  12.390  2.1180  0.4471  1.3295
13639TIP3   OH262407   4.239   0.171  15.556  0.4167 -0.4868  0.2107
13639TIP3    H162408   4.273   0.234  15.493  2.8475 -0.8595  1.0335
13639TIP3    H262409   4.228   0.221  15.637  0.3655 -0.6642  0.3142
13640TIP3   OH262410   5.597   0.116  13.294  0.0571  0.3289 -0.2242
13640TIP3    H162411   5.632   0.102  13.382  1.0696  2.2063 -0.2810
13640TIP3    H262412   5.648   0.189  13.259  0.7047 -1.2877 -2.9511
13641TIP3   OH262413   6.440   3.011   0.477 -0.6607  0.0161  0.4542
13641TIP3    H162414   6.348   2.984   0.477 -0.7044 -0.0768 -2.2731
13641TIP3    H262415   6.438   3.103   0.502 -1.5087  0.0596  0.2696
13642TIP3   OH262416   2.468   4.412  16.111 -0.4028 -0.3171  0.0161
13642TIP3    H162417   2.526   4.467  16.058  0.6285 -1.3789 -0.0156
13642TIP3    H262418   2.400   4.384  16.051 -1.4103  1.5436  0.2319
13643TIP3   OH262419   2.237   6.813  16.796  0.3865  0.2022  0.5067
13643TIP3    H162420   2.221   6.895  16.843 -1.2856  1.1613 -1.5521
13643TIP3    H262421   2.155   6.797  16.748  1.6043 -1.2479 -1.2142
13644TIP3   OH262422   6.173   6.626  15.686  0.1865  0.2799  0.4061
13644TIP3    H162423   6.168   6.652  15.594 -0.5354 -1.3122 -0.0395
13644TIP3    H262424   6.243   6.680  15.723  1.0609  0.3592 -1.2743
13645TIP3   OH262425   4.621   0.870  14.007  0.8309  0.1606 -0.1390
13645TIP3    H162426   4.619   0.850  14.101  1.2211 -1.1480 -0.3839
13645TIP3    H262427   4.566   0.948  13.998  2.6676  1.7660  1.5001
13646TIP3   OH262428   1.772   3.304  13.462 -0.3571  0.1723  0.6556
13646TIP3    H162429   1.805   3.221  13.495  0.3310  0.8097  1.6477
13646TIP3    H262430   1.833   3.329  13.393 -1.0341 -0.5234 -0.2138
13647TIP3   OH262431   6.823   1.237  13.164  0.1172  0.1458 -0.1890
13647TIP3    H162432   6.901   1.213  13.215 -0.0850  0.3839  0.2432
13647TIP3    H262433   6.834   1.331  13.146  0.7159 -0.1701 -1.5340
13648TIP3   OH262434   3.491   3.953  16.066  0.2310 -0.1380  0.2524
13648TIP3    H162435   3.551   4.016  16.104  0.9288  0.2007 -1.3146
13648TIP3    H262436   3.419   4.006  16.032  1.7043  0.1413 -2.7535
13649TIP3   OH262437   1.296   6.809   3.859  0.3055 -0.2057  0.2955
13649TIP3    H162438   1.237   6.883   3.847  0.6060 -0.3164 -2.7002
13649TIP3    H262439   1.240   6.732   3.852  0.2683 -0.3145  1.5439
13650TIP3   OH262440   3.483   3.483  16.068 -0.3600 -0.1998  0.0382
13650TIP3    H162441   3.495   3.563  16.118 -1.2464 -1.4020  2.3382
13650TIP3    H262442   3.542   3.491  15.994  0.8814  1.7817  1.1674
13651TIP3   OH262443   6.292   3.443  14.619 -0.0300  0.2401 -0.0222
13651TIP3    H162444   6.218   3.462  14.677  0.4570  0.5840  0.4876
13651TIP3    H262445   6.360   3.408  14.676  0.6569  1.1134 -0.2903
13652TIP3   OH262446   2.520   4.276   1.000  0.1860 -0.6108 -0.3592
13652TIP3    H162447   2.613   4.297   1.008 -0.2512  1.0049  0.9084
13652TIP3    H262448   2.491   4.259   1.089 -0.9927  0.1380 -0.5753
13653TIP3   OH262449   6.238   2.550   0.096 -0.3901 -0.2989  0.0474
13653TIP3    H162450   6.292   2.614   0.051  0.3460 -0.0570  1.2333
13653TIP3    H262451   6.218   2.484   0.029  0.1060  0.3731 -0.7861
13654TIP3   OH262452   1.595   1.536   0.884 -0.2391  0.1206  0.7489
13654TIP3    H162453   1.633   1.624   0.880 -0.6091  0.2339 -0.6902
13654TIP3    H262454   1.594   1.506   0.793  2.6913 -2.6032  1.4273
13655TIP3   OH262455   5.737   1.670   1.023 -0.3398 -0.1720  0.3374
13655TIP3    H162456   5.766   1.602   0.963 -0.3272  0.2426 -0.1341
13655TIP3    H262457   5.793   1.745   1.002 -1.5059  0.5330 -0.3461
13656TIP3   OH262458   5.641   3.558  13.789  0.1861  0.6594 -0.0286
13656TIP3    H162459   5.570   3.493  13.790  0.5424  0.2687  0.9679
13656TIP3    H262460   5.677   3.552  13.701  0.6673 -1.0158  0.2444
13657TIP3   OH262461   4.464   6.549   2.934 -0.8981 -0.0479  0.3129
13657TIP3    H162462   4.394   6.521   2.874 -0.5811 -0.8075  0.2748
13657TIP3    H262463   4.421   6.606   2.997 -1.2897  0.5761 -0.4954
13658TIP3   OH262464   1.230   5.071  14.204 -0.1345  0.0848  0.0935
13658TIP3    H162465   1.136   5.086  14.214 -0.4310 -1.3367 -0.3560
13658TIP3    H262466   1.271   5.138  14.259 -1.4183  0.4787  0.5995
13659TIP3   OH262467   5.405   4.407  14.543  0.6509  0.8301 -0.1626
13659TIP3    H162468   5.441   4.491  14.570 -0.2009  0.9926  0.4887
13659TIP3    H262469   5.467   4.343  14.578  0.8561  1.1484  0.0625
13660TIP3   OH262470   5.789   4.268   6.663 -0.1508 -0.3913  0.1308
13660TIP3    H162471   5.746   4.240   6.582  2.2248 -0.9371 -1.0537
13660TIP3    H262472   5.749   4.352   6.685 -2.4663 -1.3138 -0.2588
13661TIP3   OH262473   5.702   3.739  15.706  0.1949 -0.1974 -0.1000
13661TIP3    H162474   5.775   3.746  15.766  1.6294  0.1697 -1.8067
13661TIP3    H262475   5.654   3.821  15.716  0.5977 -0.0092  0.2900
13662TIP3   OH262476   4.925   3.086   3.581  0.0059 -0.1634 -0.6515
13662TIP3    H162477   4.925   3.143   3.504 -3.3442 -0.5030 -1.0576
13662TIP3    H262478   4.936   3.145   3.655 -0.6419  0.6837 -1.2152
13663TIP3   OH262479   0.670   3.663   2.209 -1.0171 -0.0184 -0.0147
13663TIP3    H162480   0.721   3.599   2.259 -0.6808  0.9227  0.8728
13663TIP3    H262481   0.612   3.703   2.274 -0.5435  1.2649 -0.3694
13664TIP3   OH262482   2.652   4.036   5.483  0.2567 -0.1548  0.0374
13664TIP3    H162483   2.573   4.090   5.475  0.5967  0.2189 -0.9624
13664TIP3    H262484   2.715   4.077   5.423  1.1959 -0.4796  0.7686
13665TIP3   OH262485   4.530   4.147  13.706  0.8328  0.0493 -0.2596
13665TIP3    H162486   4.576   4.067  13.733  1.7022  0.4203 -0.5935
13665TIP3    H262487   4.439   4.119  13.693  1.5886 -1.5483 -3.0610
13666TIP3   OH262488   4.549   5.412   1.719 -0.0590  0.4849 -0.5803
13666TIP3    H162489   4.640   5.394   1.742 -0.2183  0.8571  0.3749
13666TIP3    H262490   4.552   5.496   1.672 -0.1628  1.8529  1.7164
13667TIP3   OH262491   1.411   5.724  15.580 -0.2724  0.1856 -0.1179
13667TIP3    H162492   1.428   5.685  15.666  1.8759 -1.6754 -1.2793
13667TIP3    H262493   1.489   5.775  15.561 -0.1449 -0.4913 -1.5014
13668TIP3   OH262494   4.503   1.255   2.128 -0.5118 -0.0903 -0.4791
13668TIP3    H162495   4.511   1.350   2.125  0.2818  0.0316  2.2206
13668TIP3    H262496   4.409   1.238   2.120 -1.0344  1.2200  1.9491
13669TIP3   OH262497   5.544   0.962  13.517  0.1002  0.1780  0.4033
13669TIP3    H162498   5.542   1.055  13.494 -1.0590  0.2662  0.7732
13669TIP3    H262499   5.636   0.944  13.536  0.5115  0.9796 -0.7092
13670TIP3   OH262500   2.772   4.174  13.184 -0.3442 -0.0797  0.2003
13670TIP3    H162501   2.860   4.175  13.145 -0.8335 -0.6972 -0.9837
13670TIP3    H262502   2.736   4.089  13.158 -1.2485  0.1102  0.7979
13671TIP3   OH262503   2.901   5.569  14.124 -0.5629  0.0312  0.1613
13671TIP3    H162504   2.994   5.584  14.111 -0.5977 -0.1847 -0.3661
13671TIP3    H262505   2.862   5.579  14.037 -0.6833 -2.3028 -0.1111
13672TIP3   OH262506   5.320   2.197  13.092  0.0950 -0.5598 -0.2273
13672TIP3    H162507   5.346   2.174  13.181  2.5383 -2.1112 -1.2379
13672TIP3    H262508   5.287   2.114  13.056 -1.1994  0.1352 -0.6910
13673TIP3   OH262509   0.530   6.767   2.515  0.5387  0.3054 -0.2149
13673TIP3    H162510   0.508   6.844   2.567  0.5503 -0.1862  0.5417
13673TIP3    H262511   0.534   6.799   2.425  0.5841  1.1905  0.0897
13674TIP3   OH262512   3.116   5.168  11.375  0.7645  0.3818 -0.7935
13674TIP3    H162513   3.149   5.132  11.293 -0.4464 -0.6240 -0.8807
13674TIP3    H262514   3.127   5.097  11.439  1.4804  1.0706 -0.1191
13675TIP3   OH262515   3.848   5.774  16.760 -0.5806  0.2933  0.0660
13675TIP3    H162516   3.804   5.775  16.845  1.6268  1.6801  1.2984
13675TIP3    H262517   3.846   5.865  16.730 -2.6406 -0.3856 -2.1892
13676TIP3   OH262518   2.322   5.718  14.240 -0.1032  0.8587 -0.1917
13676TIP3    H162519   2.245   5.669  14.215 -0.6752  0.6897  1.7082
13676TIP3    H262520   2.371   5.730  14.159 -1.3395 -0.3817 -1.1636
13677TIP3   OH262521   1.178   1.657  13.955 -0.1958  0.5060  0.0540
13677TIP3    H162522   1.265   1.660  13.996  0.2804 -1.1403 -0.7520
13677TIP3    H262523   1.194   1.673  13.862 -0.5812 -0.9191 -0.2855
13678TIP3   OH262524   1.647   4.660  16.483 -0.0923  0.0096  0.0246
13678TIP3    H162525   1.740   4.656  16.506 -0.0940 -0.6384 -0.0674
13678TIP3    H262526   1.631   4.753  16.467  0.2497  0.2977  1.2101
13679TIP3   OH262527   4.537   1.198   5.419  0.9732 -0.2316 -0.0741
13679TIP3    H162528   4.587   1.118   5.406 -0.3317 -1.0512 -0.1983
13679TIP3    H262529   4.519   1.230   5.331 -0.9345 -1.3865 -0.1622
13680TIP3   OH262530   2.033   6.764  11.345  0.3137 -0.1812  0.0051
13680TIP3    H162531   2.003   6.846  11.384 -2.8302 -1.5363  0.7874
13680TIP3    H262532   2.044   6.705  11.419 -0.9084 -1.4141 -0.7553
13681TIP3   OH262533   6.127   6.546  13.541  0.0349 -0.5817 -0.1843
13681TIP3    H162534   6.210   6.556  13.587  1.2468  0.4422 -2.4442
13681TIP3    H262535   6.065   6.598  13.593  1.4233  0.8587  0.1305
13682TIP3   OH262536   1.301   0.827  16.412 -0.1064 -0.0887  0.0389
13682TIP3    H162537   1.335   0.915  16.398 -0.4924 -0.0769 -0.9048
13682TIP3    H262538   1.299   0.787  16.325 -0.8009 -0.7043  0.3212
13683TIP3   OH262539   4.515   6.009   0.302  0.2743 -0.7744 -0.0034
13683TIP3    H162540   4.607   6.034   0.313  0.4696 -1.0313 -0.9701
13683TIP3    H262541   4.484   5.992   0.391  1.7632 -2.7356  0.2149
13684TIP3   OH262542   0.339   3.461   1.019  0.7448  0.5435 -0.4495
13684TIP3    H162543   0.304   3.536   0.971 -2.8450  0.2751  1.4263
13684TIP3    H262544   0.290   3.386   0.986  1.1471 -0.2931  0.7748
13685TIP3   OH262545   6.303   6.291   1.527 -0.2263 -0.4261 -0.1490
13685TIP3    H162546   6.370   6.245   1.577  1.5203  0.6741 -1.3736
13685TIP3    H262547   6.229   6.299   1.587 -0.1353 -3.5673  0.5503
13686TIP3   OH262548   1.133   4.050   3.315  0.3227 -0.6400 -0.4284
13686TIP3    H162549   1.122   4.141   3.287  2.3499 -1.0474 -2.9113
13686TIP3    H262550   1.045   4.021   3.339 -0.8556  1.2161 -2.1946
13687TIP3   OH262551   5.806   0.036  14.907 -0.1032  0.0364 -0.3900
13687TIP3    H162552   5.776   0.112  14.957  0.6446  0.7180 -0.9560
13687TIP3    H262553   5.900   0.030  14.927 -0.5166 -2.0926  1.4103
13688TIP3   OH262554   6.198   0.645   5.651  0.3707 -0.0594  0.4221
13688TIP3    H162555   6.229   0.642   5.560 -0.9272 -2.8292 -0.0382
13688TIP3    H262556   6.269   0.687   5.699  0.6638  2.4465 -1.9778
13689TIP3   OH262557   0.553   4.839  13.096  0.2446 -0.2640  0.0062
13689TIP3    H162558   0.594   4.862  13.013  0.2227 -3.2079 -0.9537
13689TIP3    H262559   0.619   4.788  13.142  0.3583  1.5795  1.9880
13690TIP3   OH262560   0.062   3.472  12.018  0.0462 -0.0927  0.1964
13690TIP3    H162561   0.010   3.436  12.090  0.8687  1.7969  1.8316
13690TIP3    H262562   0.027   3.560  12.005  1.7913  0.6569  0.3026
13691TIP3   OH262563   5.420   4.467  15.636 -0.0277 -0.0372  0.0900
13691TIP3    H162564   5.422   4.444  15.729 -1.0571  0.5753  0.2815
13691TIP3    H262565   5.368   4.547  15.632  0.0084 -0.0503 -1.0219
13692TIP3   OH262566   1.118   3.570  10.924  0.7967 -0.3774  0.3230
13692TIP3    H162567   1.049   3.504  10.932  0.1726  0.1298 -0.7520
13692TIP3    H262568   1.096   3.619  10.845  0.6829  1.7750  1.6213
13693TIP3   OH262569   0.327   2.531   4.886 -0.1830 -0.2116  0.0999
13693TIP3    H162570   0.323   2.438   4.867  1.0131 -0.5408  1.3070
13693TIP3    H262571   0.239   2.554   4.915 -0.4623 -0.9710 -0.1375
13694TIP3   OH262572   0.403   4.333  16.094  0.3926  0.1341 -0.0630
13694TIP3    H162573   0.386   4.239  16.088 -0.7817  0.4313 -1.8272
13694TIP3    H262574   0.384   4.367  16.007  1.2344  1.9583  0.4209
13695TIP3   OH262575   6.750   1.586  16.483  0.7144  0.6112  0.1828
13695TIP3    H162576   6.792   1.577  16.397  0.4813  0.0783  0.1188
13695TIP3    H262577   6.719   1.498  16.503 -0.3472  0.9897  0.2473
13696TIP3   OH262578   0.888   2.929   3.036  0.0753  0.0270  0.1666
13696TIP3    H162579   0.842   2.846   3.049  1.4823 -0.9165 -0.5777
13696TIP3    H262580   0.819   2.994   3.027 -1.0465 -0.9580  1.4180
13697TIP3   OH262581   0.147   1.191  15.555  0.0726 -0.2693  0.0413
13697TIP3    H162582   0.225   1.155  15.514 -0.2428  0.8602 -1.6556
13697TIP3    H262583   0.076   1.176  15.492 -0.5490  1.0307  0.3811
13698TIP3   OH262584   6.084   3.031  16.483 -0.0927 -0.5320  0.3407
13698TIP3    H162585   6.001   2.983  16.478 -0.9812  0.9512  0.2938
13698TIP3    H262586   6.070   3.096  16.552  0.1301  1.3125 -1.2482
13699TIP3   OH262587   2.680   0.870   1.961 -0.3413  0.2510 -0.7227
13699TIP3    H162588   2.731   0.815   2.022 -0.9190  0.9466  0.4196
13699TIP3    H262589   2.590   0.862   1.992 -0.4828  1.5311 -0.7684
13700TIP3   OH262590   4.906   0.961   4.693 -0.0734 -0.7342 -0.0491
13700TIP3    H162591   4.897   0.973   4.787  0.9581  1.9890 -0.2266
13700TIP3    H262592   5.000   0.951   4.679 -0.3377 -3.0994 -0.6802
13701TIP3   OH262593   2.439   0.649   3.169 -0.6208  0.2141 -0.1826
13701TIP3    H162594   2.479   0.704   3.102 -0.5502 -0.0506 -0.3600
13701TIP3    H262595   2.513   0.600   3.207 -0.9214 -1.4637 -1.5940
13702TIP3   OH262596   5.329   2.268   3.645 -0.4065 -0.2424  0.0922
13702TIP3    H162597   5.399   2.221   3.600 -1.0875 -0.4721 -0.7640
13702TIP3    H262598   5.372   2.344   3.685  0.3622 -0.5064 -0.2236
13703TIP3   OH262599   5.887   0.938  16.617  0.9486 -0.2923 -0.1849
13703TIP3    H162600   5.967   0.896  16.649  1.6095  2.3050  1.9771
13703TIP3    H262601   5.894   1.029  16.647 -2.2789  0.3368 -0.9285
13704TIP3   OH262602   0.127   2.270  15.111  0.0740 -0.8017  0.5935
13704TIP3    H162603   0.128   2.365  15.112  1.3472 -0.7849  2.1579
13704TIP3    H262604   0.035   2.246  15.107 -0.2351  0.4808 -0.3659
13705TIP3   OH262605   3.554   4.575  16.303  0.1237 -0.1381  0.5492
13705TIP3    H162606   3.560   4.652  16.360  1.2397 -0.1257  0.4392
13705TIP3    H262607   3.544   4.501  16.363  1.3411 -0.1309  0.7856
13706TIP3   OH262608   6.749   3.116  13.812  0.1529  0.0197 -0.0941
13706TIP3    H162609   6.779   3.206  13.798 -0.5469  0.4205  0.8676
13706TIP3    H262610   6.793   3.065  13.744  1.0908  0.9748 -0.2250
13707TIP3   OH262611   0.498   4.885   1.806  0.2096 -0.0940 -0.0109
13707TIP3    H162612   0.431   4.908   1.742 -0.7943 -0.5113  0.8566
13707TIP3    H262613   0.579   4.880   1.755 -0.4745  0.0509 -1.1522
13708TIP3   OH262614   5.706   4.738  14.928  0.6267  0.6258  0.0432
13708TIP3    H162615   5.612   4.740  14.944  0.8103  1.2732  1.1179
13708TIP3    H262616   5.714   4.751  14.833 -0.4053 -1.1576 -0.3308
13709TIP3   OH262617   5.805   4.188   0.044  0.4246  0.1839  0.2467
13709TIP3    H162618   5.855   4.159   0.120  0.2165  0.6446  0.5654
13709TIP3    H262619   5.731   4.128   0.039  0.0758  0.5485  0.8163
13710TIP3   OH262620   6.115   1.459  16.700 -0.8419  0.0822  0.4198
13710TIP3    H162621   6.209   1.445  16.695 -0.8094  0.2718  0.4813
13710TIP3    H262622   6.094   1.509  16.621 -0.8078  0.4797  0.6572
13711TIP3   OH262623   6.405   4.295  12.477 -0.8566  0.2429 -0.3573
13711TIP3    H162624   6.358   4.221  12.440 -2.1051  0.8726 -0.0759
13711TIP3    H262625   6.433   4.347  12.402  0.4650 -0.7310 -0.5852
13712TIP3   OH262626   0.814   4.960  15.913  0.4218  0.4189  0.2023
13712TIP3    H162627   0.829   4.980  16.006 -0.5583 -1.2626  0.7648
13712TIP3    H262628   0.752   5.028  15.884  1.6075  1.6433  0.4321
13713TIP3   OH262629   0.886   1.020   6.347  0.2463 -0.2327 -0.1765
13713TIP3    H162630   0.953   0.979   6.292  1.0650  1.0836 -0.1923
13713TIP3    H262631   0.883   1.111   6.318 -1.8935 -0.3481 -0.4937
13714TIP3   OH262632   1.454   1.247  15.914 -0.3919 -0.6723 -0.0307
13714TIP3    H162633   1.540   1.214  15.937 -0.5340 -1.3660 -0.4651
13714TIP3    H262634   1.462   1.342  15.919  0.2770 -0.7466  0.3459
13715TIP3   OH262635   5.207   5.024   3.762 -0.3955  0.1911 -0.0659
13715TIP3    H162636   5.139   4.961   3.737 -0.1707 -0.2977  0.5456
13715TIP3    H262637   5.256   5.039   3.682  0.2787 -1.3159  0.0506
13716TIP3   OH262638   0.366   6.530  13.344 -0.4979  0.3188 -0.1923
13716TIP3    H162639   0.368   6.450  13.397  1.1726 -1.8661 -3.2218
13716TIP3    H262640   0.427   6.590  13.388  0.2271 -1.0770  0.7824
13717TIP3   OH262641   6.803   6.576  11.821  0.5957  0.3780  0.2443
13717TIP3    H162642   6.857   6.655  11.815  1.8440 -0.4868 -0.1633
13717TIP3    H262643   6.853   6.509  11.775  0.4533 -1.1458  2.1880
13718TIP3   OH262644   4.130   1.048   4.306 -0.1903 -0.6613 -0.7543
13718TIP3    H162645   4.061   1.105   4.339  0.9913  0.5918 -0.3347
13718TIP3    H262646   4.114   1.043   4.212  1.1380  2.5936 -1.2821
13719TIP3   OH262647   1.351   1.482   5.874 -0.0166 -0.6422  0.7188
13719TIP3    H162648   1.364   1.527   5.790  1.2368  0.9861  1.7273
13719TIP3    H262649   1.410   1.407   5.871 -1.5329 -1.8535 -0.6639
13720TIP3   OH262650   1.891   0.246   5.504  0.5675 -0.0409  0.1315
13720TIP3    H162651   1.878   0.217   5.413  0.4248 -1.7059  0.6566
13720TIP3    H262652   1.896   0.341   5.498  1.7300 -0.1655 -1.7901
13721TIP3   OH262653   1.235   2.420  14.646  0.0705 -0.3157 -0.3399
13721TIP3    H162654   1.156   2.410  14.593  0.2352 -0.7854 -0.5075
13721TIP3    H262655   1.212   2.485  14.712 -0.0745  0.4175 -1.1038
13722TIP3   OH262656   4.383   6.755   4.777  0.4226  0.2352 -0.1467
13722TIP3    H162657   4.315   6.712   4.725 -0.8284 -0.4755  1.9260
13722TIP3    H262658   4.386   6.845   4.745 -1.0998  0.1198 -0.6837
13723TIP3   OH262659   5.373   0.368  12.674  0.4764 -0.7657 -0.3292
13723TIP3    H162660   5.295   0.407  12.633  0.5536  2.2520  2.0289
13723TIP3    H262661   5.446   0.404  12.624  0.4979  1.6741  1.2510
13724TIP3   OH262662   3.234   4.271   3.164  0.8856  0.0345 -0.2704
13724TIP3    H162663   3.230   4.191   3.112  0.6517 -1.5986  2.0959
13724TIP3    H262664   3.309   4.258   3.222 -0.2787  0.6356  1.4632
13725TIP3   OH262665   0.038   2.180  13.204 -0.0300  0.0222  0.0000
13725TIP3    H162666  -0.050   2.218  13.215  0.6141  1.6692 -0.2400
13725TIP3    H262667   0.028   2.089  13.231 -1.7247  0.2727  0.3559
13726TIP3   OH262668   5.479   4.073   3.762  0.0823  0.3912  0.1084
13726TIP3    H162669   5.414   4.138   3.787  1.4349  1.9654 -0.3227
13726TIP3    H262670   5.557   4.095   3.812  1.4413  0.8665 -2.0513
13727TIP3   OH262671   2.901   4.791  12.988  0.0937 -0.4183  0.2164
13727TIP3    H162672   2.933   4.881  12.985 -1.4440  0.1454  0.2478
13727TIP3    H262673   2.968   4.744  13.037 -1.2525  1.6624  4.4939
13728TIP3   OH262674   5.039   6.823  15.970 -0.5743 -0.3476 -0.0721
13728TIP3    H162675   5.102   6.785  15.908 -0.4239 -0.3185  0.0616
13728TIP3    H262676   5.035   6.759  16.041 -2.0495 -1.2392 -0.8952
13729TIP3   OH262677   6.426   0.324   5.509  0.3169  0.2455  0.0278
13729TIP3    H162678   6.494   0.376   5.552  0.7890 -0.6831  0.4286
13729TIP3    H262679   6.470   0.284   5.434 -0.3423  1.3439 -0.9829
13730TIP3   OH262680   1.253   6.668  16.078  0.3768  0.2964 -0.1508
13730TIP3    H162681   1.337   6.672  16.123 -0.4991  1.6942  1.4749
13730TIP3    H262682   1.219   6.581  16.096  0.8137  0.2477  0.4580
13731TIP3   OH262683   2.938   2.233   3.693  0.2440 -0.0278  0.3731
13731TIP3    H162684   3.006   2.219   3.759  0.5433 -1.2384 -0.1581
13731TIP3    H262685   2.954   2.164   3.628 -1.6232 -0.4715  0.3488
13732TIP3   OH262686   4.726   4.631  11.580 -0.2498  0.7721 -0.2537
13732TIP3    H162687   4.746   4.540  11.600 -2.6922 -0.0471 -1.1553
13732TIP3    H262688   4.806   4.665  11.539  0.1195 -1.5533 -1.6440
13733TIP3   OH262689   3.401   3.317   3.174  0.3627  0.4180  0.2279
13733TIP3    H162690   3.332   3.279   3.120  2.2070 -0.4947 -1.6130
13733TIP3    H262691   3.380   3.410   3.179 -1.2880  0.0697  0.2263
13734TIP3   OH262692   2.302   2.140   3.436  0.1297  0.0112 -0.2881
13734TIP3    H162693   2.309   2.105   3.347 -1.0305  0.1943 -0.4596
13734TIP3    H262694   2.270   2.230   3.424 -2.3007 -0.7102  0.4048
13735TIP3   OH262695   6.085   3.040  13.561 -0.1517  0.3056 -0.1138
13735TIP3    H162696   6.096   3.034  13.656 -0.5204 -2.1681 -0.1512
13735TIP3    H262697   5.991   3.053  13.548 -0.5974 -2.3554 -0.1079
13736TIP3   OH262698   3.842   3.228  13.731 -0.8488 -0.0474  0.0732
13736TIP3    H162699   3.805   3.260  13.649  1.0253  1.1885 -0.3724
13736TIP3    H262700   3.937   3.231  13.717 -0.4601  0.5158  2.3719
13737TIP3   OH262701   4.763   4.428   5.979  0.1238  0.5745 -0.2149
13737TIP3    H162702   4.737   4.336   5.973 -0.3731  0.6098  1.0229
13737TIP3    H262703   4.833   4.438   5.915 -0.3226 -0.4759 -0.8977
13738TIP3   OH262704   6.254   4.563   3.285  0.3468  0.3722 -0.7443
13738TIP3    H162705   6.217   4.546   3.372 -0.7715 -0.2874 -1.3235
13738TIP3    H262706   6.349   4.553   3.297  0.1634 -0.3417  0.2694
13739TIP3   OH262707   3.620   2.455   4.644  0.3315  0.3437 -0.4141
13739TIP3    H162708   3.542   2.503   4.614  0.4128  1.5407  1.1698
13739TIP3    H262709   3.585   2.374   4.682 -0.2403  1.1644  0.8726
13740TIP3   OH262710   6.819   3.319  11.187  0.1108 -0.0986  0.4561
13740TIP3    H162711   6.896   3.264  11.179  0.0796 -0.1191  0.2921
13740TIP3    H262712   6.852   3.401  11.224  0.6543  0.8229 -1.8638
13741TIP3   OH262713   5.046   3.134   1.596 -0.1355  0.1569 -0.0653
13741TIP3    H162714   5.030   3.147   1.503 -0.3330  0.8181  0.0529
13741TIP3    H262715   5.098   3.054   1.601 -0.8131 -0.3235 -0.6792
13742TIP3   OH262716   3.481   2.650  14.920  0.2624  0.2211  0.2917
13742TIP3    H162717   3.490   2.599  15.000  0.9172 -1.5010 -0.8214
13742TIP3    H262718   3.545   2.721  14.929 -0.0516  0.3653  1.5029
13743TIP3   OH262719   1.453   5.502  12.962 -0.8197 -0.8278  0.1924
13743TIP3    H162720   1.400   5.545  12.896 -1.3787 -1.9455 -0.1137
13743TIP3    H262721   1.466   5.413  12.928  1.8800 -0.4177 -0.1174
13744TIP3   OH262722   4.964   1.338  16.840 -0.0878  0.0265  0.3987
13744TIP3    H162723   4.895   1.322  16.905 -1.6585  0.3425 -1.1252
13744TIP3    H262724   5.017   1.408  16.879  0.3630 -1.2712  2.2803
13745TIP3   OH262725   0.712   1.897   4.373  0.1756  0.6492  0.0216
13745TIP3    H162726   0.782   1.845   4.411  0.1823  1.8319  1.7502
13745TIP3    H262727   0.701   1.970   4.434 -4.5142 -0.9157  1.4516
13746TIP3   OH262728   5.980   4.629  12.235  0.0756 -0.1602  0.7307
13746TIP3    H162729   6.038   4.620  12.311  0.5176  0.7511  0.5157
13746TIP3    H262730   5.940   4.715  12.247  0.0664 -0.0600 -0.0168
13747TIP3   OH262731   0.743   0.668  10.415  0.2195 -0.0178  0.6298
13747TIP3    H162732   0.838   0.671  10.422  0.3293 -0.3231 -0.4962
13747TIP3    H262733   0.723   0.576  10.397 -0.3219 -0.0308  1.2964
13748TIP3   OH262734   1.932   2.833  11.516  0.4992  0.3443 -0.0763
13748TIP3    H162735   1.854   2.888  11.522  0.7031  0.5097  1.4971
13748TIP3    H262736   1.899   2.744  11.502  0.0786  0.5555 -0.4313
13749TIP3   OH262737   2.484   5.777  16.652 -0.1529 -0.0280 -0.2161
13749TIP3    H162738   2.462   5.850  16.710  0.0624 -0.4462  0.4074
13749TIP3    H262739   2.470   5.699  16.706 -0.4889 -0.4498 -0.9092
13750TIP3   OH262740   6.554   6.520   0.906  0.0068 -0.1402 -0.2761
13750TIP3    H162741   6.474   6.571   0.914  0.4310  1.0417 -2.5764
13750TIP3    H262742   6.550   6.457   0.978 -1.1095  2.3411  2.0206
13751TIP3   OH262743   3.128   6.702  15.805 -0.7722 -0.1664 -0.0767
13751TIP3    H162744   3.175   6.619  15.795 -1.5718 -0.6194 -0.1251
13751TIP3    H262745   3.189   6.758  15.854  0.6064 -0.0682 -1.8055
13752TIP3   OH262746   2.845   0.359  14.408 -0.2772  0.1759  0.2895
13752TIP3    H162747   2.882   0.391  14.491 -0.5905  1.4182 -0.0390
13752TIP3    H262748   2.770   0.416  14.391 -0.0280  0.1459 -1.0179
13753TIP3   OH262749   2.672   4.398   0.371  0.0668 -0.4375 -0.4369
13753TIP3    H162750   2.634   4.457   0.307  0.1121  0.8147  0.6429
13753TIP3    H262751   2.673   4.312   0.328 -3.1121 -0.3703 -0.8693
13754TIP3   OH262752   6.461   0.603  11.292 -0.4635 -0.2514 -0.1128
13754TIP3    H162753   6.443   0.521  11.338 -0.1601 -0.0516  0.3744
13754TIP3    H262754   6.548   0.590  11.253 -1.5374 -1.1775 -2.3742
13755TIP3   OH262755   5.759   6.450   3.385  0.1668  0.0425 -0.0813
13755TIP3    H162756   5.710   6.381   3.340 -2.7062  0.0681  2.6204
13755TIP3    H262757   5.828   6.405   3.432 -0.6640 -0.7956  0.3544
13756TIP3   OH262758   1.494   5.342  13.949 -0.5422 -0.1329 -0.8088
13756TIP3    H162759   1.556   5.269  13.956  1.5512  1.3523 -2.5703
13756TIP3    H262760   1.544   5.419  13.978 -2.0024  0.9435 -1.0424
13757TIP3   OH262761   0.798   5.401   5.503  0.2240 -0.3798 -0.1614
13757TIP3    H162762   0.744   5.434   5.574  0.2975 -1.1314  0.2641
13757TIP3    H262763   0.874   5.362   5.547  0.7681  0.0364 -0.7107
13758TIP3   OH262764   2.126   6.822  11.612 -0.0733 -0.2008 -0.4070
13758TIP3    H162765   2.089   6.806  11.699 -0.4114 -3.5876 -1.0586
13758TIP3    H262766   2.204   6.767  11.609  0.2798  0.3393 -2.0534
13759TIP3   OH262767   6.179   5.401   3.737 -0.4324  0.9926  0.3851
13759TIP3    H162768   6.186   5.459   3.661  1.1906  0.0868 -0.2235
13759TIP3    H262769   6.246   5.431   3.797  0.0128  0.1488  0.3302
13760TIP3   OH262770   5.893   1.829   0.404 -0.1195  0.0862  0.3924
13760TIP3    H162771   5.860   1.909   0.445  1.0454  0.0414  1.4819
13760TIP3    H262772   5.817   1.791   0.361 -0.8385  1.4356  0.4280
13761TIP3   OH262773   1.854   5.360  16.171 -0.2866  0.1478  0.2882
13761TIP3    H162774   1.809   5.286  16.131 -2.5592  2.0230 -0.8985
13761TIP3    H262775   1.824   5.362  16.261  0.5554 -0.8971  0.6092
13762TIP3   OH262776   4.240   3.588  15.923  0.4288  0.4349 -0.0097
13762TIP3    H162777   4.231   3.537  16.003 -0.4031 -0.2669 -0.5259
13762TIP3    H262778   4.272   3.526  15.858 -0.5737  0.5517 -0.6420
13763TIP3   OH262779   6.097   1.800   1.369 -0.4312  0.2618 -0.0856
13763TIP3    H162780   6.035   1.736   1.402  0.3558  1.0051  3.2214
13763TIP3    H262781   6.052   1.884   1.378  0.5725  0.6929  1.3307
13764TIP3   OH262782   2.770   5.429  15.452 -0.4163 -0.8108  0.3566
13764TIP3    H162783   2.838   5.420  15.518  1.3166  2.7460 -0.6589
13764TIP3    H262784   2.693   5.456  15.500  0.5010  0.6076  1.1029
13765TIP3   OH262785   4.407   1.551  14.597 -0.2208  0.0149  0.0413
13765TIP3    H162786   4.379   1.637  14.629  0.7712  0.3528  0.0286
13765TIP3    H262787   4.377   1.489  14.664 -0.9603  0.3588  0.0357
13766TIP3   OH262788   3.720   5.418  16.958 -0.0645  0.1328  0.3393
13766TIP3    H162789   3.707   5.468  16.877 -0.3042  1.3130  1.0777
13766TIP3    H262790   3.796   5.363  16.940  1.3442  2.0577  0.0474
13767TIP3   OH262791   0.898   5.354  12.090  0.5737 -0.1530 -0.3548
13767TIP3    H162792   0.883   5.397  12.006  0.6858 -0.8068 -0.7137
13767TIP3    H262793   0.993   5.346  12.096  0.7865  2.3937  1.1181
13768TIP3   OH262794   3.389   2.183   0.952 -0.0340 -0.6617 -0.2068
13768TIP3    H162795   3.430   2.103   0.917  2.5856 -0.6025  2.3239
13768TIP3    H262796   3.447   2.253   0.924  1.1078 -0.4212  2.4556
13769TIP3   OH262797   2.925   0.467   0.621 -0.3962  0.0723 -0.0584
13769TIP3    H162798   2.839   0.508   0.621 -1.5296 -2.1145 -0.9233
13769TIP3    H262799   2.934   0.429   0.709 -0.3169  0.3069  0.0342
13770TIP3   OH262800   3.891   4.306   1.732  0.1898 -0.5625 -0.1518
13770TIP3    H162801   3.860   4.262   1.652 -0.0147 -1.1483  0.2396
13770TIP3    H262802   3.971   4.259   1.755  1.0368  0.5247 -0.7930
13771TIP3   OH262803   4.174   2.455  16.309  0.5069  0.1876  0.3419
13771TIP3    H162804   4.189   2.403  16.230 -0.4815  0.0500  0.2256
13771TIP3    H262805   4.079   2.456  16.318  0.6099  0.2298  1.5177
13772TIP3   OH262806   5.884   2.216  14.142  0.5918  0.4513  0.3560
13772TIP3    H162807   5.857   2.300  14.179 -2.1322 -1.7060  4.0431
13772TIP3    H262808   5.807   2.185  14.094  1.9694  0.4392 -1.9919
13773TIP3   OH262809   4.972   0.662  16.766 -0.1691 -0.2137  0.0553
13773TIP3    H162810   4.888   0.631  16.799  0.7180 -1.0471  1.6344
13773TIP3    H262811   4.968   0.757  16.776 -0.0805 -0.3998  2.3014
13774TIP3   OH262812   5.564   3.932  13.463  0.5521  0.1429 -0.0533
13774TIP3    H162813   5.603   3.964  13.545 -0.1175  2.3655 -0.5445
13774TIP3    H262814   5.601   3.988  13.395  0.1750 -0.8860 -1.1447
13775TIP3   OH262815   6.417   5.447  14.574  0.0980  0.5216  0.0866
13775TIP3    H162816   6.353   5.381  14.549 -0.7586  1.3799 -0.0763
13775TIP3    H262817   6.437   5.493  14.492 -0.3698  1.3468  0.4255
13776TIP3   OH262818   0.876   1.759  13.009  0.1445 -0.4220 -0.3264
13776TIP3    H162819   0.849   1.733  13.097  0.0148 -0.0119 -0.2453
13776TIP3    H262820   0.954   1.705  12.991  1.6595  1.2181  1.0054
13777TIP3   OH262821   1.303   5.234   1.245 -0.1566 -0.2445  0.2636
13777TIP3    H162822   1.350   5.287   1.182 -1.9967 -0.6135 -1.5277
13777TIP3    H262823   1.235   5.292   1.280 -2.5615 -1.3843 -2.1366
13778TIP3   OH262824   6.469   4.837  16.172 -0.5112 -0.6021 -0.5687
13778TIP3    H162825   6.396   4.866  16.227 -0.4088  1.2411 -1.3069
13778TIP3    H262826   6.435   4.764  16.122 -1.0624 -1.3589  0.8665
13779TIP3   OH262827   4.397   0.646  16.362  0.2933 -0.8780 -0.8782
13779TIP3    H162828   4.365   0.690  16.282 -1.3684  0.6446  0.5333
13779TIP3    H262829   4.457   0.709  16.401 -0.8497 -0.4807  0.3202
13780TIP3   OH262830   6.294   4.713   0.498  0.0956 -0.0057  0.6656
13780TIP3    H162831   6.346   4.636   0.521 -1.8264 -1.5233  0.2177
13780TIP3    H262832   6.231   4.722   0.569 -0.0170  0.8943  0.4724
13781TIP3   OH262833   4.166   2.398  15.744  0.2277  0.3747  0.0018
13781TIP3    H162834   4.094   2.357  15.791 -1.0968  1.9353 -0.5822
13781TIP3    H262835   4.136   2.486  15.725  1.9377  0.7866 -1.0792
13782TIP3   OH262836   3.765   0.009  11.573  0.4011  0.2963 -0.2583
13782TIP3    H162837   3.837   0.039  11.629 -0.5540  0.0063  1.1872
13782TIP3    H262838   3.689   0.005  11.632 -0.4845 -0.7165 -1.4183
13783TIP3   OH262839   6.422   4.266  16.265 -0.2201  0.1918 -0.0748
13783TIP3    H162840   6.351   4.227  16.315 -1.3229 -0.7909 -2.2547
13783TIP3    H262841   6.480   4.193  16.244 -0.1037  0.4653 -0.7300
13784TIP3   OH262842   0.746   0.391   0.981 -1.0732 -0.2131  0.0013
13784TIP3    H162843   0.752   0.311   0.928  1.2947  0.7462 -1.3505
13784TIP3    H262844   0.737   0.461   0.917  1.4046  0.9433  0.8009
13785TIP3   OH262845   4.705   2.891   1.583  0.1007  0.0042 -0.8866
13785TIP3    H162846   4.619   2.901   1.622  0.3983  2.7700 -0.7660
13785TIP3    H262847   4.707   2.956   1.513  1.1051 -1.9552 -2.7894
13786TIP3   OH262848   0.621   6.551   2.669 -0.5978 -0.4392 -0.1606
13786TIP3    H162849   0.569   6.486   2.623 -0.8958  0.4851 -1.1893
13786TIP3    H262850   0.587   6.635   2.638  1.0730  0.2006 -0.3688
13787TIP3   OH262851   0.482   2.857   3.570 -0.3986 -0.1451  0.2981
13787TIP3    H162852   0.554   2.860   3.634 -0.1750 -0.7057  0.0810
13787TIP3    H262853   0.490   2.939   3.521 -2.3870  1.7798  2.9018
13788TIP3   OH262854   3.633   6.733  16.814 -0.4898  0.0367 -0.4717
13788TIP3    H162855   3.615   6.652  16.768 -1.1838 -1.2651  1.8933
13788TIP3    H262856   3.728   6.746  16.806 -0.2625 -1.4149 -0.3196
13789TIP3   OH262857   5.531   5.871  12.213  0.1197  0.1317  0.0830
13789TIP3    H162858   5.478   5.805  12.258 -0.1791 -0.5155 -1.1626
13789TIP3    H262859   5.621   5.840  12.221  0.1318  0.3312  0.7300
13790TIP3   OH262860   2.396   5.967   4.414 -0.3960  0.8408 -0.5938
13790TIP3    H162861   2.416   5.914   4.490 -3.3111 -0.1222 -0.3798
13790TIP3    H262862   2.391   6.057   4.448 -0.6808  0.5459  0.1674
13791TIP3   OH262863   5.961   2.635   3.048 -0.2328  0.3385 -0.1288
13791TIP3    H162864   5.997   2.695   3.113 -0.2055 -0.0452  0.2095
13791TIP3    H262865   5.866   2.648   3.053 -0.3882 -1.0697  1.3602
13792TIP3   OH262866   0.416   3.366  16.057  0.2754 -0.1682 -0.5595
13792TIP3    H162867   0.430   3.375  16.151  1.0457 -1.1719 -0.5572
13792TIP3    H262868   0.366   3.443  16.032 -0.5284 -0.2242  0.7918
13793TIP3   OH262869   1.715   3.865  13.682 -0.4090 -0.2019  0.0466
13793TIP3    H162870   1.759   3.869  13.597  0.8777  1.6826  0.7235
13793TIP3    H262871   1.702   3.957  13.706 -0.5882 -0.6936  1.9597
13794TIP3   OH262872   0.672   0.336  12.026  0.2462 -0.2323  0.3787
13794TIP3    H162873   0.653   0.309  11.936  0.3100  1.1716 -0.0867
13794TIP3    H262874   0.657   0.258  12.079  0.5423 -1.1769 -0.8900
13795TIP3   OH262875   6.356   2.254  13.487  0.3620  0.4638 -0.1261
13795TIP3    H162876   6.390   2.247  13.576  2.7987  1.1177 -0.9337
13795TIP3    H262877   6.298   2.330  13.489 -0.1367  0.0699  1.0344
13796TIP3   OH262878   0.772   3.463   2.395 -0.1362  0.1784  0.4858
13796TIP3    H162879   0.797   3.500   2.480  2.3179  0.3376 -0.2510
13796TIP3    H262880   0.755   3.370   2.413 -1.5227  0.5948  1.4582
13797TIP3   OH262881   5.035   0.350   1.356  0.3963  0.0422 -0.4115
13797TIP3    H162882   5.100   0.286   1.327 -0.2026 -1.2701  0.9799
13797TIP3    H262883   4.951   0.309   1.338 -0.0378  1.0690 -0.8066
13798TIP3   OH262884   3.948   4.007  12.306 -0.3524  0.2451  0.6578
13798TIP3    H162885   4.025   3.957  12.331  1.4823  2.3407 -0.4031
13798TIP3    H262886   3.944   4.078  12.370 -1.5749  0.0423  0.8307
13799TIP3   OH262887   5.877   4.616  13.351 -0.4088  0.1243  0.0444
13799TIP3    H162888   5.825   4.604  13.431  0.1890 -0.6785  0.3307
13799TIP3    H262889   5.968   4.606  13.381 -0.1282  0.6774 -0.5941
13800TIP3   OH262890   2.040   3.645  11.683  0.2005  0.4796 -0.1537
13800TIP3    H162891   2.066   3.717  11.741  0.5786 -0.1963  0.5430
13800TIP3    H262892   2.020   3.573  11.743 -0.0712 -0.0266 -0.8439
13801TIP3   OH262893   0.616   3.799  15.159 -0.4174 -0.1853 -0.1825
13801TIP3    H162894   0.531   3.821  15.119  0.1882 -0.0840 -1.4763
13801TIP3    H262895   0.671   3.874  15.140  0.7999 -1.4366 -1.9973
13802TIP3   OH262896   1.610   3.042  16.924  0.1837 -0.2229 -0.0756
13802TIP3    H162897   1.589   3.057  16.832  0.7405  0.0312 -0.1617
13802TIP3    H262898   1.530   3.003  16.960 -0.0503 -0.2892 -0.6542
13803TIP3   OH262899   4.527   5.381  12.277 -0.3045 -0.2477 -0.9028
13803TIP3    H162900   4.510   5.384  12.183 -2.6168 -0.8112 -0.5638
13803TIP3    H262901   4.444   5.354  12.316  0.6163 -0.1326  1.3134
13804TIP3   OH262902   2.765   1.915  15.107 -1.0571  0.8598  0.3359
13804TIP3    H162903   2.775   1.899  15.013 -0.8533 -1.4429  0.6939
13804TIP3    H262904   2.671   1.933  15.117 -1.3308 -0.1446 -0.1875
13805TIP3   OH262905   4.394   2.024   5.771 -0.3873  0.1647 -0.2706
13805TIP3    H162906   4.335   1.979   5.711  0.7650  0.0638 -1.3466
13805TIP3    H262907   4.479   1.982   5.758  0.2836  1.3717  0.0965
13806TIP3   OH262908   0.596   1.554   2.970 -0.2617 -0.9731 -0.1068
13806TIP3    H162909   0.614   1.532   3.061 -0.6304  0.1294  0.2440
13806TIP3    H262910   0.540   1.631   2.974 -1.2823 -1.6277 -1.2603
13807TIP3   OH262911   4.618   1.651   5.754  0.0490  0.3034 -0.5814
13807TIP3    H162912   4.532   1.628   5.790  0.8674 -0.4112  1.0124
13807TIP3    H262913   4.627   1.745   5.771  1.2706 -0.3490  3.2082
13808TIP3   OH262914   1.541   4.370   4.718  0.4530 -0.1284 -0.1480
13808TIP3    H162915   1.450   4.397   4.730  0.8297  1.8543 -1.1206
13808TIP3    H262916   1.567   4.331   4.801 -1.1860 -0.4652  0.2354
13809TIP3   OH262917   5.880   1.061  11.371  0.4564 -0.9004 -0.6430
13809TIP3    H162918   5.963   1.050  11.324  0.7931 -0.6742 -0.1049
13809TIP3    H262919   5.889   1.144  11.417  0.2037 -1.2172 -0.0158
13810TIP3   OH262920   5.430   6.171  13.871  0.1457  0.4028 -0.3198
13810TIP3    H162921   5.361   6.130  13.923 -0.7003  0.5497 -1.2843
13810TIP3    H262922   5.388   6.190  13.787  1.1818  1.1059 -0.6972
13811TIP3   OH262923   0.021   6.513  14.960 -0.4398 -0.6478 -0.5253
13811TIP3    H162924  -0.027   6.500  15.041 -0.5001 -0.2079 -0.4900
13811TIP3    H262925   0.110   6.537  14.988 -1.1137  2.2008 -0.5232
13812TIP3   OH262926   5.637   1.122   4.620  0.4531  0.4675 -0.2376
13812TIP3    H162927   5.716   1.101   4.669  2.1324 -1.3241 -3.3671
13812TIP3    H262928   5.566   1.078   4.666  1.9480 -1.2748  0.4774
13813TIP3   OH262929   3.998   1.646  14.534 -0.1008  0.2601  0.1883
13813TIP3    H162930   3.956   1.573  14.487 -0.1049  0.9237 -0.8885
13813TIP3    H262931   4.076   1.665  14.483  0.6746  0.0774  1.2889
13814TIP3   OH262932   3.996   6.838  14.206 -0.4387 -0.4705  0.0338
13814TIP3    H162933   3.957   6.794  14.281  0.0843 -0.4078  0.3485
13814TIP3    H262934   3.955   6.798  14.130  0.3904 -1.8597  0.2861
13815TIP3   OH262935   5.351   3.295  15.740  0.1662  0.6475 -0.0846
13815TIP3    H162936   5.265   3.287  15.781 -0.0729 -1.6843 -0.8860
13815TIP3    H262937   5.336   3.348  15.662 -0.6117  0.0994 -0.3208
13816TIP3   OH262938   2.102   3.709   2.667  0.5232  0.3633 -0.3899
13816TIP3    H162939   2.197   3.714   2.656  0.5155  1.1618 -0.1398
13816TIP3    H262940   2.080   3.780   2.728 -0.2830  0.4619 -0.7734
13817TIP3   OH262941   5.752   6.391  11.059  0.4210 -0.3778  0.1518
13817TIP3    H162942   5.704   6.343  11.127 -0.0122 -0.4090 -0.1749
13817TIP3    H262943   5.842   6.360  11.068  0.6140  0.4862  1.4968
13818TIP3   OH262944   1.393   1.486   1.619  0.3576  0.4871 -0.1970
13818TIP3    H162945   1.436   1.572   1.621 -0.4607  0.9978 -1.9327
13818TIP3    H262946   1.382   1.468   1.525 -2.3647 -0.0053  0.1362
13819TIP3   OH262947   2.881   5.021  11.936 -0.1701 -0.3099  0.0825
13819TIP3    H162948   2.957   5.030  11.878 -0.4186  0.6431 -0.0979
13819TIP3    H262949   2.905   5.071  12.014 -0.4750 -0.3009  0.1695
13820TIP3   OH262950   5.642   5.441  15.088  0.1491  0.2503  0.9120
13820TIP3    H162951   5.701   5.458  15.162 -0.0397  2.1904  0.6558
13820TIP3    H262952   5.675   5.497  15.018 -0.1372 -0.9918 -0.2541
13821TIP3   OH262953   6.395   5.359  15.366  0.8835 -0.2254 -0.1900
13821TIP3    H162954   6.445   5.381  15.444 -0.4577 -1.2558  1.0149
13821TIP3    H262955   6.309   5.334  15.398 -0.1269  0.5480 -2.1185
13822TIP3   OH262956   0.901   1.647   3.882 -0.8455 -0.8003 -0.8422
13822TIP3    H162957   0.906   1.569   3.938 -1.4238  0.2167  0.6946
13822TIP3    H262958   0.841   1.706   3.928  0.7800  1.1951 -1.1359
13823TIP3   OH262959   6.183   0.047   0.172 -0.3356 -0.1036  0.4142
13823TIP3    H162960   6.115   0.056   0.106 -0.3653  1.2468  0.6140
13823TIP3    H262961   6.252   0.107   0.144  0.7477 -1.3372  0.2858
13824TIP3   OH262962   1.846   1.605  12.119 -0.0403 -0.6801  0.1492
13824TIP3    H162963   1.752   1.596  12.104 -0.0596  0.7420 -0.7396
13824TIP3    H262964   1.859   1.574  12.209 -1.8544  1.9137  1.4579
13825TIP3   OH262965   5.232   2.404   5.490 -0.2024  0.1093  0.0135
13825TIP3    H162966   5.170   2.417   5.418 -2.0586  2.0260  1.8199
13825TIP3    H262967   5.210   2.317   5.524 -2.1984  0.8581  0.8012
13826TIP3   OH262968   4.116   6.174   4.909 -0.4600  0.5247 -0.0911
13826TIP3    H162969   4.046   6.224   4.867 -1.2378  0.3451  0.9491
13826TIP3    H262970   4.085   6.161   4.999  1.9639  2.6368  1.2080
13827TIP3   OH262971   1.565   3.585   1.830 -0.0253  0.6968 -0.8123
13827TIP3    H162972   1.606   3.500   1.845  1.0823  0.8781 -2.5781
13827TIP3    H262973   1.494   3.589   1.894  0.4838 -1.1499 -0.0785
13828TIP3   OH262974   3.282   1.517   3.961 -0.0133  0.1683 -0.2800
13828TIP3    H162975   3.293   1.442   3.903 -0.7355  0.7230 -1.1506
13828TIP3    H262976   3.244   1.585   3.906  1.6226  1.5557  0.2222
13829TIP3   OH262977   5.185   4.146  16.317  0.2927 -0.1714  0.5957
13829TIP3    H162978   5.274   4.182  16.318  0.5153 -0.6474 -0.6661
13829TIP3    H262979   5.149   4.170  16.402  1.6646 -0.0669  1.1743
13830TIP3   OH262980   6.589   6.079   5.502 -0.2998  0.6574  0.8425
13830TIP3    H162981   6.496   6.085   5.482 -0.3308 -0.0588  0.7350
13830TIP3    H262982   6.631   6.056   5.419  0.0944  1.9194  0.6790
13831TIP3   OH262983   6.210   1.150  12.514 -0.0072 -0.3054 -0.4184
13831TIP3    H162984   6.214   1.230  12.462 -0.1421 -0.0952 -0.1110
13831TIP3    H262985   6.251   1.083  12.459 -1.4380 -0.4239 -1.4077
13832TIP3   OH262986   3.349   4.549  13.724 -0.6565 -0.3522 -0.0462
13832TIP3    H162987   3.412   4.518  13.659 -1.3360  1.3595 -1.5883
13832TIP3    H262988   3.264   4.525  13.689 -1.0487  0.8987 -0.0061
13833TIP3   OH262989   6.306   2.048   2.421 -0.9700 -0.1062 -0.1054
13833TIP3    H162990   6.331   2.050   2.513 -2.4967 -2.3066  0.4268
13833TIP3    H262991   6.315   2.139   2.392 -1.8860  0.9715  2.6317
13834TIP3   OH262992   0.892   3.712  11.438  0.3240  0.3511  0.0404
13834TIP3    H162993   0.854   3.647  11.378 -2.6371  1.2938  0.7776
13834TIP3    H262994   0.937   3.774  11.380 -0.1962 -0.2001 -0.9883
13835TIP3   OH262995   1.050   3.921   2.510  0.1222 -0.3413 -0.4233
13835TIP3    H162996   1.077   3.971   2.587  0.0098 -0.7364 -0.1259
13835TIP3    H262997   0.992   3.980   2.463 -0.1641 -0.2575  0.0272
13836TIP3   OH262998   0.344   4.349   1.750  0.3572 -0.7568 -0.4050
13836TIP3    H162999   0.414   4.329   1.688  0.3735 -0.9583 -0.3255
13836TIP3    H263000   0.383   4.410   1.812  0.0044  0.3547 -1.2395
13837TIP3   OH263001   1.711   3.252   4.126 -0.1437  0.0721 -0.4601
13837TIP3    H163002   1.634   3.219   4.079 -1.3087  1.1487  0.6145
13837TIP3    H263003   1.744   3.177   4.175 -1.9257  0.0992  0.8688
13838TIP3   OH263004   1.455   0.570   3.634 -0.1635  0.5107  0.2456
13838TIP3    H163005   1.546   0.547   3.616 -0.0333  1.2877 -0.1228
13838TIP3    H263006   1.454   0.594   3.727  0.6611  3.4285 -0.4190
13839TIP3   OH263007   4.071   2.356   3.697 -0.1357  0.2849  0.5328
13839TIP3    H163008   4.147   2.349   3.640 -1.1638 -0.2348 -0.8108
13839TIP3    H263009   4.009   2.290   3.665 -0.5393 -0.4544  2.6154
13840TIP3   OH263010   0.991   4.551   3.083 -0.1228  0.3503  0.7453
13840TIP3    H163011   1.069   4.597   3.055 -0.7993  1.4257  0.5664
13840TIP3    H263012   0.918   4.605   3.052 -0.9412 -0.5552  1.0144
13841TIP3   OH263013   4.360   4.010  12.519 -0.3514 -0.2727 -0.0099
13841TIP3    H163014   4.331   4.101  12.513  1.4493  0.6011  2.6715
13841TIP3    H263015   4.441   4.007  12.468 -2.1152 -1.3608 -2.9883
13842TIP3   OH263016   4.738   6.125  11.801 -0.5493  0.0074  0.0383
13842TIP3    H163017   4.709   6.043  11.760  0.8670  0.0615 -1.1624
13842TIP3    H263018   4.666   6.186  11.785 -1.3709 -0.8297  0.4397
13843TIP3   OH263019   3.505   5.786   1.069  0.3233  0.3968  0.4061
13843TIP3    H163020   3.440   5.784   0.999  0.5167  2.2174  0.1397
13843TIP3    H263021   3.456   5.760   1.147 -0.7816  1.8816  0.2396
13844TIP3   OH263022   1.409   4.630  12.813 -0.5302 -0.4974 -0.2896
13844TIP3    H163023   1.497   4.662  12.834 -0.8668  0.8007 -0.7800
13844TIP3    H263024   1.422   4.576  12.735  0.0211 -1.5216  0.4715
13845TIP3   OH263025   0.904   3.747  14.667 -0.1362 -0.6528 -0.2005
13845TIP3    H163026   0.825   3.736  14.720 -0.2664 -0.3491 -0.3283
13845TIP3    H263027   0.885   3.700  14.585 -0.5858  0.2570 -0.6363
13846TIP3   OH263028   2.236   1.356  14.978 -0.4958 -0.3593 -0.4395
13846TIP3    H163029   2.223   1.371  15.071  1.7068  0.3196 -0.1860
13846TIP3    H263030   2.160   1.305  14.951 -1.7855  0.4314  1.4527
13847TIP3   OH263031   1.936   5.587   0.554  0.8268 -0.7078  0.2482
13847TIP3    H163032   1.948   5.610   0.462 -0.9034  1.6109  0.5153
13847TIP3    H263033   1.965   5.664   0.603  0.4678 -1.3761  1.5723
13848TIP3   OH263034   0.476   5.376  16.669 -0.3466 -0.1348  0.0154
13848TIP3    H163035   0.483   5.421  16.753 -0.7312 -0.7954  0.4068
13848TIP3    H263036   0.523   5.294  16.681  1.2590  0.5893 -1.0227
13849TIP3   OH263037   0.050   3.404  16.185 -0.0036 -0.2460  0.0353
13849TIP3    H163038   0.145   3.417  16.185  0.0287 -0.1884  2.2619
13849TIP3    H263039   0.015   3.479  16.234 -0.6809 -2.8386  3.9801
13850TIP3   OH263040   1.300   0.208   0.834 -0.2425 -0.6041 -0.4095
13850TIP3    H163041   1.319   0.276   0.898  2.4532 -0.0176 -1.6901
13850TIP3    H263042   1.205   0.206   0.828 -0.4386  2.1359  0.6069
13851TIP3   OH263043   5.147   2.138   2.025 -0.1661  0.2693 -0.4622
13851TIP3    H163044   5.053   2.148   2.041  0.0331  2.1601 -0.2401
13851TIP3    H263045   5.158   2.045   2.006 -2.0725 -0.0026 -0.4599
13852TIP3   OH263046   6.580   4.835   1.008  0.1006  0.0044  0.0156
13852TIP3    H163047   6.534   4.790   0.937 -0.5800 -1.1137  1.1298
13852TIP3    H263048   6.550   4.926   1.001 -0.6570 -0.2735 -0.5750
13853TIP3   OH263049   4.295   1.769   0.051  0.1652  0.5912 -0.1983
13853TIP3    H163050   4.259   1.818  -0.022 -0.0779 -0.0458 -0.5188
13853TIP3    H263051   4.367   1.718   0.013 -0.5926 -0.4951 -0.2143
13854TIP3   OH263052   1.894   5.736   4.144 -0.0499 -0.4521 -1.1330
13854TIP3    H163053   1.871   5.689   4.064 -1.3112  0.3556 -1.2665
13854TIP3    H263054   1.813   5.739   4.195  0.5562 -0.3303 -0.1355
13855TIP3   OH263055   1.628   6.828  17.087  0.0284  0.5244  0.3659
13855TIP3    H163056   1.645   6.811  17.180  1.3568 -2.4498 -0.3222
13855TIP3    H263057   1.595   6.918  17.085 -1.1882  0.2948  3.8276
13856TIP3   OH263058   0.794   1.407  11.898  0.5014 -0.0763  0.2061
13856TIP3    H163059   0.889   1.399  11.903  0.5938  1.3500  2.1711
13856TIP3    H263060   0.763   1.320  11.877  2.2111 -0.7940  0.5016
13857TIP3   OH263061   5.075   2.000   2.574 -0.2573 -0.5639  0.3402
13857TIP3    H163062   5.122   1.926   2.536 -0.5717 -0.5935  0.0030
13857TIP3    H263063   5.047   1.970   2.660 -0.7568 -0.9916  0.0345
13858TIP3   OH263064   0.151   1.908  11.397 -0.2915  0.1971 -0.8757
13858TIP3    H163065   0.091   1.981  11.384 -0.0276  0.3554 -1.2391
13858TIP3    H263066   0.214   1.939  11.462 -2.1882 -0.9447  1.6477
13859TIP3   OH263067   0.027   5.477  15.527 -0.2500  0.2129  0.0523
13859TIP3    H163068   0.014   5.558  15.477 -0.0661 -0.2265 -0.7133
13859TIP3    H263069  -0.001   5.500  15.616 -1.5848  0.7091 -0.4600
13860TIP3   OH263070   1.378   2.448   3.043 -0.2372 -0.4072  0.6971
13860TIP3    H163071   1.351   2.391   2.971  2.2092 -0.3851 -0.3494
13860TIP3    H263072   1.360   2.536   3.010  1.0136 -0.3901  0.0004
13861TIP3   OH263073   0.259   4.432   0.665 -0.0675  0.2524  0.1166
13861TIP3    H163074   0.223   4.345   0.649  2.4801 -0.4925 -2.4837
13861TIP3    H263075   0.344   4.431   0.621  1.5274  3.0128  2.7723
13862TIP3   OH263076   6.560   6.682   1.478  0.3812 -0.0199  0.0867
13862TIP3    H163077   6.531   6.705   1.567  0.3434 -2.4269  0.7915
13862TIP3    H263078   6.654   6.666   1.487  0.5498  0.5864 -0.5280
13863TIP3   OH263079   2.438   5.843   1.475  0.0479 -0.0623 -0.3781
13863TIP3    H163080   2.517   5.884   1.510 -0.6949 -1.9837  4.1120
13863TIP3    H263081   2.470   5.774   1.417  1.6608 -0.0218  0.4183
13864TIP3   OH263082   0.091   2.397   2.078  1.0286  0.5183  0.5249
13864TIP3    H163083   0.183   2.421   2.078  0.4358  3.0613  0.7866
13864TIP3    H263084   0.052   2.450   2.148 -1.1013  1.7744 -1.4513
13865TIP3   OH263085   5.364   4.710   5.951  0.3238 -0.1446  0.5676
13865TIP3    H163086   5.301   4.775   5.920  0.9330  0.4687  0.5911
13865TIP3    H263087   5.319   4.665   6.023 -0.9165 -1.2527 -0.8450
13866TIP3   OH263088   1.195   0.722  14.751  0.5657 -0.4672  0.4151
13866TIP3    H163089   1.161   0.697  14.837  0.5912  0.0846  0.5922
13866TIP3    H263090   1.147   0.801  14.728  0.8678 -0.3648  0.1161
13867TIP3   OH263091   1.143   0.549  14.983 -0.3424  0.1384 -0.2925
13867TIP3    H163092   1.211   0.507  15.035 -1.2265 -0.8143  0.1446
13867TIP3    H263093   1.085   0.590  15.046 -0.6385  0.2140 -0.6090
13868TIP3   OH263094   4.335   6.472  12.916 -0.0789  0.3804  0.1318
13868TIP3    H163095   4.323   6.378  12.922  1.6484  0.0942 -0.4361
13868TIP3    H263096   4.334   6.491  12.822  2.0209  0.5255  0.0826
13869TIP3   OH263097   6.302   6.128   3.215  0.1004 -0.0348  0.3277
13869TIP3    H163098   6.380   6.138   3.270 -0.8837  1.9266  1.4766
13869TIP3    H263099   6.273   6.038   3.229  1.6621 -0.5244  0.5275
13870TIP3   OH263100   2.120   0.272   3.272 -0.1061  0.2349 -0.3619
13870TIP3    H163101   2.111   0.365   3.252 -2.5590  0.4525  1.3397
13870TIP3    H263102   2.050   0.229   3.223  0.2490 -0.5595 -0.1958
13871TIP3   OH263103   1.396   4.222   1.439 -0.1521  0.0117 -0.1293
13871TIP3    H163104   1.388   4.234   1.344 -0.5644 -2.2376 -0.4396
13871TIP3    H263105   1.322   4.270   1.475  0.8419  2.1397 -0.7795
13872TIP3   OH263106   2.408   2.739  14.844 -0.2355 -0.1768  0.2464
13872TIP3    H163107   2.383   2.762  14.934 -0.3477  0.3587  0.0861
13872TIP3    H263108   2.473   2.670  14.853  0.8989  0.9172  0.7988
13873TIP3   OH263109   6.514   3.183  16.246 -0.4471  0.2435 -0.1748
13873TIP3    H163110   6.511   3.162  16.152 -1.7651 -1.3908  0.1742
13873TIP3    H263111   6.436   3.140  16.282  1.5302 -1.6936  2.1399
13874TIP3   OH263112   2.487   1.898   5.427 -0.0398 -0.1196 -0.5132
13874TIP3    H163113   2.439   1.818   5.446  0.8126 -0.5233  0.0130
13874TIP3    H263114   2.552   1.871   5.361  0.3062  0.1021 -0.2692
13875TIP3   OH263115   5.122   4.348  13.384  0.4668 -0.0756 -0.2577
13875TIP3    H163116   5.193   4.337  13.447  1.0846 -1.6398 -1.1655
13875TIP3    H263117   5.140   4.432  13.342  1.1396  0.0683  0.2980
13876TIP3   OH263118   3.336   5.017  12.364 -0.1520 -0.1580 -0.2074
13876TIP3    H163119   3.289   4.962  12.427  0.6117 -0.6336 -0.0358
13876TIP3    H263120   3.320   4.976  12.280 -1.4897  0.6953 -0.3972
13877TIP3   OH263121   6.266   0.111  13.649  0.3495 -0.0327  0.4437
13877TIP3    H163122   6.292   0.133  13.560 -2.0726 -1.3710 -0.6929
13877TIP3    H263123   6.186   0.162  13.663  1.2408  0.9636  2.2969
13878TIP3   OH263124   3.518   2.507   2.145  0.0602  0.0452  0.4716
13878TIP3    H163125   3.578   2.469   2.208  0.2267  1.1018  0.9783
13878TIP3    H263126   3.476   2.432   2.103  0.4911 -0.6783  1.3050
13879TIP3   OH263127   5.539   0.586  11.842  0.3792 -0.0724  0.2886
13879TIP3    H163128   5.470   0.527  11.813  0.2945  1.2030 -2.4962
13879TIP3    H263129   5.504   0.674  11.823  1.9506  0.6788  0.7362
13880TIP3   OH263130   4.188   6.661  15.817 -0.1408  0.1684  0.2481
13880TIP3    H163131   4.252   6.706  15.763 -0.0533 -0.8759 -0.5446
13880TIP3    H263132   4.136   6.732  15.856  0.1053  0.9549 -0.8119
13881TIP3   OH263133   3.453   0.168   2.366  0.4013  0.2163 -0.5740
13881TIP3    H163134   3.485   0.228   2.433 -1.9080  0.1104  0.7277
13881TIP3    H263135   3.437   0.086   2.413  0.7979 -0.5451 -1.7312
13882TIP3   OH263136   5.652   2.866   5.517  0.0516  0.1096  0.2086
13882TIP3    H163137   5.720   2.811   5.554 -0.4069 -0.0645  0.7951
13882TIP3    H263138   5.574   2.849   5.570 -0.4412  0.3429 -0.4203
13883TIP3   OH263139   6.486   1.441  13.650  0.4177 -0.2103  0.1959
13883TIP3    H163140   6.512   1.401  13.733  1.3442 -0.2015 -0.0857
13883TIP3    H263141   6.482   1.368  13.588 -0.9541 -0.3253  0.3936
13884TIP3   OH263142   6.734   1.955  13.722  0.5375  0.1871  0.4951
13884TIP3    H163143   6.638   1.956  13.723  0.5105 -0.3495 -0.2694
13884TIP3    H263144   6.759   1.936  13.812 -0.0626  0.7584  0.7868
13885TIP3   OH263145   6.114   0.959   0.760  0.0067  0.4418  0.1915
13885TIP3    H163146   6.166   1.039   0.750 -1.4217  1.3872  0.0802
13885TIP3    H263147   6.091   0.933   0.671  2.9925 -1.9070 -0.0485
13886TIP3   OH263148   0.695   5.901   3.595  0.4710  0.5751 -0.4229
13886TIP3    H163149   0.769   5.844   3.577  0.5896  0.5778  0.0629
13886TIP3    H263150   0.726   5.989   3.572  1.5315  0.9851  2.1952
13887TIP3   OH263151   4.161   5.678  12.995 -0.3224 -0.2775  0.6245
13887TIP3    H163152   4.128   5.602  12.947  1.0365  0.8999 -2.4051
13887TIP3    H263153   4.083   5.729  13.016 -0.9696 -0.8738 -0.2713
13888TIP3   OH263154   0.958   4.367   6.332  0.2741 -0.3910  0.5128
13888TIP3    H163155   0.906   4.309   6.387  0.5286 -1.2157 -0.0897
13888TIP3    H263156   0.931   4.456   6.357 -1.1267 -0.7934  0.4709
13889TIP3   OH263157   5.934   2.458  16.893 -0.2492 -0.3158  0.2167
13889TIP3    H163158   5.995   2.514  16.845  0.5796 -1.0577  0.3805
13889TIP3    H263159   5.855   2.512  16.902 -0.0535  0.2276 -1.0367
13890TIP3   OH263160   0.382   1.904   3.774  0.1519 -0.0827 -0.4745
13890TIP3    H163161   0.345   1.956   3.703  1.7357  0.3415 -1.0201
13890TIP3    H263162   0.387   1.964   3.849  0.1509 -0.0139 -0.5300
13891TIP3   OH263163   3.123   6.433  14.119 -0.2737  0.7100 -0.3158
13891TIP3    H163164   3.087   6.521  14.110 -0.1934  0.7697 -0.0827
13891TIP3    H263165   3.050   6.380  14.149 -0.3353  0.6870 -0.5089
13892TIP3   OH263166   1.042   2.030   5.475  0.1263 -0.4075  0.1526
13892TIP3    H163167   1.105   1.961   5.452 -0.2594 -0.6128 -0.3193
13892TIP3    H263168   0.966   2.011   5.420 -0.5489 -0.4681  1.0959
13893TIP3   OH263169   5.246   3.080  15.490 -0.3625 -0.6946  0.0139
13893TIP3    H163170   5.326   3.081  15.437 -1.5518 -0.2501 -1.8519
13893TIP3    H263171   5.225   2.987  15.500  0.8613 -0.8653  1.3328
13894TIP3   OH263172   0.986   3.578   1.874  0.4916  0.2725 -0.2491
13894TIP3    H163173   0.922   3.631   1.826  0.3599 -1.3435 -1.9754
13894TIP3    H263174   1.071   3.603   1.837  0.7038  1.0575  0.7200
13895TIP3   OH263175   0.706   2.446   2.507  0.4386  0.6247  0.1405
13895TIP3    H163176   0.787   2.493   2.489  0.4530  0.0621 -1.4001
13895TIP3    H263177   0.637   2.510   2.490  0.5236  0.9650  1.0059
13896TIP3   OH263178   1.270   1.666  10.983 -0.1948 -0.6792  0.0905
13896TIP3    H163179   1.366   1.664  10.984 -0.0595  2.0404 -0.4994
13896TIP3    H263180   1.246   1.657  11.075  0.6626 -0.6200  0.3358
13897TIP3   OH263181   2.631   3.792   0.067 -0.0866 -0.3389  0.0987
13897TIP3    H163182   2.612   3.764  -0.023  0.7410 -0.0500 -0.1816
13897TIP3    H263183   2.574   3.739   0.122 -2.0968  0.8943 -0.7085
13898TIP3   OH263184   1.021   6.151   4.998  0.6323  0.5136  0.5240
13898TIP3    H163185   1.051   6.220   4.938 -1.4040 -0.0931 -1.3387
13898TIP3    H263186   1.063   6.072   4.965 -0.5265  0.1718 -0.2177
13899TIP3   OH263187   0.408   6.674   0.695  0.5100  0.0012 -0.0796
13899TIP3    H163188   0.342   6.742   0.693 -0.2807 -0.6762  1.3940
13899TIP3    H263189   0.458   6.691   0.775  0.7790 -0.6992 -0.0904
13900TIP3   OH263190   1.106   4.416  13.444  0.3039 -0.2762 -0.9712
13900TIP3    H163191   1.022   4.371  13.448  0.7359 -1.1777 -1.5467
13900TIP3    H263192   1.157   4.378  13.516 -0.8321  2.6271  1.5410
13901TIP3   OH263193   0.762   5.131   1.335  0.5591 -0.1844  0.1785
13901TIP3    H163194   0.682   5.106   1.381  0.3948  0.0367  0.0169
13901TIP3    H263195   0.778   5.059   1.274 -0.7743  0.7862 -1.3873
13902TIP3   OH263196   1.709   5.214   3.434  0.1030 -0.6863  0.5678
13902TIP3    H163197   1.626   5.262   3.435 -0.2978 -1.3741  0.5111
13902TIP3    H263198   1.686   5.125   3.409  1.0474 -0.5207 -1.1112
13903TIP3   OH263199   1.410   4.335   3.580  0.8361  0.3903  0.0776
13903TIP3    H163200   1.315   4.344   3.568  0.7658 -0.2642  0.0869
13903TIP3    H263201   1.428   4.244   3.556  1.1954  0.0111  1.6639
13904TIP3   OH263202   4.474   1.976  15.161 -0.1454 -0.0097  0.2071
13904TIP3    H163203   4.535   2.050  15.162 -0.6529  0.4337 -0.2999
13904TIP3    H263204   4.498   1.924  15.237  0.7527  0.2447  0.1149
13905TIP3   OH263205   1.940   0.496   5.117 -0.0116 -0.3431 -0.2029
13905TIP3    H163206   1.942   0.466   5.026 -0.8207  1.1327 -0.7411
13905TIP3    H263207   1.908   0.586   5.112  0.6088  0.0124  1.4907
13906TIP3   OH263208   1.534   2.157  16.471  0.0474  0.6305  0.4562
13906TIP3    H163209   1.456   2.140  16.417  1.0849  0.4255 -1.0298
13906TIP3    H263210   1.551   2.250  16.461  0.0429  0.6593  0.7127
13907TIP3   OH263211   2.112   4.026  11.404 -0.6226  0.5148 -0.3912
13907TIP3    H163212   2.166   4.057  11.476 -1.7567  0.1619  0.6591
13907TIP3    H263213   2.076   3.942  11.435 -0.6188  0.0313 -1.6318
13908TIP3   OH263214   0.135   5.017  15.194  0.6959  0.1523 -0.1447
13908TIP3    H163215   0.077   5.001  15.269  0.5998  1.2230  0.0248
13908TIP3    H263216   0.084   4.990  15.118 -0.2237  1.4840 -0.0418
13909TIP3   OH263217   1.139   6.382  11.125  0.0873  0.0044  0.6129
13909TIP3    H163218   1.164   6.358  11.215 -2.0204 -2.5318  0.6464
13909TIP3    H263219   1.056   6.428  11.135  0.0426  0.0634 -0.0289
13910TIP3   OH263220   1.917   5.645  11.150 -0.3327 -0.1108  0.2311
13910TIP3    H163221   1.841   5.593  11.178 -1.5838  0.3910 -1.9227
13910TIP3    H263222   1.989   5.583  11.147 -0.9358 -0.8858  1.1504
13911TIP3   OH263223   1.361   2.594   5.663  0.5280 -0.3394 -0.2520
13911TIP3    H163224   1.403   2.563   5.744  1.0211 -0.5501 -0.5876
13911TIP3    H263225   1.432   2.603   5.600  0.0794 -0.6282 -0.8105
13912TIP3   OH263226   1.358   4.824  14.662 -0.1518  0.1137 -0.3586
13912TIP3    H163227   1.363   4.914  14.695 -1.0157  0.5646 -1.3961
13912TIP3    H263228   1.393   4.829  14.573 -1.4384 -0.3048 -0.9088
13913TIP3   OH263229   3.106   3.810   2.285 -1.0164  0.0404  0.0324
13913TIP3    H163230   3.162   3.885   2.263 -1.7887  0.6316  0.0575
13913TIP3    H263231   3.019   3.836   2.256 -1.1209 -1.2781 -0.9533
13914TIP3   OH263232   6.409   1.440   1.657  0.0943  0.2002 -0.2821
13914TIP3    H163233   6.380   1.427   1.747  0.1210  0.1156 -0.2859
13914TIP3    H263234   6.464   1.519   1.660  2.8106 -1.5715  0.3935
13915TIP3   OH263235   5.425   6.256  14.870  0.4194 -0.4790 -0.0835
13915TIP3    H163236   5.359   6.213  14.815  0.0785  0.6910 -0.6233
13915TIP3    H263237   5.408   6.224  14.958  0.3211 -1.6043 -0.4928
13916TIP3   OH263238   4.628   3.476  14.393 -0.7825 -0.1642 -0.0562
13916TIP3    H163239   4.544   3.511  14.425 -0.4651 -0.6650  1.4292
13916TIP3    H263240   4.685   3.552  14.388 -0.9286 -0.0281  0.3011
13917TIP3   OH263241   4.145   0.687   6.545  0.2748  0.0486 -0.3656
13917TIP3    H163242   4.232   0.651   6.531  0.1559 -0.4250  0.0815
13917TIP3    H263243   4.158   0.760   6.605  0.3017 -0.3340  0.0952
13918TIP3   OH263244   0.744   0.726   4.994  0.4625 -0.0763 -0.2635
13918TIP3    H163245   0.715   0.817   4.987  2.4060  0.4382 -3.7633
13918TIP3    H263246   0.667   0.679   5.028 -0.5053  2.7961  1.9263
13919TIP3   OH263247   5.056   4.983   2.955 -0.3224 -0.3866  0.1686
13919TIP3    H163248   5.118   5.047   2.990 -0.3077 -0.1056 -0.3681
13919TIP3    H263249   4.982   4.986   3.016  0.7881 -1.8082  1.6940
13920TIP3   OH263250   1.479   4.742  13.387  0.1661 -0.3312  0.1859
13920TIP3    H163251   1.538   4.673  13.417  0.3021 -0.4617 -0.3661
13920TIP3    H263252   1.474   4.803  13.461 -1.1364 -1.6552  1.2472
13921TIP3   OH263253   0.529   5.355   4.463  0.0123 -0.1028  0.5049
13921TIP3    H163254   0.476   5.430   4.438  1.5487  1.3768  1.4137
13921TIP3    H263255   0.604   5.393   4.509  0.4232 -2.2591  1.7753
13922TIP3   OH263256   6.053   0.077  15.030 -0.2635  0.9372  0.1230
13922TIP3    H163257   6.074  -0.011  15.061  1.5736  0.6956 -1.6022
13922TIP3    H263258   6.026   0.125  15.109 -0.2616 -0.8479  1.2657
13923TIP3   OH263259   1.489   0.127  15.017 -0.1052 -0.0366  0.0359
13923TIP3    H163260   1.551   0.116  14.945  0.3630 -2.7383  0.7515
13923TIP3    H263261   1.403   0.112  14.977  0.0132 -0.0013 -0.2342
13924TIP3   OH263262   2.739   4.984   2.453 -0.3848 -0.3352 -0.6366
13924TIP3    H163263   2.759   4.934   2.532  0.6148  2.2007  0.8426
13924TIP3    H263264   2.689   5.059   2.484  2.2067  2.1168 -1.9266
13925TIP3   OH263265   5.052   6.470   5.509  0.0205  0.3792 -0.7881
13925TIP3    H163266   5.074   6.485   5.601  0.8665  0.5037 -1.0003
13925TIP3    H263267   5.118   6.408   5.479 -0.3506  0.2181 -1.2709
13926TIP3   OH263268   0.962   4.151   1.723  0.3853 -0.1772  0.0301
13926TIP3    H163269   1.045   4.108   1.705 -0.2710 -0.8214 -1.7738
13926TIP3    H263270   0.925   4.167   1.636 -0.2078  2.4754  0.7025
13927TIP3   OH263271   4.949   0.883   4.029  0.2893  0.6909 -0.2542
13927TIP3    H163272   4.992   0.968   4.022 -0.0893  0.9037 -0.0471
13927TIP3    H263273   4.948   0.849   3.939 -0.3909  1.3263 -0.4996
13928TIP3   OH263274   6.313   0.121   0.893  0.0820 -0.5377 -0.0646
13928TIP3    H163275   6.234   0.172   0.910 -0.5669 -1.3778 -0.4591
13928TIP3    H263276   6.378   0.185   0.865  0.0845  0.3991  1.9058
13929TIP3   OH263277   4.692   3.280  12.540  0.1038  0.6405  0.4992
13929TIP3    H163278   4.625   3.260  12.475  0.3680  0.8191  0.1753
13929TIP3    H263279   4.685   3.208  12.603 -0.2587  0.5516  0.3647
13930TIP3   OH263280   6.296   6.517   4.293 -0.0621 -0.6442  0.0449
13930TIP3    H163281   6.220   6.461   4.305 -0.4153 -0.1939 -0.0651
13930TIP3    H263282   6.370   6.464   4.323 -0.2870 -1.4397 -0.7640
13931TIP3   OH263283   5.823   2.171   4.960  0.0186 -0.4910 -0.0427
13931TIP3    H163284   5.831   2.142   5.051  0.4376 -0.8465 -0.1881
13931TIP3    H263285   5.783   2.097   4.914 -2.2017  0.4655  0.2486
13932TIP3   OH263286   5.065   3.451   1.674  0.1298 -0.4254  0.9702
13932TIP3    H163287   4.997   3.518   1.679  0.0726 -0.1598 -1.9799
13932TIP3    H263288   5.053   3.410   1.588  3.2623 -0.8532  0.6090
13933TIP3   OH263289   2.213   4.976   4.004 -0.1140 -0.4062 -0.8001
13933TIP3    H163290   2.136   4.995   4.057  0.3384 -0.0824 -0.2550
13933TIP3    H263291   2.251   4.898   4.043  0.0908 -0.3032 -0.7937
13934TIP3   OH263292   5.322   1.117   1.867 -0.3830  0.6442  0.7110
13934TIP3    H163293   5.237   1.153   1.892 -1.5120 -0.7452 -0.9150
13934TIP3    H263294   5.327   1.033   1.913  0.3956  0.9793  1.2619
13935TIP3   OH263295   6.146   3.778   1.361  0.0042 -0.3608  0.0283
13935TIP3    H163296   6.178   3.800   1.273  0.8263 -0.8028  0.2187
13935TIP3    H263297   6.099   3.857   1.388 -1.9980 -0.9001 -1.5928
13936TIP3   OH263298   0.084   3.239  15.649  0.1541  0.2647 -0.4688
13936TIP3    H163299   0.153   3.194  15.699  0.2841  1.3108  0.3420
13936TIP3    H263300   0.003   3.193  15.673  0.4403 -0.3605 -0.6805
13937TIP3   OH263301   5.998   4.961   5.448 -0.4519 -0.3188  0.3800
13937TIP3    H163302   5.960   5.024   5.509 -2.8886 -2.9304  1.8332
13937TIP3    H263303   5.957   4.981   5.364  1.0665  1.7903  0.0815
13938TIP3   OH263304   5.235   0.441  11.150 -0.4034 -0.2057 -0.3903
13938TIP3    H163305   5.311   0.429  11.094  0.2490 -1.5520  0.7415
13938TIP3    H263306   5.165   0.394  11.105 -0.0870 -0.5971 -0.4782
13939TIP3   OH263307   1.712   4.950  12.680  0.0030 -0.1160 -0.5305
13939TIP3    H163308   1.647   4.983  12.618 -1.9262  0.1300  1.5001
13939TIP3    H263309   1.761   5.028  12.707 -0.6756  0.1660 -0.0841
13940TIP3   OH263310   5.545   4.568   2.456 -0.0451  0.6251 -0.4440
13940TIP3    H163311   5.461   4.554   2.499  0.2451  2.4204  0.8542
13940TIP3    H263312   5.609   4.531   2.517  0.2068  1.0277 -0.4538
13941TIP3   OH263313   1.518   4.796   1.678 -0.5807 -0.3121 -0.0189
13941TIP3    H163314   1.571   4.730   1.722 -1.2953 -0.7964  0.1279
13941TIP3    H263315   1.535   4.877   1.726  0.8469 -0.2247 -0.6378
13942TIP3   OH263316   2.783   0.055  11.236 -0.4335 -0.0681  0.2313
13942TIP3    H163317   2.756  -0.032  11.265  1.0495 -0.9661 -0.9340
13942TIP3    H263318   2.702   0.099  11.210 -1.0125 -1.8647 -1.1628
13943TIP3   OH263319   0.451   0.977  16.047  0.3452  0.4547  0.2522
13943TIP3    H163320   0.476   0.986  16.139  1.8192  0.7943 -0.1489
13943TIP3    H263321   0.357   0.993  16.046  0.5293  1.8490  1.5166
13944TIP3   OH263322   1.012   6.810  12.954  0.0794  0.5815 -0.4627
13944TIP3    H163323   1.017   6.776  12.865 -1.2274  1.1913 -0.7909
13944TIP3    H263324   0.936   6.868  12.954  0.8339  1.6343  0.7042
13945TIP3   OH263325   0.203   1.165   1.505  0.2925 -0.8520 -0.0641
13945TIP3    H163326   0.140   1.097   1.484 -2.3587  1.1380  0.8029
13945TIP3    H263327   0.180   1.192   1.594  0.4873  1.8037 -0.7144
13946TIP3   OH263328   2.101   5.246  16.203  0.1253  0.1901 -0.3855
13946TIP3    H163329   2.184   5.294  16.200 -0.4495  1.2683  0.1445
13946TIP3    H263330   2.034   5.314  16.195 -0.7302 -0.4947  0.6095
13947TIP3   OH263331   1.753   5.076  15.566 -0.0860  0.6007  0.1264
13947TIP3    H163332   1.744   5.020  15.642 -0.3363  1.9528  1.1296
13947TIP3    H263333   1.680   5.053  15.509  0.9388 -1.4715 -0.4552
13948TIP3   OH263334   4.921   2.435   6.321  0.0743  0.1636 -0.3064
13948TIP3    H163335   4.876   2.476   6.247  0.1669  1.4122  0.3074
13948TIP3    H263336   4.850   2.400   6.375 -0.1093  0.9695 -0.0092
13949TIP3   OH263337   5.532   0.384   0.549  0.0344 -0.2933 -0.1178
13949TIP3    H163338   5.438   0.377   0.569  0.2668 -0.7970  0.8297
13949TIP3    H263339   5.568   0.434   0.623  0.7403 -1.3046  0.2295
13950TIP3   OH263340   5.738   4.720  12.619  0.1208 -0.4082  0.1107
13950TIP3    H163341   5.814   4.776  12.601  0.0707 -0.0893  0.8476
13950TIP3    H263342   5.764   4.670  12.697 -0.7509  0.3534  0.9197
13951TIP3   OH263343   5.826   1.346   3.706  0.0029 -0.1285 -0.0989
13951TIP3    H163344   5.805   1.276   3.645  0.7406 -0.5210  0.0826
13951TIP3    H263345   5.919   1.362   3.692 -0.1216  0.7016 -0.0150
13952TIP3   OH263346   2.657   4.895   2.722  0.6795  0.1461 -0.3456
13952TIP3    H163347   2.735   4.945   2.748 -0.4420  1.0777  1.4340
13952TIP3    H263348   2.629   4.851   2.802 -0.0172 -1.0704 -1.2278
13953TIP3   OH263349   6.150   6.238  16.690  0.2913 -0.4228  0.6173
13953TIP3    H163350   6.220   6.239  16.755  0.9568  0.0828 -0.0875
13953TIP3    H263351   6.070   6.242  16.741  0.7123 -2.2998  1.4940
13954TIP3   OH263352   0.982   0.999   3.329  0.1736  0.7458  0.5436
13954TIP3    H163353   1.075   0.976   3.317  0.0917 -1.9093  3.5848
13954TIP3    H263354   0.983   1.077   3.384  0.6802  0.1411  1.4266
13955TIP3   OH263355   4.737   5.365   3.165 -0.3748 -0.7296 -0.0535
13955TIP3    H163356   4.679   5.301   3.124  0.0979 -0.8975 -0.4677
13955TIP3    H263357   4.746   5.434   3.099  1.7231 -1.7835 -0.9390
13956TIP3   OH263358   2.917   5.469   5.266 -0.6218  0.1453  0.0488
13956TIP3    H163359   2.842   5.528   5.277 -1.6549 -1.0231 -0.5408
13956TIP3    H263360   2.921   5.420   5.348 -0.3578  0.3420  0.1578
13957TIP3   OH263361   2.183   0.780  13.386  0.0161  0.2275  0.3007
13957TIP3    H163362   2.103   0.741  13.421 -0.0616  0.9749  0.9883
13957TIP3    H263363   2.245   0.707  13.380 -0.9004 -0.4842 -0.8457
13958TIP3   OH263364   0.618   6.483  15.811 -0.1072  0.1381 -0.0826
13958TIP3    H163365   0.710   6.506  15.801 -0.0739 -0.3699 -1.0122
13958TIP3    H263366   0.613   6.442  15.898  1.0595 -2.1984 -1.0368
13959TIP3   OH263367   3.169   5.970   3.035  0.1538  0.5754  0.1963
13959TIP3    H163368   3.220   5.999   2.959  3.1084 -0.5435  1.6015
13959TIP3    H263369   3.182   6.038   3.100 -0.8881  0.6791  0.2986
13960TIP3   OH263370   2.964   3.184  15.363 -0.3744 -0.3725  0.0165
13960TIP3    H163371   3.009   3.233  15.431  2.4430 -1.7106 -0.6905
13960TIP3    H263372   2.881   3.158  15.402  0.7145 -0.2708  2.6080
13961TIP3   OH263373   0.945   6.748  14.732 -0.0926 -0.4859 -0.2646
13961TIP3    H163374   0.996   6.706  14.801 -0.9080  0.5810  1.0404
13961TIP3    H263375   0.867   6.693  14.723 -0.3577 -0.1996  0.2387
13962TIP3   OH263376   1.296   0.251  15.966 -0.0400  0.1628  0.1379
13962TIP3    H163377   1.201   0.242  15.961 -0.3138  2.5374 -0.3550
13962TIP3    H263378   1.330   0.177  15.917 -1.7431  0.7122 -2.0127
13963TIP3   OH263379   4.133   0.373   5.864 -0.1264  0.2354 -0.7067
13963TIP3    H163380   4.077   0.300   5.838 -0.7052  0.4372 -0.0388
13963TIP3    H263381   4.073   0.447   5.873  0.3760  0.6651 -0.8243
13964TIP3   OH263382   5.602   5.190  13.737 -0.1755  0.2274  0.6918
13964TIP3    H163383   5.514   5.169  13.707 -0.5454  0.7099  1.4063
13964TIP3    H263384   5.655   5.114  13.712 -0.7729 -0.0280  0.1842
13965TIP3   OH263385   2.388   1.939   1.818  0.0875  0.1433 -0.0196
13965TIP3    H163386   2.367   2.004   1.885  0.6884 -1.3630  1.7385
13965TIP3    H263387   2.308   1.886   1.810 -1.0587  2.0468 -2.7729
13966TIP3   OH263388   6.690   0.994  14.474 -0.5779  0.6448  0.2234
13966TIP3    H163389   6.616   0.980  14.416  0.4149  2.4947 -1.6092
13966TIP3    H263390   6.700   1.089  14.479  0.6647  0.4834  1.7872
13967TIP3   OH263391   0.183   3.279  13.051 -0.1179  0.3676  0.3719
13967TIP3    H163392   0.117   3.238  12.994  0.9484  0.7737 -1.2291
13967TIP3    H263393   0.267   3.252  13.014  0.6138  1.6013  1.0605
13968TIP3   OH263394   6.492   1.851   3.575 -0.1066 -0.1341 -0.5450
13968TIP3    H163395   6.479   1.945   3.591 -1.5584 -0.2961 -0.6108
13968TIP3    H263396   6.446   1.834   3.493 -0.6173 -1.0628 -0.0851
13969TIP3   OH263397   4.114   4.981   5.455 -0.4943 -0.4239  0.6066
13969TIP3    H163398   4.164   4.943   5.527 -1.8894  0.7614  2.2810
13969TIP3    H263399   4.067   5.054   5.494 -2.5150 -0.6731 -1.1488
13970TIP3   OH263400   0.254   5.023  12.675 -0.5143 -0.0414 -0.6851
13970TIP3    H163401   0.341   5.016  12.716 -0.3822  0.5698 -0.8515
13970TIP3    H263402   0.215   5.101  12.715 -0.7202  0.0709 -1.1022
13971TIP3   OH263403   5.450   0.559  15.225 -0.1228  0.1908 -0.4764
13971TIP3    H163404   5.421   0.489  15.284 -0.2860  1.2214  0.7410
13971TIP3    H263405   5.377   0.571  15.165 -1.0000  0.6939  0.6360
13972TIP3   OH263406   2.686   4.908  13.681 -0.3421  0.3842  0.4605
13972TIP3    H163407   2.658   4.838  13.622  0.5877  0.1153  0.3237
13972TIP3    H263408   2.773   4.933  13.649 -0.1634  0.7822  1.2293
13973TIP3   OH263409   3.708   6.836   4.880 -0.3647  0.2436  0.4624
13973TIP3    H163410   3.623   6.858   4.842  1.2658  4.1373 -1.4671
13973TIP3    H263411   3.688   6.776   4.951 -4.7330  1.2221  0.3190
13974TIP3   OH263412   1.043   4.028  13.381  0.0599  0.3522  0.7197
13974TIP3    H163413   1.078   4.036  13.293  0.4164  3.2365  1.0440
13974TIP3    H263414   0.983   3.953  13.376  0.4365  0.1453 -1.8135
13975TIP3   OH263415   3.826   3.859  13.260 -0.5163  0.0666 -0.5767
13975TIP3    H163416   3.830   3.876  13.354 -2.2779 -0.7731 -0.3153
13975TIP3    H263417   3.913   3.825  13.238  0.1047  0.7992  0.6144
13976TIP3   OH263418   5.151   3.482  16.399 -0.0778  0.0123  0.1926
13976TIP3    H163419   5.196   3.560  16.366 -1.7104 -0.5133 -3.8790
13976TIP3    H263420   5.079   3.517  16.452  1.1907  1.0541  1.3125
13977TIP3   OH263421   3.669   4.805  16.955 -0.0516  0.3198  0.4837
13977TIP3    H163422   3.583   4.773  16.927  0.1677  0.5532 -0.4978
13977TIP3    H263423   3.730   4.767  16.892  0.7531 -0.9806  1.9633
13978TIP3   OH263424   0.439   5.923   0.048 -0.1699  0.1215  0.0801
13978TIP3    H163425   0.453   5.885  -0.039  1.0819  1.5489 -0.4017
13978TIP3    H263426   0.400   6.009   0.030  1.1150  0.8955  0.8236
13979TIP3   OH263427   1.062   5.206   2.503 -0.7985 -0.0063  0.0251
13979TIP3    H163428   0.967   5.218   2.500 -0.6593  1.0441 -0.7605
13979TIP3    H263429   1.097   5.294   2.504  0.1818 -0.3858 -0.0781
13980TIP3   OH263430   2.511   4.269   4.091 -0.1608 -0.4628 -0.1653
13980TIP3    H163431   2.603   4.266   4.115 -0.2339 -0.7353  0.0923
13980TIP3    H263432   2.466   4.229   4.166 -0.6664  1.4174  0.6067
13981TIP3   OH263433   4.514   6.284  11.842 -0.2759  0.7974 -0.1011
13981TIP3    H163434   4.428   6.254  11.870 -0.1683  0.9586  0.4273
13981TIP3    H263435   4.508   6.380  11.846 -0.2473  0.8234 -0.6145
13982TIP3   OH263436   1.716   5.832   1.623  0.4484  0.3808 -0.4581
13982TIP3    H163437   1.717   5.786   1.707  1.1056  2.0863  0.5199
13982TIP3    H263438   1.789   5.796   1.574  0.4844 -0.1426 -0.0256
13983TIP3   OH263439   5.187   1.494   0.886  0.2792  0.1735  0.5785
13983TIP3    H163440   5.149   1.574   0.922 -0.6400 -0.1450  0.3499
13983TIP3    H263441   5.111   1.444   0.854  0.9252 -0.3399 -0.1816
13984TIP3   OH263442   4.611   3.198   2.914 -0.2144 -0.0648  0.5324
13984TIP3    H163443   4.533   3.217   2.967 -0.6416 -0.9109  0.2277
13984TIP3    H263444   4.645   3.116   2.950  2.1978  1.6533  2.5123
13985TIP3   OH263445   3.637   3.235  11.065  0.2487  0.6941 -0.4863
13985TIP3    H163446   3.575   3.268  11.000  0.3734  0.4639 -0.7210
13985TIP3    H263447   3.588   3.168  11.113  1.3038 -2.0604 -2.9316
13986TIP3   OH263448   3.437   6.300   4.767  0.2131  0.3891  0.5905
13986TIP3    H163449   3.497   6.249   4.713 -0.0956  2.1749 -1.6036
13986TIP3    H263450   3.351   6.285   4.728 -0.4501 -0.2488  2.2080
13987TIP3   OH263451   6.018   3.626   4.651 -0.1410 -0.3281  0.4775
13987TIP3    H163452   6.065   3.684   4.711 -0.5066 -1.2540  1.7055
13987TIP3    H263453   6.085   3.596   4.590 -0.1160  2.0730 -0.7919
13988TIP3   OH263454   0.208   4.953   5.178 -0.1334 -0.0523  0.3821
13988TIP3    H163455   0.217   4.934   5.271  0.8272  0.2940  0.3672
13988TIP3    H263456   0.219   4.868   5.135 -0.4751 -0.1952  0.5707
13989TIP3   OH263457   2.749   4.965   3.771  0.1651  0.3149 -0.4276
13989TIP3    H163458   2.785   5.033   3.714 -0.4985  1.4764  0.4970
13989TIP3    H263459   2.657   4.989   3.783  0.2728  0.0955  1.0850
13990TIP3   OH263460   5.522   1.225   2.665 -0.9520  0.0654  0.6587
13990TIP3    H163461   5.440   1.229   2.714 -0.6891  1.3038  1.0308
13990TIP3    H263462   5.588   1.255   2.728  0.2282 -3.2486  1.2003
13991TIP3   OH263463   6.060   5.070  16.143  0.5526 -0.1353  0.6796
13991TIP3    H163464   6.050   4.977  16.166  0.4779 -0.4503 -0.5617
13991TIP3    H263465   6.077   5.114  16.226  2.5196 -1.5213  1.0623
13992TIP3   OH263466   4.782   6.758   2.853  0.1869  0.2879 -0.2099
13992TIP3    H163467   4.786   6.664   2.836  1.0770  0.2692  0.0666
13992TIP3    H263468   4.729   6.766   2.932  0.5307 -0.0185  0.0492
13993TIP3   OH263469   4.267   4.087  13.376  0.0854 -0.3751  0.2294
13993TIP3    H163470   4.278   4.016  13.314 -0.9842 -0.4817  0.1381
13993TIP3    H263471   4.196   4.140  13.340  1.2648  1.0841 -0.0085
13994TIP3   OH263472   0.334   6.416  11.606  0.9301 -0.1093 -0.1218
13994TIP3    H163473   0.249   6.380  11.581  1.0340  0.2140 -0.9546
13994TIP3    H263474   0.314   6.476  11.678 -0.0054  2.3424 -2.2886
13995TIP3   OH263475   0.569   0.485   2.666 -0.6001  0.0735  0.1628
13995TIP3    H163476   0.579   0.561   2.723 -0.1937  0.3386 -0.2495
13995TIP3    H263477   0.653   0.479   2.620  0.2375 -1.9673  1.8004
13996TIP3   OH263478   0.520   3.583  15.758 -0.3483 -0.0526  0.3811
13996TIP3    H163479   0.601   3.583  15.808 -0.4769 -0.0273  0.5913
13996TIP3    H263480   0.543   3.622  15.674  0.7349 -3.2443 -0.9722
13997TIP3   OH263481   1.889   3.281   3.618 -0.4765  0.4952  0.6489
13997TIP3    H163482   1.898   3.376   3.623 -1.0900  0.6023 -0.0087
13997TIP3    H263483   1.921   3.249   3.702  0.3002  1.2372  0.6442
13998TIP3   OH263484   6.590   6.688  11.954  0.1641  0.1767  0.1205
13998TIP3    H163485   6.623   6.769  11.994  0.8731  0.2898 -0.6694
13998TIP3    H263486   6.666   6.650  11.911  0.2789 -1.8313  1.9317
13999TIP3   OH263487   4.236   4.122  10.907  0.2145 -0.1483  0.0189
13999TIP3    H163488   4.202   4.178  10.837 -0.4811  0.7595  1.0481
13999TIP3    H263489   4.192   4.038  10.895 -0.4813  0.2374 -0.1719
14000TIP3   OH263490   2.643   5.907  14.584 -0.3402  0.1144 -0.0382
14000TIP3    H163491   2.686   5.858  14.513  1.8472  0.4458  1.0018
14000TIP3    H263492   2.661   5.856  14.663  1.5645  2.2608  1.0086
14001TIP3   OH263493   3.840   4.028   4.845  0.2401  0.4378 -0.3391
14001TIP3    H163494   3.791   3.967   4.791 -2.2177  0.5148  1.6382
14001TIP3    H263495   3.927   3.988   4.854 -0.7549 -1.8961 -0.4811
14002TIP3   OH263496   1.149   6.029  15.963  0.0465  0.1820 -0.1462
14002TIP3    H163497   1.221   5.978  15.926  0.9701  1.9979 -0.9335
14002TIP3    H263498   1.074   6.008  15.907  0.8493  1.0242 -1.6062
14003TIP3   OH263499   5.903   0.483  12.566  0.0120 -0.3680  0.1238
14003TIP3    H163500   5.882   0.567  12.607  2.6021 -0.6059  2.2070
14003TIP3    H263501   5.969   0.503  12.501  0.0057 -0.7032  0.0104
14004TIP3   OH263502   6.310   4.986   3.920  0.1380 -0.1298 -0.2261
14004TIP3    H163503   6.219   5.010   3.901 -0.5196 -2.7087 -0.8439
14004TIP3    H263504   6.360   5.015   3.844 -0.2646  0.7358 -0.1681
14005TIP3   OH263505   6.215   3.244   3.553 -0.2846 -0.1583 -0.8737
14005TIP3    H163506   6.223   3.333   3.588  1.7668 -1.1130  1.3781
14005TIP3    H263507   6.129   3.213   3.583  0.4312 -0.0908  1.4148
14006TIP3   OH263508   2.486   3.550  13.157  0.2950  0.0883  0.0251
14006TIP3    H163509   2.520   3.638  13.144  0.3127  0.1925  0.7261
14006TIP3    H263510   2.453   3.523  13.071 -0.3814  1.0497 -0.0213
14007TIP3   OH263511   3.115   5.517   1.930 -0.1780  0.5895  0.2964
14007TIP3    H163512   3.067   5.542   2.009 -0.7589 -3.0749  1.2596
14007TIP3    H263513   3.204   5.499   1.960  0.3840  1.8808 -0.4776
14008TIP3   OH263514   4.704   3.041  12.706 -0.1213  0.5036  0.2414
14008TIP3    H163515   4.696   2.975  12.638 -0.5342 -1.0736  1.7291
14008TIP3    H263516   4.666   2.999  12.784 -0.9415  2.7134  1.1224
14009TIP3   OH263517   4.936   0.780   5.799  0.3897  0.4550 -0.0680
14009TIP3    H163518   4.993   0.843   5.843 -1.5358  2.7468 -0.6196
14009TIP3    H263519   4.884   0.741   5.869  1.9865 -1.0574  0.3427
14010TIP3   OH263520   0.978   4.106   5.407  0.6470  0.0216  0.0074
14010TIP3    H163521   1.016   4.193   5.419 -1.1527  0.9665 -0.7033
14010TIP3    H263522   0.939   4.085   5.492 -0.0853  0.5454 -0.1831
14011TIP3   OH263523   5.041   5.608  16.351  0.2883  0.3481  0.3395
14011TIP3    H163524   5.024   5.518  16.323  0.2812 -0.0164  1.4456
14011TIP3    H263525   5.000   5.614  16.437  3.2470  0.2921  1.8865
14012TIP3   OH263526   6.468   6.098  13.520 -0.2738 -0.3614 -0.2671
14012TIP3    H163527   6.491   6.069  13.609 -2.0719 -1.3323 -0.0694
14012TIP3    H263528   6.439   6.188  13.532  2.1944  0.5266 -0.3660
14013TIP3   OH263529   5.092   5.704   1.513 -0.5673 -0.2267  0.4380
14013TIP3    H163530   5.130   5.630   1.560 -0.7413 -2.5406 -2.7624
14013TIP3    H263531   5.162   5.770   1.511 -0.1195 -0.5588  2.6581
14014TIP3   OH263532   4.712   5.916  14.528  0.5415  0.4211  0.3330
14014TIP3    H163533   4.636   5.881  14.574 -0.1259 -0.2691 -1.2060
14014TIP3    H263534   4.692   5.901  14.435  0.7592  3.8292 -0.3827
14015TIP3   OH263535   1.376   2.058  11.145  0.4323  0.0013  0.1246
14015TIP3    H163536   1.303   2.106  11.184 -0.0281  1.0075 -1.8401
14015TIP3    H263537   1.342   2.026  11.062  2.0509  0.0187 -0.5867
14016TIP3   OH263538   1.007   0.325   2.657 -0.5574 -0.6723 -0.2233
14016TIP3    H163539   1.014   0.234   2.630 -0.0872 -0.7284  0.0764
14016TIP3    H263540   1.031   0.324   2.750 -0.5225 -0.2390 -0.2260
14017TIP3   OH263541   5.085   1.406  11.057 -0.3872 -0.0423  0.6255
14017TIP3    H163542   4.995   1.376  11.072  0.2619 -1.1618  2.7102
14017TIP3    H263543   5.100   1.472  11.125  0.6346 -0.4788  0.8427
14018TIP3   OH263544   1.835   6.615   0.775  0.3801 -0.0454  0.2195
14018TIP3    H163545   1.801   6.681   0.714  1.3223  1.1164  0.8947
14018TIP3    H263546   1.770   6.613   0.846 -0.7643 -1.4668 -0.8206
14019TIP3   OH263547   1.019   3.752   0.749  0.3382  0.1062  0.1599
14019TIP3    H163548   0.963   3.763   0.826  0.8458 -1.3831  0.7699
14019TIP3    H263549   0.959   3.759   0.674 -0.5263 -0.6529  0.7650
14020TIP3   OH263550   0.996   1.757  15.179  0.4499  0.5174 -0.3899
14020TIP3    H163551   0.971   1.772  15.088 -0.3482  0.2451 -0.2171
14020TIP3    H263552   1.090   1.737  15.174  0.2575 -0.2510 -1.2378
14021TIP3   OH263553   3.258   3.586   3.120  0.8708 -0.0831 -0.1046
14021TIP3    H163554   3.337   3.602   3.068  1.4244 -0.0417  0.7361
14021TIP3    H263555   3.192   3.643   3.080  1.0067 -0.7697 -1.3746
14022TIP3   OH263556   1.608   3.037  13.590  0.0498  0.0993 -0.5278
14022TIP3    H163557   1.640   2.989  13.514  1.3964 -2.3960  1.4477
14022TIP3    H263558   1.681   3.033  13.653 -1.0170  1.9957  0.9515
14023TIP3   OH263559   3.003   3.581   0.632  0.2452 -0.5458 -0.0112
14023TIP3    H163560   3.064   3.652   0.655  0.2903 -0.8114  0.7202
14023TIP3    H263561   2.924   3.601   0.681 -0.1870 -0.3248 -0.7902
14024TIP3   OH263562   6.397   4.825   0.783 -0.3348 -0.5712  0.1247
14024TIP3    H163563   6.307   4.848   0.762 -1.3627 -2.0871  2.4848
14024TIP3    H263564   6.419   4.755   0.720 -1.9518 -2.3419  1.4263
14025TIP3   OH263565   6.320   5.182  12.145  0.3850 -0.0740 -0.3558
14025TIP3    H163566   6.312   5.210  12.237  0.5068  0.5465 -0.5301
14025TIP3    H263567   6.397   5.229  12.113  1.6565 -1.9630 -0.1746
14026TIP3   OH263568   2.981   6.695  10.280 -0.0013  0.0263  0.0083
14026TIP3    H163569   2.909   6.667  10.336  1.3614 -0.9630  1.3262
14026TIP3    H263570   2.999   6.785  10.306 -0.2045 -0.0020  0.2457
14027TIP3   OH263571   6.406   0.600   1.917  0.2422 -0.3401  0.1272
14027TIP3    H163572   6.379   0.508   1.911 -0.4786 -0.0584 -1.5713
14027TIP3    H263573   6.499   0.596   1.941  0.1739 -1.5016  0.2684
14028TIP3   OH263574   6.060   4.045  15.779 -0.3891 -0.8218  0.2599
14028TIP3    H163575   6.051   4.138  15.758 -0.1059 -0.5425  1.3196
14028TIP3    H263576   6.100   4.044  15.866 -0.6952 -1.9323  0.3987
14029TIP3   OH263577   1.080   0.585  12.986  0.0883  0.2566 -0.2350
14029TIP3    H163578   1.073   0.550  13.074  0.8077  0.0289 -0.2635
14029TIP3    H263579   1.130   0.520  12.937 -1.2493 -0.1572 -1.1119
14030TIP3   OH263580   5.087   2.979   3.170 -0.0763  0.7652  0.6528
14030TIP3    H163581   5.011   2.948   3.219 -0.1102  0.9210  0.7005
14030TIP3    H263582   5.057   2.983   3.079 -0.4797  1.8970  0.8127
14031TIP3   OH263583   4.061   5.141   0.349  0.2542 -0.1381 -0.4286
14031TIP3    H163584   4.066   5.230   0.313 -1.3990 -0.1294 -0.7295
14031TIP3    H263585   3.991   5.146   0.414  0.5472 -1.0917 -0.0280
14032TIP3   OH263586   4.502   2.962   5.587  0.2419 -0.1142  0.4176
14032TIP3    H163587   4.483   3.053   5.608  2.3023  0.1466  1.3623
14032TIP3    H263588   4.493   2.916   5.670  0.3997 -0.5622  0.1876
14033TIP3   OH263589   1.183   3.285   5.269 -0.4187  0.1047 -0.7470
14033TIP3    H163590   1.205   3.360   5.324 -1.2638  1.6685 -2.3978
14033TIP3    H263591   1.089   3.295   5.253 -0.9199 -2.3081  0.3583
14034TIP3   OH263592   5.440   3.930  16.270 -1.0243 -0.2589 -0.2964
14034TIP3    H163593   5.348   3.911  16.287 -1.1847  1.3230  0.7026
14034TIP3    H263594   5.482   3.928  16.356 -0.2582 -0.2157 -0.6577
14035TIP3   OH263595   3.102   6.745  11.581 -0.1069 -0.7917 -0.1148
14035TIP3    H163596   3.090   6.787  11.496  0.9798 -2.4031 -1.1111
14035TIP3    H263597   3.035   6.678  11.585 -1.9496  1.0105  1.5485
14036TIP3   OH263598   0.453   4.208   5.375 -0.2663  0.5019  0.0301
14036TIP3    H163599   0.370   4.170   5.346 -0.3393  1.1212 -0.6045
14036TIP3    H263600   0.428   4.286   5.425 -0.0963  0.0622  0.8288
14037TIP3   OH263601   4.392   6.582  12.353  0.0799 -0.3391 -0.1115
14037TIP3    H163602   4.452   6.596  12.281 -0.4217  1.6007 -0.2027
14037TIP3    H263603   4.309   6.557  12.311 -0.0086  0.0560 -0.1776
14038TIP3   OH263604   6.528   6.212  14.794  0.5898  0.2105 -0.5592
14038TIP3    H163605   6.543   6.123  14.763  1.0812  0.0941 -0.0193
14038TIP3    H263606   6.436   6.213  14.821  0.8128 -0.4142  0.2810
14039TIP3   OH263607   2.951   6.474  15.397 -0.1664 -0.3509 -0.1348
14039TIP3    H163608   2.991   6.510  15.318 -0.8303 -0.8955 -0.7358
14039TIP3    H263609   2.941   6.549  15.455  0.9953 -0.0701 -0.2739
14040TIP3   OH263610   1.681   1.494   5.549  0.0716  0.8600 -0.3961
14040TIP3    H163611   1.667   1.566   5.488 -1.4844  0.5951 -0.3841
14040TIP3    H263612   1.773   1.469   5.535 -0.5839 -0.1980 -3.7477
14041TIP3   OH263613   3.347   6.243  15.628  0.3635 -0.6004  0.4019
14041TIP3    H163614   3.405   6.220  15.701  0.5160 -1.2316  0.0939
14041TIP3    H263615   3.296   6.163  15.611  0.2175 -0.4132 -0.0733
14042TIP3   OH263616   6.656   6.692   4.703 -0.0502  0.1597  0.3276
14042TIP3    H163617   6.742   6.699   4.744  0.2712  0.8568 -0.4276
14042TIP3    H263618   6.627   6.603   4.721 -0.8411  0.9991  3.8064
14043TIP3   OH263619   4.848   6.633  16.739 -0.2346 -0.3299  0.0500
14043TIP3    H163620   4.914   6.653  16.806 -0.2242 -2.4260  0.7247
14043TIP3    H263621   4.765   6.633  16.788 -0.2212 -1.9138  0.1018
14044TIP3   OH263622   3.056   0.383  11.126  0.2733 -0.2976  0.0913
14044TIP3    H163623   2.977   0.379  11.072 -0.8894  0.6378  1.6374
14044TIP3    H263624   3.085   0.474  11.119  1.9551 -0.9058 -1.4194
14045TIP3   OH263625   3.174   4.983   0.909  0.1549  0.3349 -0.4038
14045TIP3    H163626   3.217   4.898   0.897 -3.2039 -1.3761 -1.4624
14045TIP3    H263627   3.198   5.033   0.831  1.0633 -0.1104 -0.4298
14046TIP3   OH263628   6.224   5.809   0.312 -0.1545  0.6567 -0.0111
14046TIP3    H163629   6.167   5.826   0.387 -0.0038  1.5175 -0.0779
14046TIP3    H263630   6.177   5.845   0.238  0.1133  0.6389 -0.1907
14047TIP3   OH263631   5.919   5.743   0.302  0.5747  0.2308 -0.1162
14047TIP3    H163632   5.837   5.729   0.349  0.3394  0.1368 -0.5488
14047TIP3    H263633   5.978   5.780   0.368  0.2897 -0.0148  0.2806
14048TIP3   OH263634   5.220   2.836   5.505  0.3075 -0.1860 -0.3665
14048TIP3    H163635   5.230   2.750   5.547 -0.4131 -0.8346 -1.4565
14048TIP3    H263636   5.302   2.848   5.456  0.3025 -0.3895 -0.4284
14049TIP3   OH263637   5.415   4.552  16.686  0.5354  0.4651 -0.7259
14049TIP3    H163638   5.326   4.536  16.718  0.5841 -2.2214 -1.6638
14049TIP3    H263639   5.469   4.486  16.728  1.8873  1.2898 -1.0847
14050TIP3   OH263640   4.551   3.793   1.167 -0.7808 -0.2734 -0.4581
14050TIP3    H163641   4.628   3.738   1.181 -0.9865 -0.4529 -0.0436
14050TIP3    H263642   4.580   3.881   1.190 -0.6139 -0.2925 -0.5909
14051TIP3   OH263643   6.136   0.872  16.773  0.2320  0.2688 -0.6099
14051TIP3    H163644   6.150   0.952  16.824  0.7876  0.1268 -0.5300
14051TIP3    H263645   6.183   0.804  16.822 -1.0391 -0.3065 -0.1582
14052TIP3   OH263646   5.830   6.725   1.717 -0.3191  0.7353 -0.3850
14052TIP3    H163647   5.774   6.794   1.681 -2.4550 -1.1296 -0.8719
14052TIP3    H263648   5.856   6.673   1.641 -1.2076 -0.6772  0.2395
14053TIP3   OH263649   2.157   0.672   0.764 -0.9988  0.0516 -0.2953
14053TIP3    H163650   2.233   0.721   0.732  0.7590 -2.1407  0.2767
14053TIP3    H263651   2.125   0.725   0.837  0.4687  0.6912 -0.0624
14054TIP3   OH263652   3.086   4.994  10.572  0.6052  0.4968 -0.0561
14054TIP3    H163653   3.008   5.038  10.606  0.2212 -0.9865  1.1294
14054TIP3    H263654   3.153   5.062  10.570 -0.3775  1.5067  0.1279
14055TIP3   OH263655   6.780   1.320   2.812 -0.0276 -0.0251  0.1915
14055TIP3    H163656   6.771   1.232   2.774  1.8924  0.0549 -0.5490
14055TIP3    H263657   6.708   1.370   2.773 -0.7480 -1.0849  0.1101
14056TIP3   OH263658   0.860   3.162  11.642  0.2521  0.4908 -0.4350
14056TIP3    H163659   0.936   3.212  11.670  3.3271 -2.3963 -2.7619
14056TIP3    H263660   0.817   3.216  11.576  2.7755  0.6801 -2.0396
14057TIP3   OH263661   4.711   0.974   4.331  0.0028 -0.2129 -0.6198
14057TIP3    H163662   4.706   0.984   4.426  0.8170  0.9451 -0.6776
14057TIP3    H263663   4.653   1.041   4.297 -1.7788 -1.8495 -0.9491
14058TIP3   OH263664   3.613   4.110  12.818 -0.0015 -0.7460 -0.2495
14058TIP3    H163665   3.659   4.053  12.879 -1.2713 -0.2391  1.2517
14058TIP3    H263666   3.533   4.134  12.864 -0.2599  0.9321 -1.4879
14059TIP3   OH263667   2.204   4.190  12.821  0.0374  0.1346 -0.3838
14059TIP3    H163668   2.167   4.274  12.796  2.1233  0.6957 -1.8673
14059TIP3    H263669   2.294   4.193  12.790  0.8389 -1.8143  1.4757
14060TIP3   OH263670   1.671   0.019   5.468  0.0426 -0.1548  0.2651
14060TIP3    H163671   1.595   0.073   5.444 -0.1456 -0.0619  1.0400
14060TIP3    H263672   1.734   0.081   5.504  2.1948  0.4559 -3.9131
14061TIP3   OH263673   2.498   0.687  11.689  0.4991  0.7209  0.0238
14061TIP3    H163674   2.587   0.665  11.715  0.4645  0.5824  0.0259
14061TIP3    H263675   2.444   0.662  11.764  0.3114 -0.3891 -0.4562
14062TIP3   OH263676   4.609   4.120  16.922  0.0803 -0.5440  0.2101
14062TIP3    H163677   4.704   4.107  16.925  0.2124  0.4320  0.6471
14062TIP3    H263678   4.592   4.186  16.989 -0.2350  3.0550 -3.0422
14063TIP3   OH263679   4.778   5.634   5.925 -0.1883  0.3537  0.0462
14063TIP3    H163680   4.771   5.714   5.977  1.1843  0.3971  0.2067
14063TIP3    H263681   4.810   5.568   5.986  2.2518  0.6062 -0.8248
14064TIP3   OH263682   2.855   4.924   4.460  0.0789  0.4437  0.3563
14064TIP3    H163683   2.889   4.852   4.407 -0.6826  0.5783 -0.3347
14064TIP3    H263684   2.803   4.881   4.528 -1.1303  0.3439 -0.5933
14065TIP3   OH263685   1.041   6.080   3.674  0.3573  0.0344 -0.2771
14065TIP3    H163686   1.071   6.106   3.762  2.0083 -1.6612 -0.2759
14065TIP3    H263687   1.047   5.985   3.674 -3.8472 -0.3950 -0.8230
14066TIP3   OH263688   4.220   3.020  11.954  0.1876  0.1964 -0.7397
14066TIP3    H163689   4.198   3.009  12.047  2.0219 -0.6549 -0.3612
14066TIP3    H263690   4.316   3.024  11.952  0.2398 -0.6805 -2.6775
14067TIP3   OH263691   1.826   2.849   3.242 -0.5493 -0.1717 -0.3092
14067TIP3    H163692   1.812   2.931   3.289  0.6572 -0.3834  0.4680
14067TIP3    H263693   1.833   2.875   3.150  0.9156  0.7708  0.0330
14068TIP3   OH263694   4.398   5.148  11.286 -0.2179 -0.3335  0.0278
14068TIP3    H163695   4.339   5.099  11.344  0.0877 -1.0746 -0.2827
14068TIP3    H263696   4.480   5.098  11.287  0.0807  0.1450 -0.3378
14069TIP3   OH263697   5.960   3.628   0.645  0.2946 -0.2736  0.7906
14069TIP3    H163698   5.910   3.565   0.594  1.9791 -0.6956 -0.4127
14069TIP3    H263699   5.894   3.685   0.685 -1.1373 -1.0297 -0.4219
14070TIP3   OH263700   2.263   3.362   0.191  0.1950  0.4311 -0.0407
14070TIP3    H163701   2.284   3.364   0.284 -0.5095 -0.3619  0.1469
14070TIP3    H263702   2.174   3.397   0.185 -0.4713 -1.2233 -0.1868
14071TIP3   OH263703   3.172   3.017   3.563 -0.3940 -0.0534 -0.3693
14071TIP3    H163704   3.099   2.996   3.623  0.3336 -2.3461 -0.1860
14071TIP3    H263705   3.250   3.002   3.616  0.2328  0.9593 -1.0005
14072TIP3   OH263706   4.678   6.155  11.406 -0.3180  0.3609 -0.2478
14072TIP3    H163707   4.743   6.225  11.420  0.1215 -0.0181 -0.3472
14072TIP3    H263708   4.596   6.192  11.437  0.2017  0.3737  1.2081
14073TIP3   OH263709   2.762   3.241  14.637 -0.1746  0.2218 -0.0888
14073TIP3    H163710   2.667   3.228  14.630 -0.1763  0.1980 -0.0267
14073TIP3    H263711   2.794   3.239  14.547 -0.4359  1.7577 -0.2403
14074TIP3   OH263712   5.233   4.765  15.131  0.1672 -0.4646 -0.2688
14074TIP3    H163713   5.317   4.728  15.157 -0.6478 -1.0269  1.7322
14074TIP3    H263714   5.169   4.697  15.150 -0.7197 -0.2925 -2.3609
14075TIP3   OH263715   5.160   2.741   0.900  0.1040  0.1895  0.0200
14075TIP3    H163716   5.154   2.781   0.813 -1.0084 -2.0126 -0.9924
14075TIP3    H263717   5.073   2.705   0.915 -0.3395  2.1999  2.9773
14076TIP3   OH263718   4.636   0.626  12.800  0.1170 -0.3411 -0.1226
14076TIP3    H163719   4.551   0.621  12.843 -0.7740 -2.1064 -1.9526
14076TIP3    H263720   4.684   0.550  12.833  1.3636  1.0944  1.5360
14077TIP3   OH263721   4.832   0.389   6.203 -0.1101 -0.0784 -0.2203
14077TIP3    H163722   4.740   0.395   6.176 -0.3692 -1.9776  0.0421
14077TIP3    H263723   4.880   0.437   6.136 -1.3445  1.8857  0.2102
14078TIP3   OH263724   5.893   4.824   2.874  0.2355  0.0983  0.5238
14078TIP3    H163725   5.806   4.795   2.849 -0.0325  0.7407  0.6831
14078TIP3    H263726   5.879   4.905   2.923  0.7657 -1.0221  2.6622
14079TIP3   OH263727   5.383   1.383  13.007  0.1079 -0.0767 -0.0849
14079TIP3    H163728   5.427   1.363  13.089 -1.3011  1.3318  1.0661
14079TIP3    H263729   5.454   1.398  12.944  1.2512  0.5546  1.3088
14080TIP3   OH263730   5.811   4.494  14.099  0.2177  0.2939  0.1694
14080TIP3    H163731   5.802   4.548  14.021  0.8072 -0.3729 -0.3839
14080TIP3    H263732   5.754   4.419  14.083  1.0024 -0.2751 -0.0234
14081TIP3   OH263733   4.318   0.784  15.561 -0.4968  0.2366  0.3053
14081TIP3    H163734   4.300   0.757  15.470 -0.0449  1.6659 -0.2281
14081TIP3    H263735   4.411   0.766  15.573 -0.0401  2.0209 -0.2611
14082TIP3   OH263736   1.255   2.555  16.435  0.1471 -0.1630  0.3117
14082TIP3    H163737   1.172   2.514  16.457 -0.6345  0.4895 -1.3148
14082TIP3    H263738   1.276   2.524  16.347  0.7554  0.9926  0.0201
14083TIP3   OH263739   1.655   4.990  14.637 -0.0326 -0.0227  0.4420
14083TIP3    H163740   1.608   4.965  14.557 -1.6337 -0.1794  1.3908
14083TIP3    H263741   1.650   5.086  14.638  0.5158  0.0167  0.0676
14084TIP3   OH263742   0.815   5.961   1.822  0.3462 -0.0781  0.0149
14084TIP3    H163743   0.837   5.886   1.877  2.8680  1.3759  1.1727
14084TIP3    H263744   0.867   5.949   1.743  2.1798  1.2387  0.9482
14085TIP3   OH263745   3.763   2.341  13.875 -0.2267  0.2931 -0.1039
14085TIP3    H163746   3.791   2.264  13.924 -1.2626 -1.4104 -2.0383
14085TIP3    H263747   3.675   2.360  13.909  0.0271  0.6781  0.3692
14086TIP3   OH263748   6.271   2.666  13.005 -0.0258 -0.3286 -0.6802
14086TIP3    H163749   6.188   2.697  12.968  0.6579  0.4712 -1.5709
14086TIP3    H263750   6.304   2.739  13.057 -0.1968 -0.8925  0.2679
14087TIP3   OH263751   5.677   6.716  13.904  0.0794 -0.2570  0.2738
14087TIP3    H163752   5.600   6.720  13.961  0.5106 -1.2219  0.9555
14087TIP3    H263753   5.662   6.639  13.848  0.1915  0.0035 -0.1158
14088TIP3   OH263754   5.036   5.417   4.715 -0.4156  0.1577  0.3128
14088TIP3    H163755   5.025   5.367   4.796 -1.5079  0.6387  0.4764
14088TIP3    H263756   4.946   5.438   4.688 -0.1183 -0.7022 -1.4625
14089TIP3   OH263757   1.039   2.839  13.073 -0.2471  0.2990 -0.5291
14089TIP3    H163758   1.100   2.774  13.108  2.0885  1.5105 -2.0814
14089TIP3    H263759   0.980   2.788  13.018 -0.3325 -0.8441  0.5673
14090TIP3   OH263760   1.809   5.209  15.061  0.1017  0.3827  0.1974
14090TIP3    H163761   1.733   5.155  15.083 -0.5201  1.3279  0.4742
14090TIP3    H263762   1.782   5.298  15.085  1.0973  0.8121 -0.2197
14091TIP3   OH263763   4.215   5.703   0.930  0.1939 -0.0578  0.4877
14091TIP3    H163764   4.260   5.619   0.917  0.6122  0.1608  0.4841
14091TIP3    H263765   4.141   5.700   0.870 -1.1472 -1.3769  2.1154
14092TIP3   OH263766   2.310   3.506  12.921  0.3634 -0.3816  0.2260
14092TIP3    H163767   2.287   3.413  12.925 -0.4236 -0.1852  0.5939
14092TIP3    H263768   2.380   3.511  12.857  2.3149 -1.5987  2.1143
14093TIP3   OH263769   3.499   0.676  16.263  0.2811 -0.3030  0.1477
14093TIP3    H163770   3.557   0.745  16.232 -1.2046  1.2715  0.6896
14093TIP3    H263771   3.419   0.687  16.212 -0.1505 -1.3323  0.5779
14094TIP3   OH263772   3.611   2.087   2.295 -0.5119  0.2035 -0.5865
14094TIP3    H163773   3.592   2.180   2.308  1.0936  0.3564  1.0947
14094TIP3    H263774   3.583   2.069   2.206 -1.9544  1.9927 -0.5599
14095TIP3   OH263775   1.706   5.555  13.071 -0.2611 -0.1505  0.2246
14095TIP3    H163776   1.650   5.532  12.997  0.7178 -1.3208 -0.1986
14095TIP3    H263777   1.740   5.642  13.050  0.0033 -0.4692 -0.7151
14096TIP3   OH263778   4.112   5.720  16.681 -0.0427 -0.5188  0.0427
14096TIP3    H163779   4.025   5.758  16.688  0.1409 -0.0751 -0.0697
14096TIP3    H263780   4.171   5.790  16.709  0.3893 -0.2687 -1.4095
14097TIP3   OH263781   2.627   1.719   3.073  0.1975 -0.0645  0.2462
14097TIP3    H163782   2.532   1.725   3.062  0.3210  1.4684 -0.2881
14097TIP3    H263783   2.643   1.756   3.159  0.4646  1.7917 -0.5550
14098TIP3   OH263784   3.313   3.960   4.824  0.3892 -0.1578 -0.1422
14098TIP3    H163785   3.379   4.021   4.790 -1.6955  0.9057 -2.5916
14098TIP3    H263786   3.238   3.970   4.765 -1.3122 -2.6598  1.4026
14099TIP3   OH263787   3.050   6.225   2.200 -0.0698  0.2425  0.8418
14099TIP3    H163788   3.141   6.196   2.192 -0.5069 -1.2067  0.8802
14099TIP3    H263789   3.056   6.308   2.247  1.1504 -0.5495  2.1751
14100TIP3   OH263790   3.091   1.245  11.544 -0.0832  0.5816  0.0068
14100TIP3    H163791   3.139   1.317  11.503  1.2682 -0.8184 -0.9633
14100TIP3    H263792   3.025   1.220  11.480  0.7164 -0.2883 -0.4968
14101TIP3   OH263793   6.495   4.833   1.713 -0.3300  0.1624 -0.4388
14101TIP3    H163794   6.535   4.794   1.635  0.6005  0.8518 -0.3148
14101TIP3    H263795   6.531   4.922   1.717 -1.7240  0.7520 -0.2164
14102TIP3   OH263796   3.838   1.801   2.859  0.3585  0.5023 -0.0066
14102TIP3    H163797   3.837   1.819   2.765 -0.8961  1.0135  0.1010
14102TIP3    H263798   3.752   1.826   2.890  0.0561 -1.5026  0.9461
14103TIP3   OH263799   5.361   6.066   1.113  0.0477  0.3913 -0.4496
14103TIP3    H163800   5.377   6.161   1.118 -0.0168  0.3331  1.1450
14103TIP3    H263801   5.375   6.045   1.020  1.8911  1.6481 -0.5233
14104TIP3   OH263802   4.485   0.317   6.709  0.1493 -0.2483 -0.1374
14104TIP3    H163803   4.473   0.257   6.635 -0.1919  1.5744 -1.6541
14104TIP3    H263804   4.511   0.261   6.782  0.9095 -2.0878 -1.7332
14105TIP3   OH263805   1.454   6.589   3.921 -0.1493  0.0051 -0.2378
14105TIP3    H163806   1.405   6.672   3.916  1.1427  0.7490 -1.7994
14105TIP3    H263807   1.546   6.616   3.914  0.2834 -1.5747 -0.9786
14106TIP3   OH263808   2.084   2.901   5.885  0.0615 -0.4668  0.2198
14106TIP3    H163809   2.041   2.986   5.875 -0.7649 -0.8767  0.2180
14106TIP3    H263810   2.032   2.856   5.952  0.4090 -1.0216  0.1198
14107TIP3   OH263811   1.877   6.471   3.828  0.2500 -0.2387 -0.1893
14107TIP3    H163812   1.852   6.425   3.747  1.1604 -0.9505 -0.0768
14107TIP3    H263813   1.963   6.437   3.850 -1.2572 -2.5147  2.8848
14108TIP3   OH263814   1.395   0.873   0.310 -0.2112  0.4854  0.8323
14108TIP3    H163815   1.308   0.908   0.325 -0.5507  0.4716 -0.9533
14108TIP3    H263816   1.452   0.925   0.367 -1.3630  0.4192  2.0939
14109TIP3   OH263817   0.514   2.325   0.285  0.1586  0.3900  0.2994
14109TIP3    H163818   0.530   2.329   0.379  0.5006 -0.2700  0.2795
14109TIP3    H263819   0.453   2.397   0.268  1.0773  1.3108  0.8053
14110TIP3   OH263820   2.988   3.583   6.213 -0.7519 -0.1245 -0.1596
14110TIP3    H163821   3.025   3.495   6.218 -0.8914 -0.1137  1.6159
14110TIP3    H263822   2.929   3.589   6.289 -0.9258  1.4134 -0.3796
14111TIP3   OH263823   6.539   0.710   3.851  0.1813  0.0979  0.3083
14111TIP3    H163824   6.459   0.702   3.799 -0.1229 -0.1207  0.8165
14111TIP3    H263825   6.603   0.745   3.789 -0.5816  1.3190  0.1698
14112TIP3   OH263826   1.441   5.710  12.468  0.3691 -0.3243 -0.2178
14112TIP3    H163827   1.358   5.704  12.421  0.6365 -0.7691 -0.6404
14112TIP3    H263828   1.457   5.622  12.500  0.4671 -0.1453  0.2411
14113TIP3   OH263829   2.766   4.162  14.155 -0.2469 -0.6423  0.1678
14113TIP3    H163830   2.767   4.255  14.174 -1.1681 -0.5568 -0.1728
14113TIP3    H263831   2.712   4.124  14.225  1.8864 -1.2311  1.5892
14114TIP3   OH263832   0.228   2.227  11.507  0.2668  0.0845 -0.5232
14114TIP3    H163833   0.217   2.322  11.510  0.4438  0.0924  0.3307
14114TIP3    H263834   0.290   2.209  11.578  0.1506 -0.6752 -0.6142
14115TIP3   OH263835   4.985   1.794  15.880  0.5877 -0.0666  0.2030
14115TIP3    H163836   5.019   1.774  15.967  0.7295  0.1983  0.2103
14115TIP3    H263837   4.911   1.852  15.897  0.5843 -0.0561  0.1506
14116TIP3   OH263838   0.137   3.216  17.032  0.4220  0.6120  0.4409
14116TIP3    H163839   0.193   3.264  17.093  0.8050 -0.9057  1.3540
14116TIP3    H263840   0.081   3.162  17.088 -0.9435  0.9854 -0.5060
14117TIP3   OH263841   5.268   3.042   5.163 -0.0552 -0.1353 -0.2180
14117TIP3    H163842   5.306   2.975   5.220 -0.4397  0.4869  0.7965
14117TIP3    H263843   5.185   3.065   5.205  1.1087  2.6585  0.8083
14118TIP3   OH263844   2.456   1.469  13.474 -0.6820 -0.2206  0.3489
14118TIP3    H163845   2.389   1.402  13.487 -1.9863  1.0911  0.5997
14118TIP3    H263846   2.419   1.548  13.514  0.0461  1.1045 -1.4810
14119TIP3   OH263847   0.623   6.293   3.930  0.2355  0.1397  0.2695
14119TIP3    H163848   0.547   6.335   3.969 -1.8499 -2.6349 -0.5395
14119TIP3    H263849   0.642   6.345   3.852 -2.1093 -0.2230 -0.6010
14120TIP3   OH263850   2.593   6.142   0.601  0.1180 -0.1826  0.0983
14120TIP3    H163851   2.516   6.160   0.547  0.1982  1.1995  0.4057
14120TIP3    H263852   2.579   6.053   0.634 -1.2829  0.0033  0.0591
14121TIP3   OH263853   6.165   0.520   4.255  0.4017 -0.9167 -0.3103
14121TIP3    H163854   6.237   0.479   4.207  1.4458  0.7415 -0.2237
14121TIP3    H263855   6.146   0.459   4.327  2.2210 -1.0496  0.0908
14122TIP3   OH263856   5.489   3.092  11.382 -0.2922  0.3942  0.2116
14122TIP3    H163857   5.433   3.145  11.439 -0.4995 -0.0457  0.4170
14122TIP3    H263858   5.562   3.066  11.439  0.3004  1.2201 -0.1319
14123TIP3   OH263859   1.888   2.612   5.825 -0.2722 -0.7079  0.3797
14123TIP3    H163860   1.820   2.679   5.824 -1.2850 -1.6525  1.9441
14123TIP3    H263861   1.970   2.660   5.828 -0.9850  0.4729  1.7039
14124TIP3   OH263862   1.807   3.814   4.955  0.2729 -0.2320  0.1242
14124TIP3    H163863   1.818   3.805   5.050 -0.2256  0.4663  0.2511
14124TIP3    H263864   1.863   3.745   4.919  2.4705  1.0529  0.8506
14125TIP3   OH263865   5.322   2.901   4.680  0.1307 -0.4254  0.0560
14125TIP3    H163866   5.401   2.886   4.627  0.8704  0.2928  0.9136
14125TIP3    H263867   5.350   2.885   4.770 -0.6084  0.1951  0.4122
14126TIP3   OH263868   3.058   6.079  14.917 -0.0772 -0.4642  0.1089
14126TIP3    H163869   3.143   6.068  14.875  1.0650  1.1381  1.8503
14126TIP3    H263870   3.040   5.993  14.956  0.5778 -0.9042 -0.5246
14127TIP3   OH263871   0.376   6.480   4.395  0.2131 -0.4589 -0.2782
14127TIP3    H163872   0.344   6.401   4.351 -2.0657 -1.2974  2.5896
14127TIP3    H263873   0.351   6.552   4.336  1.0132 -1.7058 -2.2403
14128TIP3   OH263874   2.226   6.610   2.351  0.4197 -0.1630  0.4138
14128TIP3    H163875   2.282   6.686   2.334  1.2831 -0.7685  0.4623
14128TIP3    H263876   2.288   6.537   2.360 -0.3298 -0.6967  1.3408
14129TIP3   OH263877   4.605   4.902   0.879 -0.0359  0.2997 -0.0145
14129TIP3    H163878   4.606   4.826   0.822  1.1687 -0.6965  1.2507
14129TIP3    H263879   4.614   4.977   0.820  2.0545 -0.7246 -1.1056
14130TIP3   OH263880   6.154   1.846  11.596 -0.1336 -0.1291  0.1205
14130TIP3    H163881   6.179   1.826  11.686  1.0280  0.8666  0.0560
14130TIP3    H263882   6.093   1.920  11.605  1.3006  1.1060  0.0458
14131TIP3   OH263883   6.271   3.173   5.972  0.6335  0.0642  0.4867
14131TIP3    H163884   6.214   3.213   5.906 -1.1063 -1.1133  1.2011
14131TIP3    H263885   6.334   3.242   5.994 -0.6606  1.5334 -0.1711
14132TIP3   OH263886   4.844   1.610   2.048  0.1711 -0.1567  0.0565
14132TIP3    H163887   4.824   1.517   2.053 -0.5797 -0.0735 -0.9961
14132TIP3    H263888   4.879   1.622   1.959  3.2076  0.0436  1.1583
14133TIP3   OH263889   3.552   5.231   3.462  0.2437 -0.7807  0.5190
14133TIP3    H163890   3.548   5.140   3.433  3.5373 -0.3653 -1.9018
14133TIP3    H263891   3.490   5.277   3.406 -0.9350 -1.4184  1.2796
14134TIP3   OH263892   4.412   0.886  11.622 -0.4215 -0.0921  0.2631
14134TIP3    H163893   4.421   0.945  11.697  1.8912  1.2108 -0.9288
14134TIP3    H263894   4.318   0.875  11.612 -0.8319  0.5016  2.7164
14135TIP3   OH263895   0.577   0.572   2.370  0.1331  0.3322 -0.2172
14135TIP3    H163896   0.515   0.592   2.440  1.1613 -0.5005  0.9792
14135TIP3    H263897   0.616   0.489   2.396  1.4078  0.6005 -1.1868
14136TIP3   OH263898   0.760   1.364  10.770  0.3556 -0.4370  0.0555
14136TIP3    H163899   0.702   1.404  10.835  0.8911 -0.0392  0.2973
14136TIP3    H263900   0.848   1.385  10.801  0.6329  1.0842 -1.5806
14137TIP3   OH263901   6.221   6.318   6.339  0.3449  0.1291  0.1041
14137TIP3    H163902   6.241   6.231   6.374 -0.2177  0.0755  0.2918
14137TIP3    H263903   6.134   6.311   6.302 -1.1952  1.4425  3.0994
14138TIP3   OH263904   5.704   3.069   5.318  0.2498  0.1773 -0.1008
14138TIP3    H163905   5.700   3.015   5.396 -0.6672 -1.0351 -0.9489
14138TIP3    H263906   5.794   3.101   5.315  0.5722 -0.6144  0.8819
14139TIP3   OH263907   6.506   0.950  12.821 -0.5402  0.1740 -0.2141
14139TIP3    H163908   6.416   0.920  12.837 -0.6565  0.6837  0.0995
14139TIP3    H263909   6.560   0.873  12.840 -0.9867 -0.5337 -1.6622
14140TIP3   OH263910   0.451   3.417   6.422  0.1375 -0.3277 -0.4220
14140TIP3    H163911   0.532   3.439   6.377  1.0750 -2.1959  0.2581
14140TIP3    H263912   0.406   3.501   6.433  2.9070  1.0982  0.9805
14141TIP3   OH263913   3.112   3.983   4.623 -0.2392 -0.7397  0.6869
14141TIP3    H163914   3.116   4.075   4.600  0.9612 -1.1020 -0.7527
14141TIP3    H263915   3.096   3.938   4.540 -0.6504 -1.8477  1.3328
14142TIP3   OH263916   0.356   2.524  10.728  0.5339  0.5692  0.2380
14142TIP3    H163917   0.358   2.432  10.700 -0.6703  0.1812  1.3316
14142TIP3    H263918   0.386   2.573  10.652 -0.0232 -0.6396 -0.7905
14143TIP3   OH263919   1.749   5.823   0.726 -0.5563 -0.3143 -0.6317
14143TIP3    H163920   1.835   5.796   0.756 -0.6314  0.7926  0.6834
14143TIP3    H263921   1.763   5.907   0.684 -1.2970  1.3435  2.1576
14144TIP3   OH263922   0.552   2.256   3.914  0.1059  0.1409  0.0760
14144TIP3    H163923   0.551   2.209   3.997  0.2005 -2.8393 -1.4507
14144TIP3    H263924   0.621   2.214   3.863 -0.9765  0.7601 -2.0614
14145TIP3   OH263925   1.999   4.658  16.764  0.5698  0.2834 -0.1922
14145TIP3    H163926   2.018   4.639  16.856  0.0137 -0.3329 -0.1988
14145TIP3    H263927   2.074   4.710  16.734  0.6426  0.6964  0.6719
14146TIP3   OH263928   3.968   2.990  11.187  0.1895  0.1127 -0.3666
14146TIP3    H163929   3.928   2.998  11.100  0.1079 -0.9484 -0.4421
14146TIP3    H263930   4.030   3.062  11.192  0.5062 -0.0665 -1.4928
14147TIP3   OH263931   5.953   1.540   2.786  0.5433 -0.0104  0.1870
14147TIP3    H163932   5.913   1.493   2.713 -2.5917 -0.1879  1.8515
14147TIP3    H263933   5.969   1.628   2.752 -0.8705 -0.0763 -0.7425
14148TIP3   OH263934   4.284   6.407  15.652  0.1459  0.1287  0.7752
14148TIP3    H163935   4.275   6.422  15.746 -1.2069  0.8237  0.5590
14148TIP3    H263936   4.249   6.486  15.611  2.4711  0.6907 -0.3293
14149TIP3   OH263937   6.665   0.935  16.151  0.3349 -0.5369  0.0700
14149TIP3    H163938   6.730   0.870  16.122 -0.4868 -0.6236 -1.6517
14149TIP3    H263939   6.703   1.019  16.127 -0.2714 -0.5992 -1.1278
14150TIP3   OH263940   4.788   5.793   6.163  0.0706  0.4192  0.1821
14150TIP3    H163941   4.768   5.877   6.205 -0.7039  0.5762 -0.4799
14150TIP3    H263942   4.811   5.736   6.236  2.2865  1.6278  0.5284
14151TIP3   OH263943   0.295   2.917  10.668  0.0369  0.6278  0.6641
14151TIP3    H163944   0.333   3.000  10.697 -0.3182  1.6110 -1.4884
14151TIP3    H263945   0.202   2.926  10.687 -0.2769  1.4761 -1.0345
14152TIP3   OH263946   0.331   3.811   6.295  0.1185 -0.7603 -0.2479
14152TIP3    H163947   0.385   3.886   6.320 -1.1353 -0.2534  1.1087
14152TIP3    H263948   0.336   3.751   6.369 -1.0218 -0.7559 -0.1436
14153TIP3   OH263949   2.004   3.133   2.616 -0.2874  0.2298 -0.0642
14153TIP3    H163950   1.939   3.114   2.548 -0.1567  1.0904 -0.4466
14153TIP3    H263951   1.956   3.186   2.680 -0.9177 -2.0899  1.4881
14154TIP3   OH263952   6.099   2.729   3.519  0.4875  0.3511 -0.0286
14154TIP3    H163953   6.110   2.809   3.468 -0.0586  0.9355  0.7353
14154TIP3    H263954   6.180   2.720   3.568  0.5287  0.4692 -0.0752
14155TIP3   OH263955   3.643   1.511   1.965  0.5589 -0.3285  0.5864
14155TIP3    H163956   3.704   1.499   2.038  0.8393 -1.6983  0.1483
14155TIP3    H263957   3.557   1.521   2.007  0.9457  0.8169  1.1636
14156TIP3   OH263958   5.050   0.180  13.030 -0.1159 -0.6344  0.0433
14156TIP3    H163959   5.135   0.219  13.052 -0.3818 -0.6064  1.0512
14156TIP3    H263960   5.022   0.226  12.951 -0.8870  1.9735  1.7124
14157TIP3   OH263961   2.447   4.269  11.668  0.0968 -0.6586 -0.0957
14157TIP3    H163962   2.358   4.259  11.703  0.5265 -0.8887  0.9618
14157TIP3    H263963   2.437   4.328  11.594 -1.0436 -1.2126 -0.4072
14158TIP3   OH263964   5.965   2.313   5.342 -0.0917 -0.2016  0.2508
14158TIP3    H163965   5.913   2.233   5.355  0.3108 -0.6005 -0.4995
14158TIP3    H263966   5.930   2.375   5.406  0.2445 -1.2894  1.5272
14159TIP3   OH263967   2.238   4.063  13.071 -0.1908 -0.1961  0.3182
14159TIP3    H163968   2.218   4.057  12.978 -1.0870 -0.6149  0.5261
14159TIP3    H263969   2.163   4.109  13.109  1.2290  2.1265  0.5115
14160TIP3   OH263970   0.850   4.262   1.950 -0.5853  0.5191  0.5767
14160TIP3    H163971   0.806   4.186   1.988  1.2861 -0.6027  0.6434
14160TIP3    H263972   0.863   4.240   1.858  2.3698 -0.5607  1.1219
14161TIP3   OH263973   0.025   0.139  14.750 -0.0528  0.1899  0.2728
14161TIP3    H163974  -0.010   0.147  14.839  0.4995  0.1443  0.5026
14161TIP3    H263975   0.079   0.060  14.752  1.7980  1.3880  0.5586
14162TIP3   OH263976   0.426   6.445   5.260  0.0690  0.0984  0.7301
14162TIP3    H163977   0.362   6.402   5.317  1.6325 -4.2106 -0.4096
14162TIP3    H263978   0.510   6.430   5.302  0.9017  0.0626 -0.8787
14163TIP3   OH263979   3.074   6.393  11.477 -0.4501 -0.0990 -0.3182
14163TIP3    H163980   2.996   6.427  11.520 -1.3183  0.8773 -2.5128
14163TIP3    H263981   3.041   6.330  11.413  0.6200 -0.2303 -0.7616
14164TIP3   OH263982   4.341   2.274  12.502  0.0710 -0.8703 -0.0537
14164TIP3    H163983   4.247   2.256  12.504 -0.6000  2.1127  0.2590
14164TIP3    H263984   4.376   2.227  12.578 -1.6017 -0.1973  1.2038
14165TIP3   OH263985   5.799   6.758   5.830  0.4258 -0.8868  0.3249
14165TIP3    H163986   5.727   6.754   5.893  1.3881 -2.2573  1.4004
14165TIP3    H263987   5.760   6.796   5.751 -1.2139 -0.6539  1.2088
14166TIP3   OH263988   4.744   3.586  11.434 -0.1776  0.0365 -0.4603
14166TIP3    H163989   4.744   3.560  11.342 -2.3710  0.5308 -0.6645
14166TIP3    H263990   4.741   3.682  11.432  0.4877  0.0878  0.1655
14167TIP3   OH263991   5.951   1.610  14.811  0.1448  0.0670  0.3816
14167TIP3    H163992   5.890   1.645  14.876  1.7090  0.6823  1.5673
14167TIP3    H263993   5.978   1.525  14.847 -0.5927 -0.5814 -0.5376
14168TIP3   OH263994   6.436   1.010  13.181 -0.2520  0.4440 -0.0910
14168TIP3    H163995   6.380   1.075  13.221  1.5917  1.4595  0.9929
14168TIP3    H263996   6.488   0.975  13.253 -0.0157 -1.0397 -0.9151
14169TIP3   OH263997   6.737   0.935  13.178 -0.2520  0.5081  0.3697
14169TIP3    H163998   6.735   1.031  13.186  1.5877  0.5690  0.6749
14169TIP3    H263999   6.695   0.916  13.094  0.7020  1.7086 -0.4063
14170TIP3   OH264000   4.135   2.677  12.651  0.5890  0.3845  0.0004
14170TIP3    H164001   4.100   2.751  12.702 -0.6918  0.3465 -0.8010
14170TIP3    H264002   4.219   2.658  12.693  1.1340  2.5309  0.0253
14171TIP3   OH264003   5.572   6.120   0.172 -0.1099  0.6856 -0.1581
14171TIP3    H164004   5.545   6.129   0.264 -0.0516 -1.6118  0.1394
14171TIP3    H264005   5.628   6.043   0.171 -0.2350  0.5735 -2.1614
14172TIP3   OH264006   4.103   1.309  13.529 -0.2169 -0.3446  0.2866
14172TIP3    H164007   4.130   1.297  13.438 -1.0012 -0.8015  0.1093
14172TIP3    H264008   4.170   1.265  13.580  0.0987 -0.2948 -0.0798
14173TIP3   OH264009   5.966   6.552   1.524 -0.5719 -0.7841  0.3690
14173TIP3    H164010   5.994   6.499   1.449  0.2937 -0.7652  0.6647
14173TIP3    H264011   6.046   6.592   1.557 -1.2261  0.8352  0.0763
14174TIP3   OH264012   0.612   5.040  14.721 -0.2470 -0.0985 -0.1895
14174TIP3    H164013   0.627   5.043  14.626  0.0320  2.8893 -0.1405
14174TIP3    H264014   0.698   5.056  14.759 -0.5703 -0.1119  0.5555
14175TIP3   OH264015   2.098   5.146   6.415  0.2623  0.1324  0.1698
14175TIP3    H164016   2.172   5.135   6.474 -1.2439 -1.3151  1.9257
14175TIP3    H264017   2.060   5.231   6.439  1.1882  0.7827 -0.5993
14176TIP3   OH264018   2.785   3.934  14.402  0.2836  0.0435  0.2738
14176TIP3    H164019   2.721   3.993  14.443 -0.8936 -1.8170  1.2505
14176TIP3    H264020   2.835   3.898  14.476  2.8426  1.7349 -0.4805
14177TIP3   OH264021   5.402   6.077  12.348  0.7527  0.0305 -0.1536
14177TIP3    H164022   5.446   6.002  12.308  2.1535  0.5654  0.3353
14177TIP3    H264023   5.309   6.056  12.340  1.0990 -1.8726  0.1880
14178TIP3   OH264024   2.298   3.257  14.259  0.6937 -0.0157  0.6041
14178TIP3    H164025   2.209   3.239  14.229  0.3396  0.2686  1.4484
14178TIP3    H264026   2.335   3.315  14.191  0.6238 -0.9963 -0.2969
14179TIP3   OH264027   4.422   3.514  10.401  0.8632 -0.0291 -0.6025
14179TIP3    H164028   4.351   3.578  10.399  0.8260  0.1515  2.4242
14179TIP3    H264029   4.380   3.431  10.421  1.4334  0.1161  1.4371
14180TIP3   OH264030   0.290   5.104   1.362  0.0061  0.2849 -0.2342
14180TIP3    H164031   0.317   5.113   1.271 -3.1371  0.2919 -1.2852
14180TIP3    H264032   0.267   5.193   1.390  0.1822  0.1710  0.2852
14181TIP3   OH264033   3.318   0.099   0.507  0.2554 -0.3494  0.1414
14181TIP3    H164034   3.280   0.162   0.569  1.5868  0.7361 -0.1139
14181TIP3    H264035   3.245   0.039   0.486 -0.2879 -0.6445  2.5854
14182TIP3   OH264036   2.697   6.770   0.655 -0.2045 -0.3293  0.1796
14182TIP3    H164037   2.653   6.808   0.732 -1.7117 -0.7044 -0.4633
14182TIP3    H264038   2.660   6.818   0.581 -0.5356 -1.5551 -0.4790
14183TIP3   OH264039   0.929   6.442  14.666  0.3034 -0.2233 -0.4781
14183TIP3    H164040   0.848   6.491  14.653 -0.1802 -1.3106 -1.7695
14183TIP3    H264041   0.967   6.480  14.745 -1.0982  0.7947 -0.2496
14184TIP3   OH264042   1.666   0.321  16.041 -0.2856 -0.0870 -0.0367
14184TIP3    H164043   1.722   0.375  15.985  2.3039 -4.8569 -2.7168
14184TIP3    H264044   1.720   0.305  16.119 -0.9219  0.8257  0.6113
14185TIP3   OH264045   4.520   0.271  16.739 -0.4362  0.5467  0.3160
14185TIP3    H164046   4.514   0.323  16.819  1.4506  0.8623  0.2741
14185TIP3    H264047   4.465   0.194  16.757 -2.3501  1.9355  0.7965
14186TIP3   OH264048   6.456   1.453   4.531  0.4264 -0.5293  0.5342
14186TIP3    H164049   6.362   1.466   4.523  0.3064 -0.2358  2.1755
14186TIP3    H264050   6.465   1.361   4.558  0.7185 -1.0071 -1.0808
14187TIP3   OH264051   0.353   2.757  15.156 -0.7809  0.6779  0.3834
14187TIP3    H164052   0.340   2.742  15.249 -0.9048  1.1451  0.4473
14187TIP3    H264053   0.373   2.851  15.150  0.5675  0.3905  0.0796
14188TIP3   OH264054   1.015   2.978  15.954  0.2668  0.1051 -0.2315
14188TIP3    H164055   0.935   2.926  15.952  1.6599 -2.1694 -0.2198
14188TIP3    H264056   1.020   3.018  15.867 -0.5084 -0.2808 -0.4634
14189TIP3   OH264057   1.011   0.319   1.101  0.1016  0.0989 -0.1345
14189TIP3    H164058   0.925   0.331   1.060 -0.0303 -1.0230 -0.2261
14189TIP3    H264059   1.037   0.407   1.128 -1.9070  0.2675  1.5393
14190TIP3   OH264060   0.582   0.358  16.089 -0.2527 -0.5816  0.1371
14190TIP3    H164061   0.514   0.423  16.108  0.6307  0.6925 -0.9293
14190TIP3    H264062   0.558   0.283  16.144 -1.9641  0.1853  0.5264
14191TIP3   OH264063   4.195   4.994   1.032 -0.0736 -0.3608  0.3686
14191TIP3    H164064   4.231   4.905   1.032 -0.7258 -0.6351  1.3049
14191TIP3    H264065   4.148   5.001   0.949  1.6539 -0.1689 -0.6658
14192TIP3   OH264066   4.502   1.659  16.329 -0.2120  0.2549 -0.0370
14192TIP3    H164067   4.528   1.619  16.413  0.2290 -1.5043 -0.9578
14192TIP3    H264068   4.425   1.609  16.302 -0.8604  1.3681 -0.3037
14193TIP3   OH264069   5.829   3.912   1.247 -0.1965 -0.1273  0.6125
14193TIP3    H164070   5.755   3.917   1.307 -0.8968 -2.6740  0.0680
14193TIP3    H264071   5.835   4.000   1.209 -2.0247  0.5187  1.6937
14194TIP3   OH264072   5.423   0.340   2.082 -0.0380 -0.1126 -0.5330
14194TIP3    H164073   5.447   0.430   2.103 -0.9934 -0.2394  1.3471
14194TIP3    H264074   5.345   0.323   2.135 -0.3562 -1.8014 -1.4531
14195TIP3   OH264075   1.769   0.939   5.755 -0.2552  0.0847  0.4784
14195TIP3    H164076   1.687   0.912   5.797 -0.3132 -1.6876 -0.6878
14195TIP3    H264077   1.831   0.869   5.776  0.8120  1.0875  0.8097
14196TIP3   OH264078   6.130   2.946  14.314 -0.4673  0.1478  0.8828
14196TIP3    H164079   6.160   3.035  14.299  1.8695 -0.5669  0.8979
14196TIP3    H264080   6.131   2.905  14.227  1.3057 -0.6221  1.2187
14197TIP3   OH264081   4.222   6.225  14.618 -0.1580 -0.5557 -0.2203
14197TIP3    H164082   4.167   6.299  14.591  0.1038 -0.7627 -1.3573
14197TIP3    H264083   4.228   6.170  14.540  0.0346 -1.5519  0.4777
14198TIP3   OH264084   2.394   0.462   2.336  0.7531  0.7129 -0.0199
14198TIP3    H164085   2.472   0.489   2.287  0.0331 -0.7779 -2.1299
14198TIP3    H264086   2.325   0.522   2.306  0.5272  0.4292 -0.0706
14199TIP3   OH264087   2.848   5.772   4.932  0.3489 -0.7315  0.6229
14199TIP3    H164088   2.777   5.836   4.930  1.2063  0.2805  1.3460
14199TIP3    H264089   2.839   5.723   4.850 -0.4931  0.1280  0.1817
14200TIP3   OH264090   0.884   1.381  14.460  0.1476  0.2744 -0.0326
14200TIP3    H164091   0.804   1.394  14.409  0.7127  2.9745 -0.4220
14200TIP3    H264092   0.951   1.360  14.395  0.1584  0.1081  0.0322
14201TIP3   OH264093   3.095   4.236  14.309  0.2243 -0.1962  0.4658
14201TIP3    H164094   3.088   4.156  14.361  1.8335  0.3646  1.6370
14201TIP3    H264095   3.103   4.306  14.373 -0.4368  0.8457 -0.5485
14202TIP3   OH264096   1.841   6.207   0.855 -0.4639  0.2592  0.3535
14202TIP3    H164097   1.817   6.283   0.907  1.4046 -0.6967  2.7937
14202TIP3    H264098   1.863   6.139   0.919  0.6030 -1.4541 -1.6892
14203TIP3   OH264099   3.488   6.712   1.683 -0.5555  0.4571 -0.3407
14203TIP3    H164100   3.551   6.653   1.725 -1.0316  0.0690 -0.1729
14203TIP3    H264101   3.426   6.654   1.639 -0.2602  0.8553 -1.2995
14204TIP3   OH264102   4.818   4.575   6.221 -0.3401 -0.5994  0.2920
14204TIP3    H164103   4.821   4.510   6.151  1.2514 -0.0822 -0.1690
14204TIP3    H264104   4.903   4.568   6.265 -1.3167 -0.9510  2.2552
14205TIP3   OH264105   2.088   3.044  17.040  0.3670  0.2026  0.3076
14205TIP3    H164106   2.002   3.001  17.045 -0.0461  1.1085  1.3781
14205TIP3    H264107   2.076   3.112  16.974 -0.4170  1.6889  1.8819
14206TIP3   OH264108   5.406   6.154   1.749 -0.6423 -0.3614  0.3556
14206TIP3    H164109   5.491   6.110   1.751 -0.1223  0.6179  0.5907
14206TIP3    H264110   5.418   6.228   1.689 -1.4464 -0.4460  0.0818
14207TIP3   OH264111   6.782   3.302   3.497  0.4551 -0.4833 -0.0271
14207TIP3    H164112   6.792   3.300   3.592  0.0123 -1.2587  0.0142
14207TIP3    H264113   6.814   3.217   3.468  0.8457 -0.1486 -0.6074
14208TIP3   OH264114   4.004   1.930  12.651  0.1732  0.0269  0.7610
14208TIP3    H164115   3.971   1.847  12.686  1.1238 -0.8071 -0.2508
14208TIP3    H264116   4.059   1.905  12.577  0.8897  1.5408  0.7430
14209TIP3   OH264117   6.490   3.541   1.614  0.5492 -0.0540  0.1101
14209TIP3    H164118   6.412   3.489   1.594  0.3494  0.2870 -0.0135
14209TIP3    H264119   6.459   3.632   1.612  0.7369  0.0440  0.9839
14210TIP3   OH264120   3.215   0.265   0.722  0.0800  0.6054  0.2215
14210TIP3    H164121   3.179   0.338   0.773  0.2211  0.4454  0.5476
14210TIP3    H264122   3.282   0.227   0.778 -1.2624 -0.9521  0.8485
14211TIP3   OH264123   5.163   0.062  15.350  0.1080 -0.4114  0.7692
14211TIP3    H164124   5.235   0.125  15.343 -0.3464  0.2238  1.6664
14211TIP3    H264125   5.152   0.029  15.261 -1.5594  2.9332 -0.4571
14212TIP3   OH264126   2.191   4.657   0.670  0.0111 -0.6266  0.8650
14212TIP3    H164127   2.279   4.693   0.656  0.4282 -1.9373 -0.0491
14212TIP3    H264128   2.199   4.564   0.650 -1.9484 -0.4871 -0.9808
14213TIP3   OH264129   4.084   2.042   5.850 -0.6929 -0.5344 -0.0995
14213TIP3    H164130   4.152   2.106   5.829 -0.7206 -0.7983 -1.0517
14213TIP3    H264131   4.044   2.075   5.930  1.0683 -0.7915  0.9410
14214TIP3   OH264132   1.761   6.196  15.531  0.2158 -0.3227  0.6561
14214TIP3    H164133   1.774   6.216  15.438 -0.8394  2.9988  1.0660
14214TIP3    H264134   1.837   6.234  15.574  1.0044 -2.3837  1.1474
14215TIP3   OH264135   1.799   5.788   5.833  0.5599 -0.3733  0.4303
14215TIP3    H164136   1.707   5.788   5.860  0.0945  2.1364 -0.8400
14215TIP3    H264137   1.848   5.807   5.913 -0.3852  1.9489  0.5348
14216TIP3   OH264138   3.376   1.191  15.148 -0.6869  0.2326 -0.5408
14216TIP3    H164139   3.287   1.157  15.161 -1.5332  2.1414 -1.0011
14216TIP3    H264140   3.395   1.241  15.227 -0.3310  0.4779 -0.7777
14217TIP3   OH264141   2.389   3.582   1.464  0.0395 -0.1744 -0.6196
14217TIP3    H164142   2.442   3.652   1.503 -0.0945 -0.8120  0.7878
14217TIP3    H264143   2.317   3.571   1.526 -0.6321 -0.6891 -1.4874
14218TIP3   OH264144   1.285   4.407   3.077 -0.1009 -0.2613  0.2505
14218TIP3    H164145   1.348   4.338   3.094  0.7724  0.4049 -0.2315
14218TIP3    H264146   1.212   4.388   3.136  0.1174 -1.5942  0.1086
14219TIP3   OH264147   5.611   1.036   3.941  0.5834 -0.5090 -0.4689
14219TIP3    H164148   5.583   0.968   3.880 -0.4894 -0.2168 -0.3247
14219TIP3    H264149   5.606   1.117   3.890  0.6619 -0.3875 -0.2855
14220TIP3   OH264150   1.438   1.739  14.070  0.7175  0.4195  0.1831
14220TIP3    H164151   1.533   1.750  14.064  0.8858  0.1599  1.9653
14220TIP3    H264152   1.412   1.791  14.147 -0.5177  0.0742  0.0220
14221TIP3   OH264153   3.174   5.203   0.036 -0.5107  0.1403 -0.5413
14221TIP3    H164154   3.148   5.239   0.121  0.9407  0.5626 -0.2517
14221TIP3    H264155   3.091   5.179  -0.006 -1.2952  0.5781  0.6960
14222TIP3   OH264156   3.619   3.727  11.685  0.0182 -0.2688  0.1310
14222TIP3    H164157   3.669   3.702  11.608  1.6463  1.1802  0.6507
14222TIP3    H264158   3.682   3.724  11.757 -1.3929 -1.3342  1.3879
14223TIP3   OH264159   0.010   6.671   0.875  0.3222 -0.1854  0.2297
14223TIP3    H164160   0.011   6.603   0.943  0.3511  0.0413  0.4622
14223TIP3    H264161  -0.080   6.672   0.843 -0.1664  0.9175  1.5188
14224TIP3   OH264162   4.082   5.029   0.779  0.0281 -0.1325 -0.4612
14224TIP3    H164163   3.999   5.062   0.744  1.3455  1.9438 -1.7982
14224TIP3    H264164   4.113   4.966   0.714 -0.3229 -0.7314 -0.0726
14225TIP3   OH264165   3.511   0.927  12.092 -0.0624  0.1411 -0.3062
14225TIP3    H164166   3.504   0.833  12.108  1.4431  0.0246 -0.1551
14225TIP3    H264167   3.423   0.954  12.068 -0.6411 -1.2029  0.2102
14226TIP3   OH264168   0.817   6.781   0.893  0.1011  0.8787  0.0111
14226TIP3    H164169   0.745   6.719   0.880  0.3667  0.8589 -1.4828
14226TIP3    H264170   0.888   6.728   0.931  0.3969  0.1833 -1.4389
14227TIP3   OH264171   5.923   6.300   0.246 -0.7092  0.2119  0.3523
14227TIP3    H164172   5.879   6.223   0.212  1.0708 -0.8597  0.3578
14227TIP3    H264173   6.002   6.266   0.288 -0.3949  1.9506  1.2643
14228TIP3   OH264174   1.483   2.806   2.347 -0.5371  0.1309 -0.0196
14228TIP3    H164175   1.387   2.808   2.345 -0.5830 -1.2031 -1.2420
14228TIP3    H264176   1.509   2.893   2.317 -1.3234  1.0484  1.8173
14229TIP3   OH264177   3.801   6.430   5.032 -0.0542 -0.9208 -0.7257
14229TIP3    H164178   3.888   6.445   4.995  0.1982  0.9116  0.4519
14229TIP3    H264179   3.797   6.336   5.047  2.2398 -0.9216  0.3205
14230TIP3   OH264180   3.925   1.322   3.170  0.0515 -0.8318 -1.0541
14230TIP3    H164181   3.992   1.384   3.144  0.0961 -0.1387  0.5576
14230TIP3    H264182   3.933   1.317   3.266 -1.8843 -1.0656 -0.8619
14231TIP3   OH264183   2.964   3.621  12.860 -0.3105 -0.2236  0.0653
14231TIP3    H164184   2.955   3.703  12.813  0.0135  0.3801  1.0406
14231TIP3    H264185   3.013   3.643  12.939 -0.2728 -1.3372  0.3704
14232TIP3   OH264186   4.325   2.606   0.531 -0.2106 -0.2040  0.1003
14232TIP3    H164187   4.245   2.604   0.585  0.5961  0.4794  1.3756
14232TIP3    H264188   4.305   2.670   0.463 -0.9407 -0.4152  0.1044
14233TIP3   OH264189   2.761   3.397  12.051 -0.5936 -0.2997  0.3756
14233TIP3    H164190   2.789   3.404  11.960  0.7174 -1.6325  0.6495
14233TIP3    H264191   2.717   3.480  12.069 -1.4210 -0.2481 -1.6358
14234TIP3   OH264192   5.694   1.073  15.262  0.6086 -0.2323  0.4121
14234TIP3    H164193   5.642   1.134  15.210 -0.9132 -2.3619 -0.7296
14234TIP3    H264194   5.757   1.128  15.309  1.2848  1.9197 -2.7424
14235TIP3   OH264195   5.765   1.313   5.524 -0.5880 -0.1275 -0.3633
14235TIP3    H164196   5.838   1.285   5.469 -1.0624 -0.7310 -0.7002
14235TIP3    H264197   5.771   1.259   5.602  0.2035  0.8679  0.2939
14236TIP3   OH264198   1.266   2.823   0.459 -0.1056 -1.0371 -0.0592
14236TIP3    H164199   1.330   2.874   0.509  0.5889 -0.4812 -1.4577
14236TIP3    H264200   1.202   2.794   0.524 -0.4718  1.5174  0.8232
14237TIP3   OH264201   1.940   1.136   0.571  0.0711 -0.3719 -0.1457
14237TIP3    H164202   1.888   1.093   0.639  2.1348  1.1339  2.6151
14237TIP3    H264203   1.991   1.065   0.532 -3.4476 -1.7903 -2.5823
14238TIP3   OH264204   0.978   6.753  16.249  0.1715 -0.1077  1.2510
14238TIP3    H164205   0.902   6.705  16.282 -0.4002  0.1710  0.3816
14238TIP3    H264206   1.053   6.708  16.288 -0.4004 -0.9415  1.4273
14239TIP3   OH264207   2.621   1.785   1.477 -0.2852 -0.1802  0.4996
14239TIP3    H164208   2.583   1.697   1.472  0.1143 -0.2750 -1.2009
14239TIP3    H264209   2.547   1.842   1.497 -1.0967 -0.5572 -1.2414
14240TIP3   OH264210   0.700   6.707  12.865 -0.0266  0.6238 -0.2516
14240TIP3    H164211   0.726   6.797  12.844  0.4185  0.3446 -0.9453
14240TIP3    H264212   0.642   6.716  12.941 -0.3476  1.5383 -0.5815
14241TIP3   OH264213   5.319   4.200  17.016  0.1640  0.5864  0.3917
14241TIP3    H164214   5.339   4.128  16.956  0.3867 -0.0656  1.2438
14241TIP3    H264215   5.298   4.158  17.099 -0.6277  1.4638  0.6549
14242TIP3   OH264216   0.303   2.502   5.576 -0.1435  0.5188  0.1458
14242TIP3    H164217   0.274   2.448   5.650  1.2570  0.1064  0.4192
14242TIP3    H264218   0.313   2.589   5.613 -0.1704  0.4726  0.2623
14243TIP3   OH264219   0.309   3.017   5.110  0.7563 -0.1545 -0.5015
14243TIP3    H164220   0.313   3.075   5.034 -2.2954 -0.9405 -1.4213
14243TIP3    H264221   0.221   3.031   5.145  1.0523 -1.9692  1.1103
14244TIP3   OH264222   4.831   2.791  14.259 -0.0211  0.3337 -0.5291
14244TIP3    H164223   4.753   2.845  14.244 -0.3069 -0.0538 -0.4600
14244TIP3    H264224   4.831   2.775  14.353  1.0891  1.7397 -0.2651
14245TIP3   OH264225   6.135   3.281   5.766 -0.1371  0.0172 -0.6117
14245TIP3    H164226   6.076   3.234   5.707 -1.2102  0.6496 -0.0815
14245TIP3    H264227   6.093   3.366   5.780 -0.3858 -0.4137  1.7303
14246TIP3   OH264228   2.133   1.542  11.846  0.2345  0.1751  0.2347
14246TIP3    H164229   2.077   1.498  11.910  1.1680 -1.8377 -0.2421
14246TIP3    H264230   2.168   1.618  11.893 -0.1679 -0.4949  1.6640
14247TIP3   OH264231   3.504   4.057   0.422  0.2654  0.0317  1.1340
14247TIP3    H164232   3.417   4.051   0.382 -0.3288 -0.2650  2.4194
14247TIP3    H264233   3.541   4.137   0.386  0.3064 -0.8800 -1.0111
14248TIP3   OH264234   6.118   3.231  12.653  0.1662 -0.5294 -0.5559
14248TIP3    H164235   6.071   3.264  12.577  0.8183 -0.3853 -0.9016
14248TIP3    H264236   6.064   3.158  12.685  0.8138 -1.8045 -2.2576
14249TIP3   OH264237   5.860   6.280  16.894  0.3652 -0.2171 -0.4663
14249TIP3    H164238   5.770   6.282  16.928  0.0460 -0.8997 -1.1965
14249TIP3    H264239   5.899   6.203  16.935  1.0340  0.7819  0.7996
14250TIP3   OH264240   5.805   0.267   3.228  0.0465 -0.9922  0.0201
14250TIP3    H164241   5.826   0.174   3.242  0.3475 -0.8544  0.5157
14250TIP3    H264242   5.871   0.314   3.279  0.2732 -0.4880 -0.7190
14251TIP3   OH264243   4.053   2.573  16.582 -0.1740  0.0725 -0.3757
14251TIP3    H164244   3.963   2.540  16.576  0.0583 -0.9697  1.1492
14251TIP3    H264245   4.106   2.494  16.592  0.6931  0.7605  0.6795
14252TIP3   OH264246   1.000   0.602   2.592  0.5772  0.3632  0.3976
14252TIP3    H164247   0.930   0.576   2.533 -0.6710  0.6780  1.6752
14252TIP3    H264248   1.020   0.523   2.642  0.8475  0.3806  0.3192
14253TIP3   OH264249   3.018   2.529   2.043  0.1922 -0.2632 -0.2118
14253TIP3    H164250   2.952   2.464   2.021 -2.1622  0.7324  3.0116
14253TIP3    H264251   3.049   2.503   2.130  1.4501  1.2277 -0.1650
14254TIP3   OH264252   0.831   0.185  13.892  0.2002  0.6973 -0.0074
14254TIP3    H164253   0.796   0.203  13.805  1.5089  0.2637 -0.6401
14254TIP3    H264254   0.755   0.156  13.943 -0.4712  0.3720 -1.1646
14255TIP3   OH264255   0.654   4.339  11.285 -0.0886  0.5955  0.5056
14255TIP3    H164256   0.699   4.292  11.355  0.3678 -0.8372 -0.6931
14255TIP3    H264257   0.608   4.410  11.329  0.7753  0.1811  2.1554
14256TIP3   OH264258   1.297   4.473  16.911 -0.4251 -0.1836  0.6851
14256TIP3    H164259   1.380   4.493  16.954 -0.4576  0.1788  0.5854
14256TIP3    H264260   1.255   4.409  16.969 -0.3216  0.0519  1.0247
14257TIP3   OH264261   3.785   0.542  12.103  0.2576 -0.1518 -0.8567
14257TIP3    H164262   3.704   0.562  12.151  0.7742 -0.7630  0.2981
14257TIP3    H264263   3.759   0.475  12.039 -0.7383  1.6490 -2.4598
14258TIP3   OH264264   2.660   5.418   2.377 -0.4896  0.2141  0.0511
14258TIP3    H164265   2.700   5.472   2.444  0.0319  0.3509 -0.3658
14258TIP3    H264266   2.623   5.480   2.314  0.0202  0.0921 -0.3744
14259TIP3   OH264267   4.720   6.508   6.700 -0.0066 -0.0185  0.3859
14259TIP3    H164268   4.677   6.526   6.784 -1.5098  1.3018 -0.6179
14259TIP3    H264269   4.648   6.487   6.640  0.7733  1.4786 -1.1597
14260TIP3   OH264270   6.063   5.514   3.146 -0.0635  0.4567  1.0745
14260TIP3    H164271   6.053   5.476   3.059 -1.4057  0.4264  1.2142
14260TIP3    H264272   6.114   5.450   3.195 -1.5875 -0.8321  1.0751
14261TIP3   OH264273   5.385   1.777  16.982  0.3627 -0.0797  0.2794
14261TIP3    H164274   5.393   1.695  16.933  0.1798  0.2834 -0.3706
14261TIP3    H264275   5.474   1.795  17.014  0.4904 -0.2987  0.0433
14262TIP3   OH264276   3.400   4.076   3.603  0.3283 -0.3836 -0.1401
14262TIP3    H164277   3.433   4.163   3.627  0.0546 -0.4734  0.5956
14262TIP3    H264278   3.420   4.021   3.679 -0.2951 -0.7584 -0.2397
14263TIP3   OH264279   1.764   0.454  12.315  0.0570 -0.0958 -0.8095
14263TIP3    H164280   1.780   0.360  12.328 -1.3583 -0.3238 -0.5024
14263TIP3    H264281   1.736   0.461  12.224  2.1730  0.3564 -1.4725
14264TIP3   OH264282   0.416   1.391  14.686 -0.2480  0.5576  0.1305
14264TIP3    H164283   0.342   1.442  14.718  0.2728  0.5692  1.3445
14264TIP3    H264284   0.435   1.428  14.599 -0.0769  2.2396  0.8500
14265TIP3   OH264285   6.381   2.500   4.152  0.3881 -0.6198  0.0099
14265TIP3    H164286   6.437   2.521   4.227 -0.3267 -0.1772  0.4282
14265TIP3    H264287   6.343   2.415   4.173  0.8613 -0.8971 -0.2510
14266TIP3   OH264288   0.725   5.602  11.917 -0.5821  0.3759 -0.2159
14266TIP3    H164289   0.811   5.599  11.875 -0.7018 -0.8318 -0.4099
14266TIP3    H264290   0.743   5.629  12.007  0.1409 -0.8915  0.0426
14267TIP3   OH264291   0.329   4.413   3.624  0.1726 -0.2428 -1.1189
14267TIP3    H164292   0.311   4.326   3.662 -1.4727  1.3540  2.1982
14267TIP3    H264293   0.255   4.429   3.566 -0.6541 -0.2360 -0.0891
14268TIP3   OH264294   1.273   1.645  14.303  0.3789 -0.8152 -0.8705
14268TIP3    H164295   1.286   1.561  14.258  0.5190 -3.2179  3.1331
14268TIP3    H264296   1.181   1.645  14.328  0.3828  0.2431 -0.8144
14269TIP3   OH264297   3.039   5.291   5.938 -0.1489  0.3281  0.6333
14269TIP3    H164298   3.086   5.214   5.970 -1.2380 -0.1574  1.0956
14269TIP3    H264299   3.082   5.313   5.855  1.1748  0.1712  1.2518
14270TIP3   OH264300   5.011   6.291  16.986 -0.3044 -0.0191  0.1491
14270TIP3    H164301   4.982   6.337  17.065  1.8067 -0.6770  1.4037
14270TIP3    H264302   5.074   6.350  16.945 -1.1363  0.1713 -0.8716
14271TIP3   OH264303   1.365   5.337  11.244 -0.3682 -0.2698 -0.2050
14271TIP3    H164304   1.421   5.371  11.313 -1.6403 -1.5820  1.5617
14271TIP3    H264305   1.281   5.382  11.256 -0.3458  0.1483 -1.4830
14272TIP3   OH264306   4.708   4.760  14.668 -0.1463 -0.2800 -0.6073
14272TIP3    H164307   4.712   4.715  14.584  0.7190 -3.0731  0.8079
14272TIP3    H264308   4.737   4.849  14.649 -0.2289 -0.7401 -3.2813
14273TIP3   OH264309   5.792   5.331  16.286 -0.1382  0.7307  0.3181
14273TIP3    H164310   5.885   5.353  16.288 -0.1953  1.5504 -2.1813
14273TIP3    H264311   5.748   5.414  16.302 -0.3853  1.0005 -1.5641
14274TIP3   OH264312   5.351   6.342  15.644  0.3901 -0.2884  0.3593
14274TIP3    H164313   5.380   6.261  15.687  2.4078  0.6380  0.8442
14274TIP3    H264314   5.430   6.396  15.640 -0.5424  1.0115 -1.4691
14275TIP3   OH264315   0.974   0.557  15.725  0.1247 -0.5558  0.0051
14275TIP3    H164316   1.023   0.551  15.807 -1.8187  0.7141  1.3516
14275TIP3    H264317   0.885   0.530  15.749 -0.7230  0.7745 -1.4637
14276TIP3   OH264318   3.910   0.235   2.058 -0.0072 -0.0008  0.1778
14276TIP3    H164319   3.826   0.275   2.037  0.7299  3.2550  2.6246
14276TIP3    H264320   3.906   0.218   2.152  1.7140 -0.6657  0.1655
14277TIP3   OH264321   1.844   2.128  17.024  0.2822  0.0925  1.0748
14277TIP3    H164322   1.913   2.063  17.033  0.8693  0.3265 -1.2174
14277TIP3    H264323   1.763   2.077  17.021  0.7762 -0.6717 -1.3210
14278TIP3   OH264324   3.831   1.794  10.698  0.3718  0.2932 -0.3706
14278TIP3    H164325   3.865   1.843  10.623  0.9303 -0.3370 -0.5307
14278TIP3    H264326   3.862   1.843  10.775  0.8824  0.2211 -0.5299
14279TIP3   OH264327   1.344   4.482  11.283  0.1552  0.1768  0.4933
14279TIP3    H164328   1.317   4.503  11.373 -1.1287  0.8274 -0.0301
14279TIP3    H264329   1.263   4.462  11.237  0.7873 -0.0130 -0.5746
14280TIP3   OH264330   5.387   2.291   2.334  0.0681 -0.4436 -0.6335
14280TIP3    H164331   5.305   2.278   2.381  1.0102  0.0225  1.2394
14280TIP3    H264332   5.361   2.305   2.243 -1.8082 -1.7603 -0.3462
14281TIP3   OH264333   1.175   1.294   3.612  0.4833  0.4747  0.0804
14281TIP3    H164334   1.160   1.305   3.519 -0.0268  0.7016  0.1884
14281TIP3    H264335   1.120   1.360   3.654 -0.7163 -0.8216  0.6233
14282TIP3   OH264336   2.130   6.034  12.523  0.3589  0.3445  0.0089
14282TIP3    H164337   2.127   5.942  12.548  0.8773  0.4314  0.3928
14282TIP3    H264338   2.042   6.067  12.542  0.2948  0.0304  0.2594
14283TIP3   OH264339   2.056   4.204  13.671 -0.0558 -0.4167  0.6008
14283TIP3    H164340   2.105   4.122  13.674 -1.3253 -1.1837  1.2535
14283TIP3    H264341   1.991   4.195  13.740  0.1269  1.3845  1.0486
14284TIP3   OH264342   0.248   3.450   0.721  0.4611  0.1534  0.2729
14284TIP3    H164343   0.177   3.394   0.752  1.2298 -0.2613  1.3586
14284TIP3    H264344   0.326   3.393   0.723  0.2443 -0.8713 -5.1538
14285TIP3   OH264345   3.937   4.262   0.165 -0.0176 -0.1934  0.4449
14285TIP3    H164346   3.953   4.230   0.253 -1.6831 -1.4756  0.3347
14285TIP3    H264347   3.892   4.346   0.177 -1.4588 -0.9948  0.8726
14286TIP3   OH264348   0.792   4.180   1.496 -0.3897  0.4534  0.1475
14286TIP3    H164349   0.739   4.152   1.571 -0.8523  0.2517 -0.2489
14286TIP3    H264350   0.766   4.272   1.482 -2.3929 -0.2828 -1.4816
14287TIP3   OH264351   0.281   4.965  16.002  0.5756  0.5794 -0.2902
14287TIP3    H164352   0.240   4.893  15.953  0.4861  0.2411  0.2799
14287TIP3    H264353   0.370   4.935  16.019  0.5240  0.5879 -0.0116
14288TIP3   OH264354   0.228   0.165   0.154  0.1588  0.1776 -0.1498
14288TIP3    H164355   0.309   0.168   0.104 -1.1202  0.4893 -2.3354
14288TIP3    H264356   0.221   0.253   0.193 -0.6633  1.3561 -2.6973
14289TIP3   OH264357   3.980   1.515   5.598  0.0384 -0.2005 -0.5458
14289TIP3    H164358   3.907   1.517   5.660 -0.2030  2.5941 -0.7891
14289TIP3    H264359   4.057   1.532   5.652  0.1731 -0.4191 -0.6683
14290TIP3   OH264360   6.424   1.850  14.342  0.3920 -0.1677 -0.0407
14290TIP3    H164361   6.482   1.787  14.385  1.6005  0.5253 -0.5800
14290TIP3    H264362   6.376   1.891  14.414 -0.0766 -1.3515  0.3488
14291TIP3   OH264363   1.617   1.684  11.406 -0.0544  0.1778  0.1220
14291TIP3    H164364   1.684   1.617  11.414  0.3804  0.6108  0.1333
14291TIP3    H264365   1.662   1.759  11.368 -1.1034 -0.4192 -2.5357
14292TIP3   OH264366   6.479   2.716   6.084  0.2065  0.0873 -0.3587
14292TIP3    H164367   6.463   2.809   6.098  0.2175 -0.0065  0.3432
14292TIP3    H264368   6.392   2.676   6.088  0.2550  0.0045 -0.1171
14293TIP3   OH264369   3.881   3.434  16.303 -0.0184  0.4059  0.2982
14293TIP3    H164370   3.847   3.352  16.267  2.3376  0.1696 -1.6966
14293TIP3    H264371   3.930   3.407  16.381  0.8595 -0.1395 -0.4234
14294TIP3   OH264372   6.619   4.925  11.917  0.1471 -0.2271  0.4877
14294TIP3    H164373   6.635   4.954  11.827 -0.9121 -0.4766  0.2133
14294TIP3    H264374   6.662   4.840  11.923 -1.8204 -1.3426 -0.5409
14295TIP3   OH264375   5.437   5.759  11.253  0.1946  0.0904  0.0039
14295TIP3    H164376   5.477   5.724  11.173  1.3428  1.8465 -0.2609
14295TIP3    H264377   5.356   5.709  11.264 -0.3002  0.1960 -2.5927
14296TIP3   OH264378   0.464   2.392   0.888  0.2372  0.2345 -0.0331
14296TIP3    H164379   0.369   2.383   0.894  0.3881 -2.3813 -0.3923
14296TIP3    H264380   0.479   2.429   0.801 -0.4301 -0.1833 -0.3305
14297TIP3   OH264381   4.318   4.088  16.362  0.3119 -0.1826  0.5251
14297TIP3    H164382   4.364   4.150  16.306  0.9982 -1.3597 -0.2687
14297TIP3    H264383   4.373   4.081  16.440  0.0974  0.3906  0.7312
14298TIP3   OH264384   4.221   6.565   4.066 -0.5083  0.3274 -0.4143
14298TIP3    H164385   4.294   6.504   4.073 -1.6257 -1.1946 -1.5405
14298TIP3    H264386   4.245   6.623   3.994 -1.3487 -1.6092 -2.3500
14299TIP3   OH264387   4.666   1.361  15.853 -0.4549  0.3727 -0.4157
14299TIP3    H164388   4.572   1.358  15.871 -0.1196  1.2807  1.7472
14299TIP3    H264389   4.686   1.454  15.844  0.5846  0.3802  1.4748
14300TIP3   OH264390   4.431   0.007   2.681  0.5166  0.0840  0.2320
14300TIP3    H164391   4.409   0.021   2.589 -0.4416  0.2429  0.4654
14300TIP3    H264392   4.522  -0.022   2.681  1.2188  2.1059 -0.6105
14301TIP3   OH264393   6.781   6.492  11.132 -0.0599  0.6646  0.1151
14301TIP3    H164394   6.820   6.511  11.046  0.4558  1.7443  0.5690
14301TIP3    H264395   6.761   6.578  11.169 -2.2204  0.1567  0.2237
14302TIP3   OH264396   0.621   5.927  11.222 -0.0919 -0.1909 -0.5167
14302TIP3    H164397   0.644   5.947  11.313 -0.0607  1.3274 -0.8220
14302TIP3    H264398   0.701   5.942  11.173 -0.4671  0.4173 -0.9680
14303TIP3   OH264399   6.127   3.281  14.779 -0.2881  0.1267 -0.0777
14303TIP3    H164400   6.211   3.236  14.766  1.0939  1.8251  2.1541
14303TIP3    H264401   6.132   3.315  14.869 -2.9753  1.1328 -0.2283
14304TIP3   OH264402   3.381   4.830  13.828  0.2120 -0.5228 -0.0444
14304TIP3    H164403   3.321   4.870  13.764 -1.5435 -0.3541  1.6040
14304TIP3    H264404   3.406   4.747  13.788  0.0585  0.0610 -1.4265
14305TIP3   OH264405   1.425   2.139  16.736  0.6413 -0.1022  0.4863
14305TIP3    H164406   1.465   2.140  16.649  0.2491  0.0711  0.3065
14305TIP3    H264407   1.405   2.047  16.752  0.0945 -0.0547  0.1026
14306TIP3   OH264408   6.184   0.403  16.801 -0.0917  0.5580  0.4816
14306TIP3    H164409   6.191   0.426  16.894 -1.7586 -1.8399  1.3048
14306TIP3    H264410   6.100   0.438  16.773  0.3736  1.2115 -0.1167
14307TIP3   OH264411   4.730   0.591  11.589 -0.3678 -0.8747  0.2799
14307TIP3    H164412   4.790   0.665  11.584  0.4841 -1.5126  0.7676
14307TIP3    H264413   4.650   0.622  11.547 -1.0099  1.2409  2.8146
14308TIP3   OH264414   4.389   6.458  12.639  0.6475 -0.0548 -0.2280
14308TIP3    H164415   4.376   6.366  12.616  2.0403  0.0110 -1.4927
14308TIP3    H264416   4.421   6.498  12.558  1.8697  1.1298  0.7871
14309TIP3   OH264417   4.015   4.923   1.903  0.3562  0.4312 -0.3141
14309TIP3    H164418   3.926   4.904   1.872 -0.2758  1.4783  0.7544
14309TIP3    H264419   4.016   4.894   1.994 -0.8556  5.3781  1.6353
14310TIP3   OH264420   2.464   1.406  12.284 -0.6869 -0.1568 -0.0232
14310TIP3    H164421   2.412   1.429  12.207 -0.5010  1.9813  0.4440
14310TIP3    H264422   2.550   1.444  12.267 -1.3524  2.7400  2.3038
14311TIP3   OH264423   0.044   1.492   3.187  0.3601 -0.2340  0.5877
14311TIP3    H164424   0.137   1.498   3.210  0.3564 -0.3181  0.6227
14311TIP3    H264425   0.007   1.576   3.215  0.2953 -0.4464  1.1505
14312TIP3   OH264426   5.374   1.435  12.504 -0.0144  0.0807 -0.3037
14312TIP3    H164427   5.396   1.354  12.458  0.0431 -0.7484  1.1459
14312TIP3    H264428   5.281   1.448  12.485 -0.7931 -1.8934  1.6749
14313TIP3   OH264429   1.686   5.424  15.206 -0.0929  0.7063  0.6624
14313TIP3    H164430   1.758   5.402  15.266  0.7148  1.2904 -0.0532
14313TIP3    H264431   1.608   5.420  15.260  0.4951  0.1905  1.5053
14314TIP3   OH264432   6.375   2.975   4.073 -0.7242  0.2360  0.2550
14314TIP3    H164433   6.341   3.065   4.076  1.5466  1.1521  1.6162
14314TIP3    H264434   6.376   2.947   4.164 -2.6913 -1.7647 -0.2827
14315TIP3   OH264435   5.123   3.240  11.311 -0.0618  0.3613 -0.5296
14315TIP3    H164436   5.116   3.332  11.289  0.2450  0.7626  0.9539
14315TIP3    H264437   5.138   3.196  11.227 -0.8451  1.5703 -1.3217
14316TIP3   OH264438   2.794   4.627  16.380 -0.2449  0.0662  0.3483
14316TIP3    H164439   2.811   4.675  16.299  0.1879  0.9006  0.9200
14316TIP3    H264440   2.859   4.661  16.442 -0.7928 -0.3156  1.1409
14317TIP3   OH264441   5.869   0.357  14.564  0.3817  0.1026  0.0220
14317TIP3    H164442   5.847   0.384  14.653 -1.6287 -1.7991  0.1825
14317TIP3    H264443   5.835   0.426  14.508 -0.6230  0.1001  0.6140
14318TIP3   OH264444   5.718   0.601  12.920  0.5573  0.5060  0.2856
14318TIP3    H164445   5.673   0.685  12.934 -2.4150 -1.0415  1.0053
14318TIP3    H264446   5.735   0.568  13.009  0.9955  0.0282  0.0272
14319TIP3   OH264447   1.634   1.972  11.114  0.1767 -0.5110 -0.0077
14319TIP3    H164448   1.564   2.030  11.145  1.2484  2.7878 -2.9921
14319TIP3    H264449   1.715   2.022  11.130  1.3850 -2.0822 -0.9703
14320TIP3   OH264450   3.527   6.628   2.037  0.1548  0.2963 -0.3290
14320TIP3    H164451   3.552   6.720   2.042 -0.2498  0.3778  0.2804
14320TIP3    H264452   3.575   6.594   1.962  0.4619  0.9556 -0.4348
14321TIP3   OH264453   3.179   1.196  16.588 -0.1853 -0.4118 -0.1198
14321TIP3    H164454   3.184   1.199  16.492 -0.4096  1.3319 -0.1091
14321TIP3    H264455   3.188   1.287  16.615  1.1021 -1.0068  1.6093
14322TIP3   OH264456   4.914   6.268   1.002  1.0531 -0.0194  0.1437
14322TIP3    H164457   4.866   6.194   1.039  0.1498  0.5236  0.0780
14322TIP3    H264458   4.982   6.227   0.949 -0.1506 -0.8380 -0.8359
14323TIP3   OH264459   3.385   5.893   1.703  0.3273 -0.1658  0.2001
14323TIP3    H164460   3.397   5.906   1.797  0.2628  0.3195  0.1473
14323TIP3    H264461   3.306   5.840   1.695 -0.1685  0.5177  0.3985
14324TIP3   OH264462   3.135   4.114   1.394 -0.3219  0.4244  0.3822
14324TIP3    H164463   3.220   4.158   1.387 -0.2947  0.4428  0.8328
14324TIP3    H264464   3.098   4.121   1.306  0.4655 -0.2370 -0.0210
14325TIP3   OH264465   3.034   4.215  12.079 -0.5810  0.1125  0.8967
14325TIP3    H164466   3.027   4.290  12.019 -1.2940  0.4981  1.4512
14325TIP3    H264467   2.944   4.183  12.087 -0.4858  0.0383  1.7230
14326TIP3   OH264468   0.871   5.872   4.442  0.8238  0.7411  0.1223
14326TIP3    H164469   0.873   5.941   4.375  0.6326  0.8310  0.2087
14326TIP3    H264470   0.921   5.909   4.515 -0.9995  1.6394  0.9824
14327TIP3   OH264471   0.749   6.070   3.856 -0.5424 -0.1501 -0.0013
14327TIP3    H164472   0.700   6.151   3.873  0.2209  0.3923 -0.3356
14327TIP3    H264473   0.697   6.001   3.898 -0.8004  0.6135  0.9794
14328TIP3   OH264474   5.240   2.267  12.316 -0.3546  0.1264 -0.2001
14328TIP3    H164475   5.329   2.281  12.286  0.0048  0.6535  1.0558
14328TIP3    H264476   5.238   2.302  12.405 -0.6730 -3.7011  1.4852
14329TIP3   OH264477   3.455   5.263  14.220 -0.1691 -0.1193 -1.2953
14329TIP3    H164478   3.499   5.346  14.239 -0.5489  0.0618 -1.1900
14329TIP3    H264479   3.374   5.289  14.174 -0.9172 -0.3493 -0.1428
14330TIP3   OH264480   6.279   6.119   4.817  0.2492 -0.2989  0.0886
14330TIP3    H164481   6.350   6.102   4.880  0.4768 -1.9648 -0.5531
14330TIP3    H264482   6.215   6.050   4.836 -0.7178  0.5507 -0.0468
14331TIP3   OH264483   2.324   3.179  17.114 -0.2752  0.1799  0.6291
14331TIP3    H164484   2.315   3.253  17.175  0.4723  0.6385  0.1993
14331TIP3    H264485   2.234   3.154  17.093 -0.6109  2.3683 -0.8951
14332TIP3   OH264486   6.010   0.181  16.237  0.5006  0.1102  0.6147
14332TIP3    H164487   6.069   0.174  16.312  0.7619  0.4257  0.4405
14332TIP3    H264488   6.051   0.125  16.170  0.6596  0.4188  0.4547
14333TIP3   OH264489   3.467   2.764  13.058 -0.0330 -0.4248  0.1543
14333TIP3    H164490   3.553   2.794  13.027 -0.8349  1.0087 -0.7991
14333TIP3    H264491   3.455   2.679  13.018  0.2242  0.1133 -1.0986
14334TIP3   OH264492   2.866   5.124  11.634 -0.3303  0.2765  0.3224
14334TIP3    H164493   2.935   5.069  11.598  1.0692  0.8890  1.9243
14334TIP3    H264494   2.800   5.063  11.666  0.4397 -0.4055  0.6350
14335TIP3   OH264495   0.344   3.440   2.249  0.6108 -0.1245  0.1330
14335TIP3    H164496   0.347   3.460   2.342 -0.0853  0.0711  0.1148
14335TIP3    H264497   0.427   3.393   2.232  0.7041 -0.2306  0.8580
14336TIP3   OH264498   3.273   5.188   1.139  0.6671 -0.9413 -0.0649
14336TIP3    H164499   3.231   5.102   1.133  1.7567 -1.4719 -0.2930
14336TIP3    H264500   3.230   5.230   1.214 -1.0292 -1.0087 -0.9427
14337TIP3   OH264501   2.376   0.052  10.622 -0.4036  0.0270 -0.1691
14337TIP3    H164502   2.458   0.100  10.611 -0.8138  0.6089 -0.6679
14337TIP3    H264503   2.402  -0.028  10.670  0.5567 -0.1208 -0.9140
14338TIP3   OH264504   3.398   3.111  12.584  0.2559  0.4929 -0.8146
14338TIP3    H164505   3.348   3.183  12.544 -1.1660 -1.5212 -2.9811
14338TIP3    H264506   3.345   3.084  12.659  0.8169  1.7042  0.0304
14339TIP3   OH264507   1.067   2.337   1.138 -0.2187  0.0123  0.3259
14339TIP3    H164508   1.033   2.251   1.113 -0.2096  0.2453 -0.5193
14339TIP3    H264509   1.090   2.327   1.231 -0.7065 -0.7361  0.3804
14340TIP3   OH264510   2.266   5.241   4.000  0.4736  0.1576  0.1704
14340TIP3    H164511   2.263   5.150   3.973  2.5710  0.5433 -1.6550
14340TIP3    H264512   2.312   5.239   4.085  1.3685 -0.4332 -0.3092
14341TIP3   OH264513   2.344   1.503   2.837 -0.3192 -0.0373  0.3380
14341TIP3    H164514   2.268   1.546   2.797 -0.0697 -0.8073 -1.0101
14341TIP3    H264515   2.384   1.453   2.766  0.9349 -0.3738  1.2440
14342TIP3   OH264516   1.152   2.897  11.777  0.3985  0.0022 -0.1039
14342TIP3    H164517   1.171   2.904  11.871 -0.9110 -2.1057  0.3806
14342TIP3    H264518   1.226   2.846  11.742  0.9067  0.8214 -0.2590
14343TIP3   OH264519   4.740   2.210  11.058 -0.1883 -0.2169  0.1627
14343TIP3    H164520   4.835   2.220  11.068 -0.0662 -1.3258  0.1576
14343TIP3    H264521   4.724   2.116  11.063 -1.1353 -0.1642 -1.1523
14344TIP3   OH264522   1.335   6.341  16.213  0.8244 -0.0436 -0.2976
14344TIP3    H164523   1.336   6.292  16.131  0.1910 -0.4538 -0.0608
14344TIP3    H264524   1.397   6.294  16.270 -0.0027 -0.7689  0.0321
14345TIP3   OH264525   5.156   0.388  12.030 -0.4349 -0.3432  0.2772
14345TIP3    H164526   5.099   0.448  12.079 -2.6307 -1.3162 -0.9638
14345TIP3    H264527   5.197   0.333  12.098 -0.1789  1.0006  1.2596
14346TIP3   OH264528   1.231   2.689  13.738 -0.0007  0.0338  0.2121
14346TIP3    H164529   1.267   2.778  13.741 -1.2355  0.7085 -2.1829
14346TIP3    H264530   1.276   2.647  13.665 -0.8103 -0.6559  0.0934
14347TIP3   OH264531   5.744   6.286  13.267 -0.2975  0.1273 -0.4472
14347TIP3    H164532   5.835   6.272  13.241 -0.5552 -0.6113 -0.9806
14347TIP3    H264533   5.728   6.220  13.335  0.0336  1.3161  0.8444
14348TIP3   OH264534   5.133   4.964   2.583  0.0606  0.2041 -0.4123
14348TIP3    H164535   5.086   5.043   2.556  1.3006  0.9939 -0.3040
14348TIP3    H264536   5.118   4.958   2.677 -0.9685 -0.3446 -0.5901
14349TIP3   OH264537   6.391   4.625  11.857  0.3638 -0.1047  0.1150
14349TIP3    H164538   6.486   4.625  11.844  0.7028 -1.5210  2.1089
14349TIP3    H264539   6.374   4.704  11.908  0.5058 -0.0419  0.0676
14350TIP3   OH264540   1.661   5.093   2.259  0.0361  0.4808 -0.1274
14350TIP3    H164541   1.649   5.006   2.298 -1.3794  1.3998  1.6579
14350TIP3    H264542   1.677   5.151   2.333  2.0976  1.6279 -1.3715
14351TIP3   OH264543   5.315   5.206  12.185 -0.1829  0.9418  0.3090
14351TIP3    H164544   5.331   5.119  12.221  0.4613  0.8583 -0.1737
14351TIP3    H264545   5.253   5.191  12.113  0.9201  0.6994 -0.6177
14352TIP3   OH264546   3.700   2.351   2.320  0.6329 -0.7625  0.2100
14352TIP3    H164547   3.720   2.324   2.231 -0.1184 -0.7580  0.0280
14352TIP3    H264548   3.771   2.316   2.373  1.3746 -0.3098 -0.4599
14353TIP3   OH264549   3.228   2.405  12.593 -0.8240 -0.4987  0.0060
14353TIP3    H164550   3.172   2.331  12.617  0.8582 -1.7000  0.3803
14353TIP3    H264551   3.270   2.430  12.676 -1.2353  0.7882 -0.1495
14354TIP3   OH264552   2.615   1.390  15.101 -0.1650  0.7065  0.6911
14354TIP3    H164553   2.593   1.397  15.194  0.4076  1.9652  0.7613
14354TIP3    H264554   2.622   1.296  15.084 -1.2726  0.4254  1.6773
14355TIP3   OH264555   2.508   0.506   3.472  0.0091  0.3245 -0.5641
14355TIP3    H164556   2.496   0.421   3.513  1.1994  0.1761 -0.4946
14355TIP3    H264557   2.420   0.546   3.474 -0.1648 -0.0443  1.2896
14356TIP3   OH264558   5.569   2.546  12.973  0.2673 -0.5175 -0.1689
14356TIP3    H164559   5.575   2.451  12.974 -0.6062 -0.5752  0.5595
14356TIP3    H264560   5.635   2.574  13.038 -0.2318 -0.6837  0.4210
14357TIP3   OH264561   6.790   4.199  10.991  0.4888 -0.8929 -0.2400
14357TIP3    H164562   6.709   4.249  10.976  0.1771 -1.9378 -2.2935
14357TIP3    H264563   6.843   4.257  11.046 -0.8000  0.6907 -0.5710
14358TIP3   OH264564   1.042   2.355  10.823  0.1361  0.1492  0.0047
14358TIP3    H164565   1.016   2.447  10.820 -3.2488 -0.6315  0.8786
14358TIP3    H264566   1.084   2.339  10.739  0.5760  2.3910 -0.2721
14359TIP3   OH264567   4.167   2.166   5.218 -0.0930  0.0104  0.5949
14359TIP3    H164568   4.088   2.112   5.230 -0.7482  0.6861 -0.4801
14359TIP3    H264569   4.220   2.117   5.155 -0.2883  0.2002  0.2802
14360TIP3   OH264570   6.752   4.309   0.403  0.4246 -0.5080 -0.2176
14360TIP3    H164571   6.795   4.346   0.325 -1.0732 -1.8454 -1.7645
14360TIP3    H264572   6.722   4.385   0.452 -0.6495  0.4104 -2.1670
14361TIP3   OH264573   5.726   3.398   0.154 -0.6089  0.0955  0.1024
14361TIP3    H164574   5.802   3.454   0.139 -0.9372 -0.1441 -3.1377
14361TIP3    H264575   5.652   3.445   0.116 -1.5479 -1.0023  0.4788
14362TIP3   OH264576   1.052   1.380  11.950 -0.3853 -0.2296  0.0178
14362TIP3    H164577   1.106   1.385  11.871 -3.3176 -1.7915 -2.2904
14362TIP3    H264578   1.065   1.465  11.993 -0.0924  1.5146 -3.1853
14363TIP3   OH264579   2.884   3.339   5.266 -0.4938  0.8687 -0.5397
14363TIP3    H164580   2.818   3.269   5.269 -0.2895  0.6432 -1.2214
14363TIP3    H264581   2.833   3.420   5.266 -0.8338  0.6869 -2.1367
14364TIP3   OH264582   3.880   1.605  11.949  0.6739 -0.6423 -0.1928
14364TIP3    H164583   3.934   1.539  11.992 -0.7301 -1.9171 -0.2752
14364TIP3    H264584   3.874   1.677  12.011  5.5380  1.3637 -1.6194
14365TIP3   OH264585   2.262   6.740  15.670 -0.5612  0.0935 -0.1010
14365TIP3    H164586   2.289   6.808  15.608 -0.9311 -0.4496 -0.8857
14365TIP3    H264587   2.208   6.681  15.617 -1.5985  0.0771  0.9528
14366TIP3   OH264588   5.679   0.914  15.510 -0.1875 -0.2186  0.6082
14366TIP3    H164589   5.641   0.827  15.518  0.9453 -0.7913 -0.0074
14366TIP3    H264590   5.665   0.938  15.418  1.1990 -0.5874  0.2790
14367TIP3   OH264591   0.371   3.294   0.393  0.1904  0.0791  0.0673
14367TIP3    H164592   0.399   3.384   0.377  1.5375 -0.5368 -1.3042
14367TIP3    H264593   0.395   3.247   0.314  0.0699 -1.6205  0.9920
14368TIP3   OH264594   6.356   4.450   2.585  0.2172 -0.2563 -0.5783
14368TIP3    H164595   6.373   4.534   2.543  0.7857 -0.8103 -1.5114
14368TIP3    H264596   6.365   4.386   2.514  1.3199 -1.2356  0.3921
14369TIP3   OH264597   2.510   2.411  16.142 -0.0160  0.1390  0.0458
14369TIP3    H164598   2.484   2.385  16.231 -0.8489  0.6543 -0.0307
14369TIP3    H264599   2.461   2.492  16.127 -0.8964 -0.6244 -1.3792
14370TIP3   OH264600   4.178   1.715  16.374 -0.2233  0.3048  0.3001
14370TIP3    H164601   4.125   1.681  16.302 -0.6648 -1.3154  1.3500
14370TIP3    H264602   4.234   1.642  16.400  1.2741  1.4350  0.4096
14371TIP3   OH264603   0.923   2.714   1.408  0.1372 -0.0552  0.0334
14371TIP3    H164604   0.959   2.783   1.465 -0.6295 -0.4588  1.0374
14371TIP3    H264605   0.861   2.760   1.351 -0.2011  0.1255  0.5398
14372TIP3   OH264606   4.352   3.030  13.696  0.5897 -0.0461 -0.3509
14372TIP3    H164607   4.371   3.121  13.675 -0.1668  0.5780  1.4674
14372TIP3    H264608   4.348   3.028  13.792 -2.1348 -1.4111 -0.4079
14373TIP3   OH264609   1.351   5.776   0.126  0.1667  0.1146 -0.1730
14373TIP3    H164610   1.422   5.839   0.134  0.4622 -0.3402  0.9911
14373TIP3    H264611   1.394   5.691   0.121 -0.2676 -0.1003 -0.3580
14374TIP3   OH264612   4.299   2.613  14.957 -0.0088 -0.1515  0.3571
14374TIP3    H164613   4.302   2.552  14.883  2.6339  2.6969 -2.2207
14374TIP3    H264614   4.215   2.658  14.947 -0.2096 -0.6401 -0.2210
14375TIP3   OH264615   0.366   4.781   2.103  0.0332 -0.2000  0.5218
14375TIP3    H164616   0.397   4.872   2.101  0.7846 -0.3700  2.4478
14375TIP3    H264617   0.382   4.752   2.193  0.3447 -2.4374 -0.1882
14376TIP3   OH264618   2.385   5.205   0.965  0.2661  0.4480 -0.0652
14376TIP3    H164619   2.319   5.144   0.931  2.3269 -2.2104  0.4028
14376TIP3    H264620   2.389   5.274   0.899 -0.4261 -1.2032 -1.9458
14377TIP3   OH264621   2.619   6.128   2.388 -0.7664  0.2317 -0.4214
14377TIP3    H164622   2.683   6.059   2.370 -1.7955 -0.9601  0.3304
14377TIP3    H264623   2.668   6.196   2.434  0.1393 -0.2582 -0.6486
14378TIP3   OH264624   5.665   0.603   5.930  0.4140  0.0359 -0.2888
14378TIP3    H164625   5.600   0.665   5.962  0.4196  0.8322 -1.7038
14378TIP3    H264626   5.647   0.521   5.976 -0.0869  0.8725  1.0486
14379TIP3   OH264627   6.320   2.134  11.103 -0.0913 -0.1461 -0.2252
14379TIP3    H164628   6.385   2.066  11.084 -0.1623  0.2063 -1.9212
14379TIP3    H264629   6.238   2.099  11.069 -0.7719 -0.4717  1.6531
14380TIP3   OH264630   1.609   3.125   5.636  0.0560  0.4411  0.1595
14380TIP3    H164631   1.583   3.217   5.638  2.7508  1.3698 -1.5196
14380TIP3    H264632   1.694   3.125   5.592  0.5635 -2.7893  0.8661
14381TIP3   OH264633   2.958   3.194   2.750 -0.2361  0.2546 -0.0246
14381TIP3    H164634   2.958   3.286   2.726 -0.4861  0.2255 -0.1412
14381TIP3    H264635   2.956   3.147   2.667 -2.5447  0.1578  0.0358
14382TIP3   OH264636   5.988   4.571  15.974 -0.2278 -0.5737  0.1530
14382TIP3    H164637   5.942   4.655  15.970  0.6283 -0.1198 -0.4210
14382TIP3    H264638   5.921   4.506  15.950 -1.7986 -0.4835  3.6102
14383TIP3   OH264639   1.502   1.742  11.657 -0.0926  0.0066 -0.2792
14383TIP3    H164640   1.518   1.735  11.563  1.1194 -1.6313  0.0014
14383TIP3    H264641   1.563   1.679  11.696  0.2898  1.5039  1.6928
14384TIP3   OH264642   3.493   1.216   3.372  0.7147 -0.5945 -0.6775
14384TIP3    H164643   3.457   1.284   3.315 -1.7228  0.2848  1.7218
14384TIP3    H264644   3.421   1.156   3.388  0.1039  0.9098  3.8534
14385TIP3   OH264645   6.212   4.734   5.509  0.2052 -0.2264  0.5055
14385TIP3    H164646   6.142   4.669   5.510 -0.5937  0.6162  0.7803
14385TIP3    H264647   6.167   4.818   5.503  1.2149  0.3134  0.1231
14386TIP3   OH264648   0.503   4.108   3.140  0.0786  0.1385  0.5047
14386TIP3    H164649   0.471   4.178   3.083 -1.0220  0.1941  1.1507
14386TIP3    H264650   0.521   4.035   3.081 -0.7671  0.2900  0.0432
14387TIP3   OH264651   1.655   5.043  16.689  0.0396 -0.3657  0.0773
14387TIP3    H164652   1.724   5.099  16.725 -0.9360  0.9248  0.0184
14387TIP3    H264653   1.606   5.014  16.766 -0.9966  0.9878 -0.0254
14388TIP3   OH264654   0.030   6.617  15.637  0.1687 -0.5510  0.3251
14388TIP3    H164655  -0.013   6.677  15.577 -1.8180 -0.6425  1.5891
14388TIP3    H264656   0.115   6.599  15.596 -0.4572  0.6431 -1.6106
14389TIP3   OH264657   2.947   1.816  13.462 -0.2821  0.4980 -0.4653
14389TIP3    H164658   2.873   1.839  13.407  0.4330  1.2814 -1.1248
14389TIP3    H264659   2.919   1.737  13.509 -1.7204  1.0786 -0.3004
14390TIP3   OH264660   2.928   6.542  12.615  0.6739  0.2223 -0.3695
14390TIP3    H164661   2.841   6.578  12.630  0.3834  0.1190 -1.7110
14390TIP3    H264662   2.981   6.617  12.586  0.9399  0.2126  0.0817
14391TIP3   OH264663   0.860   3.124   1.701 -0.6096 -0.4485 -0.1650
14391TIP3    H164664   0.898   3.196   1.752 -0.4295 -0.3371 -0.4526
14391TIP3    H264665   0.771   3.115   1.735 -0.0235 -1.3767  1.2165
14392TIP3   OH264666   2.234   5.055  14.279 -0.5151  0.0692  0.1172
14392TIP3    H164667   2.196   5.036  14.365 -2.3239  0.0790 -0.6231
14392TIP3    H264668   2.158   5.073  14.223  0.6934  1.4669 -1.1489
14393TIP3   OH264669   4.734   4.321  15.379  0.3308  0.0873 -0.5824
14393TIP3    H164670   4.784   4.341  15.458 -0.8055  1.6361 -0.2137
14393TIP3    H264671   4.664   4.263  15.410 -0.9911  1.8483 -0.0987
14394TIP3   OH264672   5.764   5.713   3.789 -0.4495  0.2375  0.9399
14394TIP3    H164673   5.680   5.667   3.795  0.8996 -2.7279 -0.5314
14394TIP3    H264674   5.829   5.643   3.785  1.9758  2.3722  0.2296
14395TIP3   OH264675   2.524   2.213  12.128  0.6953  0.3096 -0.2036
14395TIP3    H164676   2.557   2.225  12.217 -0.8915  2.2702  0.1769
14395TIP3    H264677   2.595   2.245  12.072  1.1154  0.4864  0.4174
14396TIP3   OH264678   1.502   0.421  15.410 -0.0130  0.0134 -0.3470
14396TIP3    H164679   1.476   0.359  15.478 -1.2170  0.1371 -0.6646
14396TIP3    H264680   1.571   0.376  15.361  0.9274 -0.0499  0.9754
14397TIP3   OH264681   4.215   6.092   3.922 -0.1820  0.4040  0.3545
14397TIP3    H164682   4.251   6.045   3.847 -1.0781 -1.0045  0.7468
14397TIP3    H264683   4.130   6.049   3.938 -1.4120  2.6576  0.2965
14398TIP3   OH264684   4.050   5.748   3.205 -0.1532 -0.2920 -0.0502
14398TIP3    H164685   4.040   5.653   3.211 -1.0033 -0.3133 -1.3563
14398TIP3    H264686   4.101   5.772   3.282 -0.2489 -1.7583  0.4968
14399TIP3   OH264687   5.952   6.574  10.924 -0.2090 -0.5579 -0.7843
14399TIP3    H164688   5.969   6.543  10.835  0.0071 -1.0721 -0.5665
14399TIP3    H264689   5.899   6.505  10.964 -1.5819  0.3400 -0.9728
14400TIP3   OH264690   4.202   6.720  14.419  0.4123  0.1198 -0.0809
14400TIP3    H164691   4.140   6.729  14.491 -0.1286  1.0920 -0.6434
14400TIP3    H264692   4.177   6.788  14.356  0.9628 -0.5993 -1.1284
14401TIP3   OH264693   5.327   4.790  13.205 -0.2349  0.2973  0.8708
14401TIP3    H164694   5.417   4.783  13.174 -1.0000 -0.3728 -1.4064
14401TIP3    H264695   5.286   4.852  13.145 -1.0978  1.2592  2.4068
14402TIP3   OH264696   6.379   2.573  13.507 -0.0403 -0.1336  0.1368
14402TIP3    H164697   6.412   2.649  13.458 -1.4063  0.4504  0.0700
14402TIP3    H264698   6.451   2.549  13.565  0.4548  1.1708  0.1070
14403TIP3   OH264699   0.486   0.713   4.591 -0.0956 -0.4586 -0.1478
14403TIP3    H164700   0.467   0.637   4.647 -0.4030 -1.1967 -1.2161
14403TIP3    H264701   0.454   0.687   4.504 -1.8139  1.5542 -0.2045
14404TIP3   OH264702   2.559   1.865   6.703  0.4149 -0.8242  0.1934
14404TIP3    H164703   2.549   1.949   6.659  0.8999 -1.0378 -0.3346
14404TIP3    H264704   2.577   1.888   6.794  1.2713 -0.3361 -0.0869
14405TIP3   OH264705   5.079   0.029   6.021 -0.3657  0.2131 -0.5348
14405TIP3    H164706   5.158   0.016   6.074 -0.4780  0.5178 -0.2867
14405TIP3    H264707   5.017  -0.036   6.054 -1.2054  1.8104  1.2531
14406TIP3   OH264708   4.148   4.852  12.175 -0.3811 -0.2281 -0.0606
14406TIP3    H164709   4.142   4.939  12.136 -0.8530 -0.5451 -0.7205
14406TIP3    H264710   4.220   4.809  12.129  0.3075  0.0380  0.7407
14407TIP3   OH264711   0.996   1.155  11.012  0.0543  0.7735  0.0493
14407TIP3    H164712   1.012   1.205  10.932  0.2054  0.2675 -0.2382
14407TIP3    H264713   0.901   1.141  11.014 -0.0434  1.4368  0.3539
14408TIP3   OH264714   3.831   4.551   2.825 -0.2182  0.0594  0.2077
14408TIP3    H164715   3.911   4.513   2.861 -0.6791 -2.0343 -0.8430
14408TIP3    H264716   3.763   4.529   2.888 -0.4927 -0.9551 -0.4202
14409TIP3   OH264717   1.050   1.065  13.425 -0.3153 -0.2058  0.0156
14409TIP3    H164718   1.017   1.058  13.335 -1.6284 -0.4975  0.5100
14409TIP3    H264719   0.993   1.009  13.477  0.1143  0.3490  1.1257
14410TIP3   OH264720   4.509   4.690  12.286 -0.1328  0.4156 -0.2318
14410TIP3    H164721   4.580   4.752  12.270 -0.3293  0.1695 -2.3351
14410TIP3    H264722   4.437   4.721  12.230 -1.0891 -0.3228  0.5494
14411TIP3   OH264723   1.818   4.264   5.353 -0.3614 -0.1941  0.1396
14411TIP3    H164724   1.736   4.298   5.319 -0.8416 -1.3042  0.1247
14411TIP3    H264725   1.873   4.251   5.276 -0.3844  0.0222  0.0883
14412TIP3   OH264726   6.550   0.103  13.772  0.1061 -0.8594 -0.2608
14412TIP3    H164727   6.492   0.124  13.699  0.6289 -0.4546 -0.5676
14412TIP3    H264728   6.532   0.171  13.838  0.9123 -0.1459 -0.7512
14413TIP3   OH264729   2.856   3.326   6.386  0.5040 -0.2084 -0.2367
14413TIP3    H164730   2.793   3.362   6.449  0.9202  1.0615 -0.5188
14413TIP3    H264731   2.843   3.232   6.392 -1.8633  0.0197 -0.7165
14414TIP3   OH264732   3.129   0.443  15.007  0.0309 -0.0683  0.7341
14414TIP3    H164733   3.047   0.488  15.025  0.0203  0.8569 -1.2823
14414TIP3    H264734   3.196   0.494  15.053 -0.3602 -0.0239  1.2580
14415TIP3   OH264735   4.672   6.433  14.683 -0.2442  0.3396  0.3308
14415TIP3    H164736   4.583   6.417  14.715 -0.0095  0.6085  1.1659
14415TIP3    H264737   4.724   6.363  14.721 -0.0934  0.2096 -0.1173
14416TIP3   OH264738   0.692   1.238   0.314 -0.5218 -0.7082  0.1845
14416TIP3    H164739   0.610   1.215   0.271 -1.2102  2.5613 -0.5084
14416TIP3    H264740   0.672   1.237   0.407 -1.8759  1.4073 -0.0073
14417TIP3   OH264741   0.464   1.572  16.825  0.6724 -0.4484  0.1184
14417TIP3    H164742   0.444   1.517  16.901 -0.1701 -1.0190 -0.5007
14417TIP3    H264743   0.401   1.643  16.830  0.4365 -0.6340 -0.1911
14418TIP3   OH264744   5.139   2.743  12.700  0.2976  0.1634  0.1019
14418TIP3    H164745   5.204   2.703  12.757 -1.9558 -0.3541  2.5478
14418TIP3    H264746   5.126   2.680  12.629  1.1631 -0.5597  0.5760
14419TIP3   OH264747   5.222   5.071   4.850 -0.2493  0.0997  0.5261
14419TIP3    H164748   5.167   5.108   4.920 -0.0064 -1.2197  1.4658
14419TIP3    H264749   5.165   5.069   4.773 -0.6916  1.1093  0.8062
14420TIP3   OH264750   6.002   1.892  12.524 -0.0913 -0.5145 -0.2046
14420TIP3    H164751   6.005   1.945  12.444  0.8737  0.2142  0.2902
14420TIP3    H264752   6.093   1.872  12.543 -0.2223  0.1144  1.2160
14421TIP3   OH264753   0.019   1.823  13.520 -0.7474 -0.4552  0.2032
14421TIP3    H164754  -0.035   1.746  13.505 -1.1516  0.1421 -1.5863
14421TIP3    H264755  -0.027   1.872  13.589 -2.5284  0.0292 -1.2527
14422TIP3   OH264756   5.144   1.536  12.740  0.0386 -0.1168 -0.5106
14422TIP3    H164757   5.081   1.574  12.801 -2.8798 -1.1341 -2.6544
14422TIP3    H264758   5.190   1.612  12.704  0.0214  0.6721  1.0268
14423TIP3   OH264759   6.691   6.496   6.142 -0.3414  0.4045 -0.2255
14423TIP3    H164760   6.605   6.462   6.164 -0.3217  1.6715  2.1853
14423TIP3    H264761   6.748   6.466   6.213  0.7117  1.3680 -0.6258
14424TIP3   OH264762   4.820   2.333  10.678  0.0575 -0.1689  0.2985
14424TIP3    H164763   4.855   2.416  10.709  3.5512 -1.6221  0.6450
14424TIP3    H264764   4.851   2.325  10.588 -1.7374 -0.3644 -0.3416
14425TIP3   OH264765   1.653   5.016  16.132 -0.6551 -0.1953  0.5249
14425TIP3    H164766   1.627   5.105  16.153 -1.9107 -0.8900  2.0469
14425TIP3    H264767   1.586   4.985  16.071 -0.3323 -0.1752  0.1562
14426TIP3   OH264768   3.070   1.085   4.356 -0.0186  0.2476 -0.0871
14426TIP3    H164769   3.164   1.079   4.372 -0.1461 -2.2880  0.2550
14426TIP3    H264770   3.034   1.122   4.437  0.5949  0.2530  0.1851
14427TIP3   OH264771   2.878   0.997   0.690 -0.0159  0.2193  0.7290
14427TIP3    H164772   2.843   1.033   0.608 -1.3862 -1.3013  0.5999
14427TIP3    H264773   2.940   0.929   0.661 -0.2940 -0.1274  0.9360
14428TIP3   OH264774   6.821   3.592   1.279 -0.2987 -0.0644  0.2927
14428TIP3    H164775   6.875   3.624   1.351  0.4029 -0.7882  0.1073
14428TIP3    H264776   6.882   3.541   1.225 -1.1485 -0.8466  0.0492
14429TIP3   OH264777   2.162   6.585   3.045  0.2556 -0.5873  0.4465
14429TIP3    H164778   2.147   6.679   3.036  0.0337 -0.4741  1.7289
14429TIP3    H264779   2.230   6.565   2.981  0.0341  0.3655 -0.1087
14430TIP3   OH264780   2.478   5.324  15.338  0.6242  0.0179 -0.0291
14430TIP3    H164781   2.496   5.336  15.432  1.7548 -0.3258 -0.1806
14430TIP3    H264782   2.503   5.233  15.321  2.3154  0.6290 -1.0554
14431TIP3   OH264783   1.666   4.733  13.865 -0.2747 -0.5346 -0.2058
14431TIP3    H164784   1.672   4.732  13.960 -2.9936 -1.1763  0.0462
14431TIP3    H264785   1.743   4.685  13.835  1.9462  1.7395  1.4868
14432TIP3   OH264786   5.440   2.685  12.560  0.2944 -0.1074  0.3758
14432TIP3    H164787   5.382   2.691  12.485 -0.3662  0.8044  0.9354
14432TIP3    H264788   5.453   2.776  12.588  0.4617 -0.4313  1.4106
14433TIP3   OH264789   4.298   1.846  11.744 -0.5065  0.2684  0.4107
14433TIP3    H164790   4.248   1.927  11.742  0.4492  0.8601 -0.3105
14433TIP3    H264791   4.251   1.790  11.806 -0.3584  1.9268  2.1011
14434TIP3   OH264792   3.369   2.246   6.558 -0.0640 -0.0161 -0.5267
14434TIP3    H164793   3.302   2.253   6.627  0.1656  0.1880 -0.3235
14434TIP3    H264794   3.365   2.154   6.531  0.0662 -0.1754 -0.0144
14435TIP3   OH264795   4.847   0.428  12.112  0.2644 -0.0885 -0.4165
14435TIP3    H164796   4.888   0.503  12.156  0.2482  0.0516 -0.6349
14435TIP3    H264797   4.760   0.461  12.087 -0.2616 -0.6062  0.6774
14436TIP3   OH264798   4.035   6.122  16.335 -0.0337 -0.1009 -0.0779
14436TIP3    H164799   3.969   6.146  16.269  1.3447 -0.5122 -1.6924
14436TIP3    H264800   4.054   6.030  16.315  0.5352 -0.1759  0.7988
14437TIP3   OH264801   0.293   1.747  14.308  0.0694 -0.4028 -0.8698
14437TIP3    H164802   0.349   1.758  14.232 -0.8154  0.8515 -1.3748
14437TIP3    H264803   0.261   1.835  14.327  0.6481 -0.5990  1.2673
14438TIP3   OH264804   1.032   5.053   3.545  0.2986  0.0034 -0.1239
14438TIP3    H164805   1.018   4.960   3.528 -2.1431  0.2758  0.0138
14438TIP3    H264806   0.973   5.073   3.617  2.3459  1.2434  1.2862
14439TIP3   OH264807   2.711   4.460  14.713 -0.0103 -0.4982 -0.5978
14439TIP3    H164808   2.682   4.381  14.759 -0.8182 -0.2379 -0.6470
14439TIP3    H264809   2.630   4.498  14.678  0.1410  1.2812  0.8723
14440TIP3   OH264810   4.726   2.137   0.088  0.4317 -0.0723 -0.2071
14440TIP3    H164811   4.766   2.215   0.128 -0.8159  0.9470 -0.8797
14440TIP3    H264812   4.800   2.086   0.056  1.3256  0.3986  1.0115
14441TIP3   OH264813   3.229   2.059  12.331 -0.4206  0.0933  0.1465
14441TIP3    H164814   3.273   2.140  12.304 -1.3231  1.2284  1.9410
14441TIP3    H264815   3.250   1.997  12.261  1.7836  1.3403 -0.4053
14442TIP3   OH264816   5.807   4.350  12.968  0.2126  0.4308  0.0838
14442TIP3    H164817   5.778   4.268  13.009  1.6523 -0.0793  0.1540
14442TIP3    H264818   5.728   4.403  12.961 -0.5984 -0.6400  0.8089
14443TIP3   OH264819   4.568   0.979  12.487  0.0251  0.0500 -0.6025
14443TIP3    H164820   4.646   1.003  12.538  1.7412 -0.5926 -2.7540
14443TIP3    H264821   4.581   0.886  12.467 -2.0633 -0.4593  0.1699
14444TIP3   OH264822   3.107   6.057  14.292 -0.8184  0.2831 -0.1758
14444TIP3    H164823   3.039   6.020  14.235 -0.1789  0.3843 -1.0284
14444TIP3    H264824   3.081   6.149  14.302 -1.3206  0.0944  0.2925
14445TIP3   OH264825   1.955   2.556  16.898  0.3511 -0.2409 -0.0627
14445TIP3    H164826   1.891   2.588  16.835 -0.6157  2.9281  2.3062
14445TIP3    H264827   1.904   2.506  16.962  0.9289 -1.1417 -0.2734
14446TIP3   OH264828   3.872   4.154  12.608 -0.1546  0.0609 -0.9745
14446TIP3    H164829   3.833   4.234  12.574  0.7656 -0.0278 -2.3043
14446TIP3    H264830   3.933   4.183  12.676 -0.3643  0.4185 -0.9396
14447TIP3   OH264831   0.003   4.296   3.062  0.5002  0.5207 -0.0542
14447TIP3    H164832  -0.083   4.269   3.029 -0.8671  2.3127  1.7709
14447TIP3    H264833   0.032   4.222   3.116 -1.0051  0.7353  1.1428
14448TIP3   OH264834   6.167   5.290  10.414  0.1178 -0.5394 -0.3565
14448TIP3    H164835   6.169   5.199  10.443  0.4249 -0.2419  0.6130
14448TIP3    H264836   6.231   5.294  10.342  1.8228 -0.6308  1.0774
14449TIP3   OH264837   1.146   2.569  10.231 -0.2230 -0.5041  0.3076
14449TIP3    H164838   1.195   2.632  10.284 -1.6170  0.7068  0.2428
14449TIP3    H264839   1.058   2.607  10.225 -0.3573 -1.0409 -2.1357
14450TIP3   OH264840   0.930   3.212   3.400 -0.2762  0.6549 -0.1900
14450TIP3    H164841   0.883   3.133   3.430 -0.6224  1.2099  0.7747
14450TIP3    H264842   0.863   3.263   3.354 -1.3318  2.4730  3.0174
14451TIP3   OH264843   5.030   5.380   2.820 -0.0448  0.3934 -0.2141
14451TIP3    H164844   5.107   5.409   2.771  0.9784  0.9319  1.6097
14451TIP3    H264845   5.063   5.313   2.879 -1.0579  0.3683  0.3456
14452TIP3   OH264846   3.026   5.452  13.466  0.3195  0.3570  0.1756
14452TIP3    H164847   3.063   5.446  13.379  0.2645  0.6739  0.1267
14452TIP3    H264848   3.093   5.415  13.524  0.9501  1.3897  0.1473
14453TIP3   OH264849   4.723   3.888  10.997 -0.2999  0.7347  0.3217
14453TIP3    H164850   4.664   3.888  10.921  1.0502  2.0103 -0.8056
14453TIP3    H264851   4.780   3.812  10.983  2.0365  2.6506 -1.8150
14454TIP3   OH264852   1.730   2.815   4.380 -0.3796  0.1271  0.2918
14454TIP3    H164853   1.709   2.737   4.328 -0.1485 -0.5139  1.1447
14454TIP3    H264854   1.796   2.785   4.442  0.4414  1.2489 -0.0131
14455TIP3   OH264855   4.518   3.683   3.482  0.8325  0.4818 -0.1471
14455TIP3    H164856   4.582   3.686   3.552  1.4328  1.4196 -0.7168
14455TIP3    H264857   4.560   3.728   3.409  0.1087 -0.2163 -1.0200
14456TIP3   OH264858   6.124   3.593  13.621  0.8464 -0.0016  0.0832
14456TIP3    H164859   6.131   3.562  13.531 -1.4460  1.2241 -0.6135
14456TIP3    H264860   6.056   3.538  13.660 -0.6917  1.6741 -0.0803
14457TIP3   OH264861   0.964   2.507  15.774  0.0022 -0.0543 -0.1946
14457TIP3    H164862   0.897   2.530  15.838  0.2432 -1.4905  0.6280
14457TIP3    H264863   0.915   2.467  15.702 -0.1584  0.2837 -0.2706
14458TIP3   OH264864   0.800   4.798  15.605  0.2523  0.3793 -0.5002
14458TIP3    H164865   0.835   4.713  15.580  1.5435  0.9946 -0.8724
14458TIP3    H264866   0.823   4.809  15.697  0.4735  0.5135 -0.5714
14459TIP3   OH264867   1.634   3.622   4.558 -0.0654  0.0665  0.0279
14459TIP3    H164868   1.566   3.662   4.504  0.7585  0.5872 -0.6375
14459TIP3    H264869   1.585   3.567   4.620 -1.0192 -0.6489 -1.3134
14460TIP3   OH264870   2.315   4.982   5.371  0.2597  0.4376 -0.0558
14460TIP3    H164871   2.362   5.010   5.450  1.1578 -0.4140 -0.2624
14460TIP3    H264872   2.223   4.990   5.394  0.4687  2.7259  0.1761
14461TIP3   OH264873   4.882   2.897  15.250  0.1241  0.0707 -0.4348
14461TIP3    H164874   4.974   2.920  15.237 -0.0378  0.8735 -0.2247
14461TIP3    H264875   4.860   2.933  15.336 -0.4285  0.0131 -0.5480
14462TIP3   OH264876   2.836   4.114   5.258 -0.3619  0.5101 -0.8385
14462TIP3    H164877   2.825   4.210   5.259 -2.0444  0.3528  0.3266
14462TIP3    H264878   2.929   4.101   5.243 -0.0646  2.3450 -0.8584
14463TIP3   OH264879   0.287   4.312  13.555 -0.6031 -0.4396  0.3295
14463TIP3    H164880   0.199   4.290  13.527 -0.7420 -0.9339  1.1096
14463TIP3    H264881   0.301   4.402  13.524 -0.8829 -0.8079 -0.9286
14464TIP3   OH264882   3.099   4.056  11.624 -0.2073 -0.3570 -0.3418
14464TIP3    H164883   3.070   4.116  11.555 -1.6272 -0.6055  0.0041
14464TIP3    H264884   3.144   4.113  11.687  0.0163  0.0578 -0.8617
14465TIP3   OH264885   2.924   3.347   3.166 -0.4341 -0.3660 -0.0945
14465TIP3    H164886   2.947   3.260   3.198 -2.2541 -0.0458  2.4838
14465TIP3    H264887   2.929   3.403   3.244  0.3418  1.7877 -1.6041
14466TIP3   OH264888   1.518   4.879  14.422  0.5170 -0.1335  0.4827
14466TIP3    H164889   1.510   4.963  14.377 -1.9988 -1.1951 -1.3009
14466TIP3    H264890   1.462   4.819  14.372  1.7031 -2.7362  2.0516
14467TIP3   OH264891   0.284   3.567  16.230 -0.2198  0.1260  0.7548
14467TIP3    H164892   0.335   3.512  16.290  1.2228  1.1340  0.5089
14467TIP3    H264893   0.312   3.656  16.250 -2.1168  0.7602  0.7801
14468TIP3   OH264894   6.047   2.832   2.078 -0.1038  0.1806 -0.2894
14468TIP3    H164895   6.068   2.887   2.153  1.2766  0.0646 -0.5547
14468TIP3    H264896   6.046   2.743   2.114 -4.5061  0.3752  0.6130
14469TIP3   OH264897   2.504   3.381   3.577 -0.2938 -0.4026  0.1358
14469TIP3    H164898   2.454   3.301   3.559  1.0798 -1.4572  0.8658
14469TIP3    H264899   2.553   3.397   3.496 -1.5698  0.5222 -0.5090
14470TIP3   OH264900   1.891   1.759   1.625  0.3509  0.1645 -0.3362
14470TIP3    H164901   1.912   1.696   1.695 -0.4372 -1.2411 -1.3016
14470TIP3    H264902   1.815   1.720   1.582 -0.1280  1.7907 -1.0119
14471TIP3   OH264903   4.409   2.590  15.882  0.4296 -0.1546  0.0494
14471TIP3    H164904   4.357   2.521  15.924  0.9029 -0.4268  0.1933
14471TIP3    H264905   4.497   2.552  15.873  0.6537  0.3706 -0.0196
14472TIP3   OH264906   6.254   0.591  12.147 -0.8302 -0.4880  0.3178
14472TIP3    H164907   6.284   0.681  12.160 -1.4314 -0.3302  0.6620
14472TIP3    H264908   6.334   0.539  12.146 -0.3440  0.2181 -1.4151
14473TIP3   OH264909   0.594   2.495   3.312 -0.1136 -0.1176  0.0661
14473TIP3    H164910   0.667   2.521   3.367 -0.5873  0.0345  0.6353
14473TIP3    H264911   0.516   2.522   3.361 -0.5815 -1.2016 -0.0498
14474TIP3   OH264912   3.227   1.131  12.636 -1.0169 -0.8124 -0.8062
14474TIP3    H164913   3.271   1.087  12.563 -0.1199 -0.3039 -0.5822
14474TIP3    H264914   3.280   1.110  12.712  0.2396  1.6902 -0.8813
14475TIP3   OH264915   6.439   0.881   3.449 -0.6527  0.0282 -0.3898
14475TIP3    H164916   6.374   0.951   3.463  0.4765  0.8677  0.9161
14475TIP3    H264917   6.510   0.924   3.402 -0.2762 -0.4477 -0.2581
14476TIP3   OH264918   6.800   4.495   2.174  0.0278  0.1765 -0.3358
14476TIP3    H164919   6.834   4.570   2.125  0.4244 -0.7296 -1.4778
14476TIP3    H264920   6.712   4.482   2.138  0.9949 -1.6521 -2.2227
14477TIP3   OH264921   4.741   5.088   4.123 -0.1109  0.0042 -0.1698
14477TIP3    H164922   4.656   5.073   4.081  0.4688 -1.2007 -0.9489
14477TIP3    H264923   4.724   5.072   4.216 -0.9298  0.6658 -0.1868
14478TIP3   OH264924   4.076   3.618  13.764  0.4680  0.1050 -0.1306
14478TIP3    H164925   4.131   3.643  13.690 -1.0472 -0.0233 -1.3619
14478TIP3    H264926   3.989   3.654  13.742 -1.1752 -3.6734 -0.6791
14479TIP3   OH264927   3.709   2.776  16.430 -0.4553 -0.1818 -0.1854
14479TIP3    H164928   3.618   2.784  16.461 -0.4366  0.6095 -0.3183
14479TIP3    H264929   3.739   2.693  16.467 -0.5473  0.5461  1.6317
14480TIP3   OH264930   4.688   4.890  16.064  0.1991  0.4487 -0.2503
14480TIP3    H164931   4.683   4.930  15.977 -0.3502 -0.2106 -0.5336
14480TIP3    H264932   4.726   4.804  16.049  2.3730  1.2221  0.4953
14481TIP3   OH264933   6.490   3.864  15.775  0.3185  0.2606 -0.3619
14481TIP3    H164934   6.566   3.868  15.834  0.5032 -2.4736 -0.2927
14481TIP3    H264935   6.419   3.831  15.830  0.3135 -1.6447 -1.4304
14482TIP3   OH264936   0.704   4.449   2.425 -0.2473 -0.0843 -0.3343
14482TIP3    H164937   0.764   4.506   2.472 -0.4453 -0.4717  0.3931
14482TIP3    H264938   0.748   4.432   2.341  1.1379 -1.1696  0.5793
14483TIP3   OH264939   3.451   3.371   1.061  0.4776  0.3054  0.3573
14483TIP3    H164940   3.481   3.447   1.010  0.4632 -0.5284 -0.9618
14483TIP3    H264941   3.456   3.298   0.999  2.8078 -1.2784  2.2340
14484TIP3   OH264942   5.056   0.761  11.661  0.3858 -0.3183  0.0846
14484TIP3    H164943   5.019   0.677  11.691  0.1251 -0.5875 -0.9336
14484TIP3    H264944   4.997   0.789  11.592  2.1992 -0.8929 -1.7930
14485TIP3   OH264945   1.521   3.906  11.734 -0.1100 -0.2871  0.4388
14485TIP3    H164946   1.429   3.882  11.745 -0.6358  0.6562 -1.5348
14485TIP3    H264947   1.519   3.997  11.704  1.6204  0.6749  2.8659
14486TIP3   OH264948   3.246   0.357   3.690 -0.0206 -0.6646  0.9186
14486TIP3    H164949   3.166   0.408   3.701  0.3792  0.4147 -0.7819
14486TIP3    H264950   3.217   0.272   3.658 -0.5336 -0.3973  0.6654
14487TIP3   OH264951   4.125   1.030  15.848  0.3797  0.0060  0.4548
14487TIP3    H164952   4.197   0.968  15.852  0.6835  0.4106  1.9205
14487TIP3    H264953   4.110   1.055  15.939 -0.8122  0.8462  0.0518
14488TIP3   OH264954   1.423   1.936  15.309 -0.2023 -0.6042  0.1472
14488TIP3    H164955   1.512   1.945  15.275  0.3455  0.1554  1.6550
14488TIP3    H264956   1.382   2.021  15.292 -0.1913 -0.4971  0.6414
14489TIP3   OH264957   2.532   3.055   6.521  0.1075 -0.1637 -0.0395
14489TIP3    H164958   2.604   3.002   6.554 -1.1610 -2.0842 -0.1753
14489TIP3    H264959   2.506   3.012   6.439 -2.6308 -0.9818  1.1260
14490TIP3   OH264960   5.902   5.166  11.374  0.4978  0.1552 -0.2179
14490TIP3    H164961   5.982   5.135  11.332  0.1313  1.1640 -1.7310
14490TIP3    H264962   5.895   5.258  11.348 -1.0675  0.1292  0.0098
14491TIP3   OH264963   3.243   4.459  16.378 -0.7874  0.2890  0.4285
14491TIP3    H164964   3.189   4.515  16.321  1.1971  1.2006 -0.6608
14491TIP3    H264965   3.224   4.490  16.467 -1.6052  0.9845  0.0294
14492TIP3   OH264966   4.360   0.392   0.097 -0.0851 -0.6858 -0.2211
14492TIP3    H164967   4.319   0.478   0.102 -1.7306 -1.5010  1.0123
14492TIP3    H264968   4.423   0.391   0.169 -1.0246 -0.9887  0.6008
14493TIP3   OH264969   3.798   0.844  12.143  0.6107  0.9153  0.3709
14493TIP3    H164970   3.737   0.898  12.092 -0.9610 -0.1950  0.9904
14493TIP3    H264971   3.760   0.756  12.139  1.6710  0.3784  1.5922
14494TIP3   OH264972   3.253   4.308   0.574 -0.8958 -0.4971 -0.2352
14494TIP3    H164973   3.315   4.263   0.631  0.3872 -0.1964 -1.3400
14494TIP3    H264974   3.217   4.239   0.518 -1.0154 -0.5561 -0.0876
14495TIP3   OH264975   2.588   5.451   6.099  0.1640  0.6109  0.2958
14495TIP3    H164976   2.676   5.414   6.106  1.0197  2.7486  1.6139
14495TIP3    H264977   2.543   5.418   6.177 -0.4176 -0.8344 -0.5949
14496TIP3   OH264978   5.400   3.001   6.355  0.0437  0.3902 -0.3213
14496TIP3    H164979   5.435   3.036   6.273  0.0347 -0.8062 -0.8513
14496TIP3    H264980   5.364   2.915   6.331  2.4385 -1.2115  1.3840
14497TIP3   OH264981   6.779   5.169   1.173 -0.4762 -0.2803  0.3016
14497TIP3    H164982   6.821   5.171   1.087 -0.2890 -0.0128  0.3965
14497TIP3    H264983   6.817   5.092   1.216  0.2221  0.1703  0.5276
14498TIP3   OH264984   5.661   5.739  13.492  0.9988  0.3522 -0.2701
14498TIP3    H164985   5.643   5.771  13.580  0.1291  0.3697 -0.4487
14498TIP3    H264986   5.639   5.812  13.434 -1.4051 -0.6287 -0.7065
14499TIP3   OH264987   6.424   4.848  12.973  0.1176  0.1486  0.1335
14499TIP3    H164988   6.447   4.774  13.030  1.5457  1.8021  1.8134
14499TIP3    H264989   6.484   4.841  12.899  0.8153  0.0987  0.6984
14500TIP3   OH264990   4.100   6.496   3.380  0.7323  0.2671 -0.2722
14500TIP3    H164991   4.051   6.572   3.349  1.6721  0.6118 -0.9256
14500TIP3    H264992   4.090   6.498   3.475 -0.0254  0.6689 -0.3534
14501TIP3   OH264993   3.078   1.121   1.067 -0.4000  0.3078  0.0153
14501TIP3    H164994   3.049   1.211   1.077  0.2143  0.5707 -0.5240
14501TIP3    H264995   3.168   1.120   1.099 -0.8465 -0.4353  1.3740
14502TIP3   OH264996   4.305   1.824  13.636 -0.1840  0.5424  0.1572
14502TIP3    H164997   4.227   1.877  13.621 -1.4671 -0.7875  1.6857
14502TIP3    H264998   4.365   1.882  13.683 -1.8402  0.5352  2.4594
14503TIP3   OH264999   5.665   2.062   4.145 -0.0451 -0.2320 -0.0226
14503TIP3    H165000   5.575   2.033   4.161 -0.2695  0.8782  0.7931
14503TIP3    H265001   5.712   2.038   4.224 -0.0791  0.9704  0.3785
14504TIP3   OH265002   3.638   2.555  16.818 -0.4137 -0.2830 -0.5354
14504TIP3    H165003   3.550   2.563  16.780 -0.4338  1.1170 -0.2469
14504TIP3    H265004   3.632   2.601  16.902  0.8036  0.5865 -0.8917
14505TIP3   OH265005   6.627   0.122  11.412  0.1356  0.3564  0.1700
14505TIP3    H165006   6.593   0.049  11.464  1.2886  0.0424  0.5066
14505TIP3    H265007   6.574   0.122  11.332 -1.6884  0.8611  1.3217
14506TIP3   OH265008   3.150   0.878  16.538  0.3088  0.5922  0.3532
14506TIP3    H165009   3.196   0.794  16.534  0.7605  0.8545  0.0534
14506TIP3    H265010   3.217   0.941  16.564 -0.3550  0.6202  2.1699
14507TIP3   OH265011   6.028   4.863  11.612  0.0588  0.1763 -0.0303
14507TIP3    H165012   5.942   4.837  11.643  0.4815 -0.6013  0.5372
14507TIP3    H265013   6.083   4.786  11.626  0.9232  0.7679 -0.0784
14508TIP3   OH265014   6.189   5.763   2.350  0.0049  0.4540  0.7640
14508TIP3    H165015   6.097   5.783   2.333 -0.2787  0.1110  1.7947
14508TIP3    H265016   6.192   5.739   2.442  0.9549 -0.5569  0.5007
14509TIP3   OH265017   6.197   5.805  10.463  0.2618  0.1547  0.2794
14509TIP3    H165018   6.162   5.768  10.382 -1.1725 -0.1927  1.0314
14509TIP3    H265019   6.265   5.743  10.490  1.2589  0.6401 -1.0026
14510TIP3   OH265020   0.011   6.475  13.326 -0.1574 -0.0524 -0.5101
14510TIP3    H165021   0.097   6.450  13.291  1.0502  1.5204  1.0896
14510TIP3    H265022  -0.011   6.405  13.387 -0.3173 -0.7638 -1.3709
14511TIP3   OH265023   0.723   0.497   4.167 -0.4704 -0.1655 -0.2803
14511TIP3    H165024   0.672   0.427   4.206  0.2255 -0.0814  0.8018
14511TIP3    H265025   0.813   0.464   4.165 -0.2368  0.4588 -0.3202
14512TIP3   OH265026   0.579   1.667  15.179 -0.4495  0.0842  0.1179
14512TIP3    H165027   0.520   1.594  15.160 -1.1214  0.9060 -0.9883
14512TIP3    H265028   0.624   1.684  15.096  1.7741 -0.8576  1.0343
14513TIP3   OH265029   2.802   0.380   4.906 -0.7029  0.5805  0.1983
14513TIP3    H165030   2.812   0.358   4.814  0.2976  0.1771  0.3900
14513TIP3    H265031   2.759   0.465   4.906 -0.1182  0.8925 -0.6607
14514TIP3   OH265032   4.578   5.253  14.976  0.0659  0.2577  0.2086
14514TIP3    H165033   4.596   5.166  14.940 -1.2893 -0.1382  0.4505
14514TIP3    H265034   4.486   5.270  14.955  0.2862  1.6243  0.2141
14515TIP3   OH265035   4.742   2.985   0.416 -0.2363 -0.5062  0.2676
14515TIP3    H165036   4.759   2.942   0.332  2.7336 -3.6358  2.1643
14515TIP3    H265037   4.673   2.932   0.456  1.0066 -1.4913  1.2127
14516TIP3   OH265038   4.890   2.139   6.106 -0.5492  0.2701 -0.1672
14516TIP3    H165039   4.905   2.046   6.090 -1.1219  0.2804 -0.8041
14516TIP3    H265040   4.967   2.167   6.155 -0.6547 -0.6738  0.5863
14517TIP3   OH265041   2.031   0.766   1.023 -0.1564 -0.1292  0.2453
14517TIP3    H165042   2.063   0.823   1.092  0.9181 -1.0673  0.5423
14517TIP3    H265043   1.936   0.780   1.023  0.0938  1.7405  0.2066
14518TIP3   OH265044   1.704   6.024  12.756 -0.4458 -0.4681 -0.6012
14518TIP3    H165045   1.672   6.109  12.724 -1.0246 -0.6642 -0.5656
14518TIP3    H265046   1.736   5.979  12.678 -1.4146 -0.7559 -0.8591
14519TIP3   OH265047   1.241   4.237  15.587 -0.5044  0.0367 -0.2231
14519TIP3    H165048   1.249   4.206  15.497  0.3732 -0.8391  0.1366
14519TIP3    H265049   1.296   4.177  15.638  3.0444  3.2949  0.2677
14520TIP3   OH265050   4.711   2.137   1.397 -0.1120  0.1566 -0.1079
14520TIP3    H165051   4.758   2.219   1.405  0.3205 -0.1475  0.5651
14520TIP3    H265052   4.622   2.157   1.426  0.2210  0.1831  0.9119
14521TIP3   OH265053   6.719   5.689  16.964  0.4328  0.2581  0.4070
14521TIP3    H165054   6.815   5.691  16.960  0.4534 -0.7089 -0.0902
14521TIP3    H265055   6.697   5.727  17.049  1.4143 -2.0337  1.7729
14522TIP3   OH265056   6.196   1.051   6.421  0.0278  0.0116  0.4166
14522TIP3    H165057   6.194   1.000   6.340  1.1740  0.8154 -0.1507
14522TIP3    H265058   6.112   1.033   6.463  0.0908 -1.7490 -0.1091
14523TIP3   OH265059   4.207   4.754  15.244  0.0018 -0.2508  0.2948
14523TIP3    H165060   4.169   4.739  15.158  1.4062 -1.5488 -0.1492
14523TIP3    H265061   4.285   4.808  15.227 -0.2792  0.3520  0.8815
14524TIP3   OH265062   2.040   6.133  16.426  0.6481 -0.1551 -0.3820
14524TIP3    H165063   2.050   6.170  16.514  0.7492 -0.5361 -0.2294
14524TIP3    H265064   2.064   6.205  16.367 -3.3119  1.4908 -0.2757
14525TIP3   OH265065   4.195   5.884  13.871 -0.1526  0.1656 -0.7304
14525TIP3    H165066   4.215   5.872  13.779 -1.3973  0.8245 -1.1142
14525TIP3    H265067   4.099   5.893  13.874 -0.0468  1.2734  0.4700
14526TIP3   OH265068   0.121   2.071  13.889  0.3099  0.6290  0.0395
14526TIP3    H165069   0.101   2.147  13.834 -0.7980 -0.8650 -1.7423
14526TIP3    H265070   0.208   2.042  13.861  0.4088  0.7845  0.1837
14527TIP3   OH265071   0.148   5.348  12.053  0.1391  0.2799  0.4540
14527TIP3    H165072   0.114   5.397  11.978 -0.6843 -0.3979  0.3718
14527TIP3    H265073   0.075   5.293  12.081  0.6801 -0.0328  1.2844
14528TIP3   OH265074   2.479   2.649   4.646 -0.0990  0.3961  0.0216
14528TIP3    H165075   2.390   2.619   4.666  0.5783 -0.3926  2.1933
14528TIP3    H265076   2.472   2.690   4.560 -2.2323 -1.0042 -0.5490
14529TIP3   OH265077   3.900   6.707  13.998  0.2224  0.1332  0.1286
14529TIP3    H165078   3.978   6.682  13.949  0.2169 -0.8978  0.6001
14529TIP3    H265079   3.868   6.624  14.035 -0.8195  0.6080  0.3328
14530TIP3   OH265080   2.171   4.540   4.393  0.0662 -0.6147 -0.0128
14530TIP3    H165081   2.233   4.514   4.462  1.6829  2.1027 -0.2899
14530TIP3    H265082   2.159   4.461   4.341  1.1128 -1.9713  1.6800
14531TIP3   OH265083   6.123   5.854  11.308  0.1912  0.2954  0.0050
14531TIP3    H165084   6.052   5.898  11.355 -1.0077 -0.0162 -1.4364
14531TIP3    H265085   6.132   5.903  11.226  0.2686 -0.8553 -0.6994
14532TIP3   OH265086   1.015   4.550   4.140  0.0001 -0.2023  0.1883
14532TIP3    H165087   1.106   4.562   4.168  0.2705 -0.7156 -0.4351
14532TIP3    H265088   1.006   4.455   4.130 -0.5566 -0.1404  0.0963
14533TIP3   OH265089   6.459   4.676   5.223  0.3671 -0.4363 -0.5246
14533TIP3    H165090   6.389   4.683   5.158  0.4571  0.5656 -0.5224
14533TIP3    H265091   6.537   4.709   5.179  0.5400 -0.2429 -0.0778
14534TIP3   OH265092   6.110   0.735  13.323  0.7902 -0.5818  0.3923
14534TIP3    H165093   6.068   0.653  13.297 -2.7094  0.7657  1.2214
14534TIP3    H265094   6.076   0.800  13.263  0.7398  0.8392  1.8882
14535TIP3   OH265095   3.479   4.511   1.329  0.4608 -0.0319 -0.3983
14535TIP3    H165096   3.406   4.513   1.391  0.3216  2.5676 -0.5266
14535TIP3    H265097   3.557   4.504   1.385  0.2593  0.7942  0.0077
14536TIP3   OH265098   2.333   0.693  17.051 -0.1250  0.3535  0.2323
14536TIP3    H165099   2.287   0.670  16.970  1.3279  1.6143 -1.0216
14536TIP3    H265100   2.268   0.740  17.104 -0.7941  0.4785 -0.6864
14537TIP3   OH265101   2.541   3.858  14.608 -0.2525  0.4614 -0.4624
14537TIP3    H165102   2.460   3.832  14.562 -1.3825  0.0684  1.6384
14537TIP3    H265103   2.559   3.946  14.576 -2.0807  0.9497 -0.2838
14538TIP3   OH265104   6.007   0.186  13.997 -0.3795  0.5010  0.0987
14538TIP3    H165105   5.929   0.235  13.975 -0.4488 -0.2229 -1.3933
14538TIP3    H265106   6.078   0.250  13.995 -0.5283  0.6565 -1.4274
14539TIP3   OH265107   4.331   4.501   2.448  0.1970  0.4936  0.0419
14539TIP3    H165108   4.418   4.493   2.487  1.0015 -0.0087 -1.7530
14539TIP3    H265109   4.342   4.470   2.358 -1.9199  0.1086 -0.1387
14540TIP3   OH265110   0.665   6.730  11.045 -0.1216  0.0456 -0.6626
14540TIP3    H165111   0.687   6.729  10.952 -0.8890 -0.6618 -0.8482
14540TIP3    H265112   0.576   6.695  11.050 -0.6958  1.5215  0.1943
14541TIP3   OH265113   2.113   2.062  11.331  0.0991  0.4119  0.0028
14541TIP3    H165114   2.165   1.986  11.358  0.0628  0.7486  1.0785
14541TIP3    H265115   2.088   2.105  11.414 -0.6728  1.0663 -0.5478
14542TIP3   OH265116   2.684   5.982   0.003 -0.5210  0.5057  0.1773
14542TIP3    H165117   2.631   5.910   0.037 -0.2417 -0.3442 -1.0864
14542TIP3    H265118   2.755   5.991   0.067 -0.2797 -0.7019  0.1111
14543TIP3   OH265119   2.502   6.494  15.141  0.0759  0.0421  0.0771
14543TIP3    H165120   2.554   6.525  15.215  0.6469 -3.0581  1.1510
14543TIP3    H265121   2.555   6.425  15.101 -0.8474  0.6530 -2.3760
14544TIP3   OH265122   6.077   2.381   3.061  0.1096  0.1353 -0.0514
14544TIP3    H165123   6.044   2.470   3.072  0.2987  0.2400 -0.2919
14544TIP3    H265124   6.070   2.341   3.147 -2.2895 -0.4370 -0.4398
14545TIP3   OH265125   1.367   0.285   5.741 -0.5529 -0.2366  0.0344
14545TIP3    H165126   1.461   0.275   5.754 -0.3545 -1.3335 -1.9001
14545TIP3    H265127   1.330   0.201   5.769 -0.8110 -0.2570 -0.3649
14546TIP3   OH265128   4.983   3.869  12.649  0.0578 -0.3882 -0.7256
14546TIP3    H165129   5.053   3.934  12.660  0.3841 -0.2389 -3.0920
14546TIP3    H265130   4.903   3.920  12.650  0.1389 -0.2676 -0.1894
14547TIP3   OH265131   5.205   0.986   4.696 -0.1391 -0.0410 -0.5453
14547TIP3    H165132   5.189   1.041   4.619  1.5897 -0.6230 -1.3707
14547TIP3    H265133   5.256   1.042   4.755  0.2311 -0.2258 -0.6874
14548TIP3   OH265134   6.822   2.005  16.383  0.4017  0.4626 -0.3600
14548TIP3    H165135   6.732   1.972  16.383  0.7123 -0.3932 -0.1245
14548TIP3    H265136   6.876   1.930  16.406  1.2284  0.8679 -0.9210
14549TIP3   OH265137   1.046   3.160  16.160 -0.0669 -0.3096  0.3825
14549TIP3    H165138   1.019   3.083  16.111  2.2504 -0.8697 -0.1395
14549TIP3    H265139   1.077   3.222  16.094 -0.3532  0.4019  0.8982
14550TIP3   OH265140   5.349   0.530  16.427 -0.2391 -0.0965 -0.1732
14550TIP3    H165141   5.351   0.448  16.376 -1.4577 -0.7911  0.8317
14550TIP3    H265142   5.372   0.503  16.516  0.7661  0.9106 -0.1167
14551TIP3   OH265143   2.982   0.598  12.687  0.1247 -0.0102 -0.2279
14551TIP3    H165144   3.000   0.663  12.754  1.5568 -0.9561  0.3516
14551TIP3    H265145   2.933   0.645  12.620  0.6914  1.5366  0.4078
14552TIP3   OH265146   2.307   2.643  13.095  0.3466  0.0491  0.1838
14552TIP3    H165147   2.255   2.722  13.082  1.1376  0.7157  0.9278
14552TIP3    H265148   2.243   2.572  13.089 -0.7299  0.8555  1.4134
14553TIP3   OH265149   5.773   1.631   3.424  0.8336  0.4276 -0.2739
14553TIP3    H165150   5.854   1.673   3.396  1.6364 -0.3461  0.7946
14553TIP3    H265151   5.774   1.639   3.519 -0.3802  0.4516 -0.2528
14554TIP3   OH265152   5.988   3.182   1.695  0.0101 -0.1757 -0.9865
14554TIP3    H165153   6.029   3.119   1.755 -0.1253  0.8890  0.2866
14554TIP3    H265154   6.062   3.231   1.658  0.0344  0.2643 -0.3878
14555TIP3   OH265155   1.409   4.134  12.966 -0.5316 -0.8002 -0.8352
14555TIP3    H165156   1.468   4.064  12.994  0.2483  0.6454  1.4677
14555TIP3    H265157   1.466   4.195  12.918 -0.5285 -0.3094 -0.2241
14556TIP3   OH265158   5.335   0.095  12.769  0.7035  0.5197  0.3194
14556TIP3    H165159   5.337   0.187  12.743 -3.3568  0.8821  0.5130
14556TIP3    H265160   5.361   0.095  12.861  2.9699  1.0692 -0.2780
14557TIP3   OH265161   4.032   4.070  15.856  0.0850 -0.3949  0.1797
14557TIP3    H165162   3.963   4.116  15.809  0.1313 -1.8099 -1.3919
14557TIP3    H265163   4.010   4.080  15.948  0.1182  2.7265 -0.0424
14558TIP3   OH265164   1.441   3.940   3.333  0.0530 -0.8150 -0.0318
14558TIP3    H165165   1.376   4.003   3.302 -0.7146 -0.4462  2.1764
14558TIP3    H265166   1.443   3.872   3.265 -0.0770  0.8940 -1.8097
14559TIP3   OH265167   0.647   1.061  11.297 -0.4579  0.0852  0.0497
14559TIP3    H165168   0.741   1.055  11.277 -0.4679  1.3131 -0.4442
14559TIP3    H265169   0.643   1.057  11.392  0.1467  0.4277  0.0995
14560TIP3   OH265170   5.048   1.389  15.866 -0.3230 -0.3400  0.0043
14560TIP3    H165171   5.139   1.383  15.895  0.0206 -1.8425 -1.2882
14560TIP3    H265172   5.035   1.314  15.809 -2.5321 -0.4176  0.5093
14561TIP3   OH265173   2.147   3.293   2.413 -0.4184  0.2389 -0.1245
14561TIP3    H165174   2.087   3.243   2.358 -0.1423 -0.0253 -0.1851
14561TIP3    H265175   2.158   3.241   2.492 -1.1883  0.8438  0.3964
14562TIP3   OH265176   1.179   2.962   3.925 -0.8798  0.3423 -0.2263
14562TIP3    H165177   1.154   3.049   3.954  2.8688  2.0421 -1.4432
14562TIP3    H265178   1.169   2.964   3.830  1.1794  0.2885 -0.5004
14563TIP3   OH265179   4.905   3.343  16.790 -0.6800  0.1842  0.4646
14563TIP3    H165180   4.820   3.387  16.796 -0.1021  1.5054 -0.5877
14563TIP3    H265181   4.964   3.410  16.757  0.5173 -1.0654 -0.0024
14564TIP3   OH265182   0.295   1.141  14.768 -0.3965 -0.4801 -0.5183
14564TIP3    H165183   0.309   1.235  14.783 -2.4204 -0.1451 -0.4158
14564TIP3    H265184   0.288   1.133  14.672  2.3024 -0.9916 -0.7548
14565TIP3   OH265185   4.374   3.431  15.392 -0.6847 -0.3513 -0.0143
14565TIP3    H165186   4.347   3.340  15.397  1.7905 -1.1954 -0.4035
14565TIP3    H265187   4.448   3.438  15.453 -0.3869  1.1995 -0.4960
14566TIP3   OH265188   1.609   1.290  15.253  0.1765 -0.2709 -0.1328
14566TIP3    H165189   1.591   1.380  15.225  0.6582 -0.0840  0.1360
14566TIP3    H265190   1.540   1.270  15.317  0.7188  0.3184  0.6551
14567TIP3   OH265191   3.168   0.142  13.108  0.3332  0.1426  0.0624
14567TIP3    H165192   3.091   0.118  13.159  0.4323  1.1704  0.7293
14567TIP3    H265193   3.141   0.130  13.017 -0.8936  1.2247  0.2513
14568TIP3   OH265194   5.264   3.026   2.492 -0.3302 -0.6208 -0.3013
14568TIP3    H165195   5.297   2.963   2.428 -1.9135 -0.9820 -0.7922
14568TIP3    H265196   5.312   3.005   2.573  0.1042 -1.5893 -0.7939
14569TIP3   OH265197   5.082   3.047  12.410 -0.2467  0.4005  0.2159
14569TIP3    H165198   5.169   3.082  12.427  0.1387  0.4556 -1.6063
14569TIP3    H265199   5.043   3.035  12.496  0.9092  2.0211  1.0100
14570TIP3   OH265200   4.509   2.570   6.610  0.1084  0.1975  0.5688
14570TIP3    H165201   4.509   2.476   6.629  2.0188  0.1537  0.5879
14570TIP3    H265202   4.592   2.585   6.564 -1.0971  1.5414 -1.3001
14571TIP3   OH265203   5.525   4.214   5.869  0.2478 -0.1350 -0.2407
14571TIP3    H165204   5.489   4.216   5.780 -2.1753  1.5130  0.6728
14571TIP3    H265205   5.450   4.195   5.925  1.7071 -1.0299  1.5034
14572TIP3   OH265206   3.032   4.921   3.985 -0.0186  0.2050  0.0176
14572TIP3    H165207   2.958   4.882   3.939  0.4424 -1.2655  0.4951
14572TIP3    H265208   3.075   4.976   3.919 -0.0624 -0.9244 -0.9737
14573TIP3   OH265209   1.824   0.286   2.849  0.3222 -0.0610 -0.0815
14573TIP3    H165210   1.901   0.235   2.824  1.6682  2.3130 -1.0649
14573TIP3    H265211   1.858   0.374   2.865 -2.0656  0.8411  0.3630
14574TIP3   OH265212   5.841   1.723  10.886 -0.2892 -0.1869  0.7264
14574TIP3    H165213   5.935   1.713  10.899  0.0692  0.3647 -1.1246
14574TIP3    H265214   5.826   1.692  10.797 -1.9014 -0.4610  1.0669
14575TIP3   OH265215   5.089   5.840   4.041  0.4673  0.1034  0.5531
14575TIP3    H165216   5.169   5.850   3.989  0.0369  0.7677  0.0038
14575TIP3    H265217   5.037   5.917   4.019 -0.3895 -0.4000  0.8049
14576TIP3   OH265218   5.718   0.000  16.541  0.1084  0.1988 -0.0221
14576TIP3    H165219   5.653   0.070  16.551 -0.4754 -0.2086 -0.9265
14576TIP3    H265220   5.686  -0.054  16.469 -0.3270 -1.9958  1.7128
14577TIP3   OH265221   6.755   4.128  11.724  0.2293  0.5479  0.0266
14577TIP3    H165222   6.676   4.182  11.711  0.0839  0.2393 -0.3910
14577TIP3    H265223   6.740   4.051  11.669  1.1745  0.8451 -0.6702
14578TIP3   OH265224   2.726   5.571  16.185  0.5642 -0.2419  0.2927
14578TIP3    H165225   2.752   5.621  16.262 -1.0099  0.3234  0.4943
14578TIP3    H265226   2.681   5.495  16.220  0.1976 -0.1882 -0.0503
14579TIP3   OH265227   2.970   6.046  15.706  0.0750  0.0151 -0.2486
14579TIP3    H165228   2.975   6.089  15.621 -1.3864  0.7358 -0.0007
14579TIP3    H265229   3.044   6.082  15.755  1.1579 -0.7021 -1.3121
14580TIP3   OH265230   2.800   0.664   3.672 -0.1503 -0.1951 -0.8383
14580TIP3    H165231   2.741   0.666   3.748  0.5903  3.3086 -0.1907
14580TIP3    H265232   2.754   0.714   3.605  1.1738  0.8605 -1.0037
14581TIP3   OH265233   4.942   1.194   0.816  0.0747  0.3560 -0.4724
14581TIP3    H165234   4.946   1.233   0.903 -1.1229 -0.7695  0.1207
14581TIP3    H265235   4.865   1.137   0.818  0.2830 -0.0530 -2.1210
14582TIP3   OH265236   1.704   3.163  16.237  0.0058 -0.3032  0.0904
14582TIP3    H165237   1.695   3.196  16.148  2.6626  1.1290  0.2238
14582TIP3    H265238   1.772   3.095  16.231  0.1186 -0.2878  0.9732
14583TIP3   OH265239   5.735   5.485   1.512 -0.3590 -0.7292  0.0134
14583TIP3    H165240   5.761   5.516   1.426 -1.4923  0.7952  0.1770
14583TIP3    H265241   5.764   5.394   1.515  0.7970 -0.4438 -1.4913
14584TIP3   OH265242   3.972   0.187   5.724  0.2774  0.7675  0.5371
14584TIP3    H165243   4.008   0.197   5.636  1.2604 -0.5659  0.7450
14584TIP3    H265244   3.919   0.107   5.720 -1.3439  1.7995  0.6700
14585TIP3   OH265245   3.705   2.964  12.929  0.4819  0.0548  0.2677
14585TIP3    H165246   3.745   3.049  12.915 -3.1154  1.9244  0.2479
14585TIP3    H265247   3.768   2.916  12.983  2.4938  2.7938  0.5445
14586TIP3   OH265248   1.108   3.387   3.079  0.8555  0.1283 -0.1002
14586TIP3    H165249   1.045   3.315   3.065  1.5693 -0.7573  1.1098
14586TIP3    H265250   1.187   3.358   3.034  0.7568  0.7496 -0.6888
14587TIP3   OH265251   6.462   5.064   4.657 -0.2419 -0.3557 -0.1238
14587TIP3    H165252   6.554   5.053   4.633  0.5184  2.2479  1.2029
14587TIP3    H265253   6.419   4.983   4.629  2.2556 -1.2338 -1.6381
14588TIP3   OH265254   6.784   2.004  15.375  0.4580  0.1246 -0.0504
14588TIP3    H165255   6.733   1.975  15.451  0.6633 -0.5687 -0.1718
14588TIP3    H265256   6.875   1.987  15.400  0.5516  0.2675 -0.2964
14589TIP3   OH265257   0.609   4.066   1.726 -0.5304  0.3564 -0.2752
14589TIP3    H165258   0.610   4.009   1.650  1.2141 -0.7401  0.5141
14589TIP3    H265259   0.517   4.068   1.754 -1.2851  1.1306 -2.6008
14590TIP3   OH265260   3.462   4.243  13.329  0.8867 -0.0581  0.2570
14590TIP3    H165261   3.551   4.250  13.364  1.2692 -0.1999 -0.6443
14590TIP3    H265262   3.461   4.158  13.285 -0.3700 -1.0441  2.0630
14591TIP3   OH265263   2.915   2.993  16.314  0.2292 -0.2251  0.0346
14591TIP3    H165264   2.855   2.980  16.387 -0.0561  0.1854 -0.1227
14591TIP3    H265265   2.936   3.087  16.316  0.7429 -0.3318 -0.0071
14592TIP3   OH265266   0.079   6.742  14.565 -0.0005 -0.3763  0.0135
14592TIP3    H165267   0.132   6.745  14.645  0.0629 -1.8532  0.0649
14592TIP3    H265268  -0.007   6.712  14.594  0.0752 -1.1046 -0.4806
14593TIP3   OH265269   0.429   5.952  12.600  0.1230  0.5585 -0.5221
14593TIP3    H165270   0.461   5.922  12.514 -0.6353  1.3429 -1.0916
14593TIP3    H265271   0.402   6.042  12.585  1.0425  1.0854  0.8345
14594TIP3   OH265272   4.988   6.634   0.788 -0.2221  0.2642 -0.0538
14594TIP3    H165273   4.996   6.726   0.813  1.8930  1.0105 -2.9501
14594TIP3    H265274   5.072   6.612   0.747  0.2881 -3.7374  2.5820
14595TIP3   OH265275   3.662   1.389   3.138  0.1899 -0.3215  0.3937
14595TIP3    H165276   3.673   1.483   3.156 -0.1008 -0.0575 -0.7741
14595TIP3    H265277   3.751   1.354   3.139  0.3549  0.0882  0.2052
14596TIP3   OH265278   5.004   6.217   5.209  0.0448 -0.1835  0.6111
14596TIP3    H165279   5.022   6.134   5.165  1.4657 -0.6200  1.9405
14596TIP3    H265280   5.000   6.281   5.138  0.2612 -1.1718 -0.3221
14597TIP3   OH265281   2.619   4.613   3.591  0.0736  0.3243  0.4194
14597TIP3    H165282   2.591   4.642   3.678  2.0467 -1.1690  1.6372
14597TIP3    H265283   2.714   4.599   3.600  0.1049 -1.2112 -1.5778
14598TIP3   OH265284   6.070   5.400  16.298  0.3765  0.4758  0.0358
14598TIP3    H165285   6.088   5.492  16.320  0.9079  0.0839  1.2853
14598TIP3    H265286   6.122   5.385  16.218 -0.3970  1.4877 -0.6802
14599TIP3   OH265287   2.943   2.069   4.702 -0.0314 -0.0303  0.3170
14599TIP3    H165288   2.995   2.096   4.778 -2.1006  1.4253  1.3365
14599TIP3    H265289   2.942   2.145   4.645  1.3922 -1.0739 -1.1668
14600TIP3   OH265290   5.813   2.427  12.205  0.2387  0.0024  0.4745
14600TIP3    H165291   5.810   2.348  12.150  0.4657  0.1462  0.2506
14600TIP3    H265292   5.768   2.494  12.153 -0.0151  0.0034  0.6935
14601TIP3   OH265293   2.433   3.999  12.738  0.2650 -0.2468  0.4592
14601TIP3    H165294   2.391   4.036  12.661 -0.3742 -1.9497 -0.0489
14601TIP3    H265295   2.512   3.957  12.705  1.3633  1.1956  1.1321
14602TIP3   OH265296   1.263   3.190  10.367 -0.7931  0.0254  0.0192
14602TIP3    H165297   1.265   3.097  10.388 -1.0010 -0.1773 -0.8405
14602TIP3    H265298   1.210   3.196  10.288  0.4038  0.7079 -0.7608
14603TIP3   OH265299   6.068   3.347  15.883  0.5410  0.4962 -0.1568
14603TIP3    H165300   6.055   3.319  15.974 -0.6682  0.3061 -0.3794
14603TIP3    H265301   6.127   3.422  15.890  1.3769 -0.2087  0.6850
14604TIP3   OH265302   6.824   6.564   0.148 -0.3922 -0.3579 -0.0474
14604TIP3    H165303   6.754   6.563   0.213 -0.0399 -2.1917  0.3570
14604TIP3    H265304   6.828   6.655   0.118 -1.7620  0.1393  1.1813
14605TIP3   OH265305   0.435   2.901   3.262  0.0842 -0.5219  0.3413
14605TIP3    H165306   0.485   2.819   3.266 -1.1849 -1.2703  2.0850
14605TIP3    H265307   0.344   2.874   3.270 -0.4936  0.9819 -0.6795
14606TIP3   OH265308   0.965   6.547  13.709 -0.4258  0.2764  0.3409
14606TIP3    H165309   0.929   6.478  13.654 -0.2620  1.2224 -1.0002
14606TIP3    H265310   0.948   6.628  13.660  0.1323  1.1031  1.4744
14607TIP3   OH265311   1.629   5.580   1.223 -0.3466 -1.0070  0.3259
14607TIP3    H165312   1.565   5.650   1.214  0.2453 -0.4933  0.0468
14607TIP3    H265313   1.598   5.528   1.297 -0.8947 -0.5674  0.4070
14608TIP3   OH265314   2.317   1.767  15.427 -0.0029 -0.2289  0.3312
14608TIP3    H165315   2.222   1.755  15.421  0.0351 -0.2590 -0.3040
14608TIP3    H265316   2.353   1.680  15.409  0.1804  0.1047 -1.0383
14609TIP3   OH265317   1.942   5.058   3.457  0.2651 -0.0343 -0.2243
14609TIP3    H165318   1.877   5.123   3.432 -0.6763 -1.0187 -0.3876
14609TIP3    H265319   1.927   4.984   3.398  2.0101 -0.0104 -0.7694
14610TIP3   OH265320   2.478   1.359   1.903  0.0377  0.4381 -0.6446
14610TIP3    H165321   2.432   1.326   1.980  0.3955 -0.4659 -0.7945
14610TIP3    H265322   2.461   1.453   1.902 -2.4827  0.0259 -1.1743
14611TIP3   OH265323   4.545   5.963   5.961 -0.3411 -0.5421 -0.2217
14611TIP3    H165324   4.547   5.870   5.984 -0.1211 -0.5482 -0.2558
14611TIP3    H265325   4.471   5.999   6.010  0.1331 -0.5468  0.5271
14612TIP3   OH265326   1.091   2.871  14.549  0.5666 -0.6677  0.0344
14612TIP3    H165327   1.042   2.944  14.589 -0.3602 -1.7035  0.8669
14612TIP3    H265328   1.024   2.805  14.530  0.9373 -0.2692 -3.3162
14613TIP3   OH265329   3.186   3.172  12.293  0.1101 -0.2766  0.4476
14613TIP3    H165330   3.205   3.217  12.375 -1.8221  0.4120  0.5850
14613TIP3    H265331   3.141   3.238  12.240 -0.2357 -1.2197 -0.4625
14614TIP3   OH265332   5.851   0.745  12.683  0.5022  0.7655  0.1767
14614TIP3    H165333   5.887   0.720  12.768 -0.7080  0.2279  0.5533
14614TIP3    H265334   5.757   0.755  12.699  0.2157  0.3793 -1.1535
14615TIP3   OH265335   0.399   6.324  12.327 -0.0554  0.2647 -0.6257
14615TIP3    H165336   0.408   6.253  12.263  4.4133  0.1446 -0.2127
14615TIP3    H265337   0.449   6.396  12.290  0.8625  0.9319  1.6845
14616TIP3   OH265338   0.409   1.131  16.574  0.4367 -0.5773  0.2670
14616TIP3    H165339   0.362   1.087  16.646 -0.3481 -0.8323 -0.3885
14616TIP3    H265340   0.495   1.152  16.612 -0.1830 -0.1223  1.4851
14617TIP3   OH265341   1.914   4.030   6.713  0.1108 -0.6921  0.5830
14617TIP3    H165342   2.009   4.027   6.725  0.2587  0.7192 -0.0225
14617TIP3    H265343   1.897   4.119   6.681 -1.3142 -1.2150 -0.1838
14618TIP3   OH265344   0.137   0.304  16.171 -0.1878  0.2128 -0.0914
14618TIP3    H165345   0.060   0.329  16.119 -0.1305  0.1543 -0.2041
14618TIP3    H265346   0.117   0.335  16.259 -0.1922  0.5024 -0.1929
14619TIP3   OH265347   0.013   4.170  14.419 -0.3032  0.2907  0.2126
14619TIP3    H165348  -0.038   4.090  14.403 -0.2185 -0.1155  1.8086
14619TIP3    H265349   0.073   4.175  14.345 -0.3253 -1.1190  0.0590
14620TIP3   OH265350   3.737   5.209   4.297 -0.5531 -0.3909  0.0886
14620TIP3    H165351   3.701   5.139   4.242 -2.4294 -0.0765  0.8274
14620TIP3    H265352   3.811   5.168   4.342  0.0324 -1.0963 -1.4744
14621TIP3   OH265353   0.978   4.474   1.729  0.3761  0.1919  0.6960
14621TIP3    H165354   0.896   4.504   1.767  0.6420 -0.0020  1.4268
14621TIP3    H265355   1.044   4.534   1.764  0.7147 -0.3900  1.0539
14622TIP3   OH265356   6.397   4.322   1.399  0.2154 -0.3397  0.1535
14622TIP3    H165357   6.389   4.375   1.478  0.7643 -0.4449  0.2876
14622TIP3    H265358   6.398   4.231   1.430  0.6305 -0.3758  0.0543
14623TIP3   OH265359   3.248   6.021   1.286 -0.4792  0.1095  0.0289
14623TIP3    H165360   3.328   6.074   1.293 -0.0822 -0.3613 -0.8282
14623TIP3    H265361   3.177   6.084   1.297  0.0018  0.6828 -0.0796
14624TIP3   OH265362   2.105   2.791   2.287 -0.1481  0.1423  0.1608
14624TIP3    H165363   2.068   2.817   2.371  0.0176  0.1937  0.2176
14624TIP3    H265364   2.200   2.797   2.299 -0.0928 -0.8818  0.3003
14625TIP3   OH265365   1.460   0.233   5.069 -0.0631 -0.2152 -0.4538
14625TIP3    H165366   1.390   0.188   5.022 -0.4329  1.7131 -1.8497
14625TIP3    H265367   1.534   0.173   5.065 -0.6334 -0.8673 -1.9126
14626TIP3   OH265368   0.408   6.647  13.943  0.3356  0.4179 -0.0097
14626TIP3    H165369   0.447   6.700  14.012 -0.7581  1.2586 -0.0120
14626TIP3    H265370   0.339   6.702  13.906  0.4351 -0.2858 -1.3048
14627TIP3   OH265371   3.742   3.585   2.309  0.1030 -0.1754  0.2570
14627TIP3    H165372   3.822   3.615   2.352  0.4255  0.0325 -0.4731
14627TIP3    H265373   3.689   3.664   2.300  0.2166 -0.1417 -0.1096
14628TIP3   OH265374   5.022   3.727   6.339  0.4253 -0.1934 -0.2472
14628TIP3    H165375   5.087   3.721   6.408  2.7638 -0.3794 -2.3319
14628TIP3    H265376   4.989   3.638   6.329 -1.8065  0.2277  2.1608
14629TIP3   OH265377   0.484   5.339   5.453 -0.0452  0.2683 -0.3732
14629TIP3    H165378   0.513   5.350   5.544  0.4395  0.4418 -0.5449
14629TIP3    H265379   0.427   5.262   5.455  1.2759 -0.7502 -0.2045
14630TIP3   OH265380   2.205   3.812   3.853  0.2741  0.5920  0.1134
14630TIP3    H165381   2.148   3.831   3.928 -0.0021  2.0023 -0.4219
14630TIP3    H265382   2.284   3.865   3.869  1.1115 -0.7137  0.4382
14631TIP3   OH265383   5.739   5.873  15.964 -0.1465 -0.4113 -0.3434
14631TIP3    H165384   5.683   5.897  16.038  0.1766 -0.5848 -0.0387
14631TIP3    H265385   5.828   5.894  15.994 -0.1995  2.1198 -1.6913
14632TIP3   OH265386   1.780   5.719  14.767 -0.7032  0.5327  0.9217
14632TIP3    H165387   1.722   5.648  14.793 -1.1437  0.7553  0.5804
14632TIP3    H265388   1.843   5.679  14.707 -0.7678  0.3695  0.9630
14633TIP3   OH265389   5.051   3.463  14.774 -0.2245  1.0984 -0.4328
14633TIP3    H165390   5.037   3.515  14.854 -0.8314  0.4206 -0.0863
14633TIP3    H265391   4.962   3.449  14.740  0.0229  1.2705 -1.1592
14634TIP3   OH265392   4.914   2.450  11.229  0.1757 -0.0287  0.0179
14634TIP3    H165393   4.913   2.396  11.308  1.9007 -0.3779 -0.1562
14634TIP3    H265394   5.005   2.446  11.199 -0.3278  0.5601 -1.6741
14635TIP3   OH265395   4.575   1.454  11.198  0.2650 -0.3083 -0.7189
14635TIP3    H165396   4.522   1.384  11.160  0.4877  0.0481 -1.6975
14635TIP3    H265397   4.526   1.482  11.276 -0.0739 -1.1978 -0.6044
14636TIP3   OH265398   3.286   3.737  16.205 -0.1793 -0.4196  0.1577
14636TIP3    H165399   3.201   3.726  16.164  0.3800 -1.3812 -0.7963
14636TIP3    H265400   3.337   3.788  16.142  0.2177 -0.6041  0.3198
14637TIP3   OH265401   1.457   2.406   2.302 -0.0354  0.3483  0.1500
14637TIP3    H165402   1.490   2.317   2.289  0.5401  0.2675  1.8944
14637TIP3    H265403   1.525   2.450   2.353 -1.2363  1.1420  1.1497
14638TIP3   OH265404   2.156   4.289  16.211 -0.4128  0.3090 -0.0200
14638TIP3    H165405   2.240   4.244  16.223  0.3584  1.7396  0.1093
14638TIP3    H265406   2.142   4.288  16.116 -0.2398  0.0855 -0.0452
14639TIP3   OH265407   6.821   6.107  16.500 -0.5132 -0.1887 -0.1872
14639TIP3    H165408   6.898   6.050  16.501 -0.7758 -0.5573 -0.7421
14639TIP3    H265409   6.812   6.136  16.591 -0.4506 -1.1275  0.1261
14640TIP3   OH265410   6.206   0.616   2.314  0.4490  0.6006 -0.1178
14640TIP3    H165411   6.193   0.687   2.252 -0.4595 -1.0351 -1.9076
14640TIP3    H265412   6.297   0.588   2.301  1.3455  2.3652  1.7333
14641TIP3   OH265413   5.342   5.708  11.781  0.1683  0.3057 -0.0272
14641TIP3    H165414   5.433   5.677  11.785 -0.0381 -0.2501  0.6480
14641TIP3    H265415   5.339   5.763  11.703  1.3110  1.0528  0.4135
14642TIP3   OH265416   5.744   3.286  13.726  0.4128 -0.4174 -0.4106
14642TIP3    H165417   5.800   3.221  13.683  0.3448  0.6759 -2.2484
14642TIP3    H265418   5.805   3.356  13.751  0.2533 -0.4556  0.0852
14643TIP3   OH265419   4.703   0.065   5.097 -0.5528 -0.2410 -0.0381
14643TIP3    H165420   4.674   0.123   5.026  2.4158 -0.4902 -1.6205
14643TIP3    H265421   4.789   0.099   5.121  1.5597 -4.0549 -1.3380
14644TIP3   OH265422   3.721   4.385  13.129 -0.6125 -0.3382 -0.8249
14644TIP3    H165423   3.680   4.465  13.162  1.3102  1.1835 -1.8780
14644TIP3    H265424   3.713   4.392  13.033 -1.1792 -1.8636 -0.9115
14645TIP3   OH265425   1.973   2.544   2.277  0.2400 -0.5129  0.3758
14645TIP3    H165426   2.018   2.625   2.251  1.0822 -1.1569 -0.2649
14645TIP3    H265427   2.007   2.524   2.364 -0.5389  0.2143  0.8559
14646TIP3   OH265428   2.014   0.267   0.445 -0.7506 -0.1269  0.2330
14646TIP3    H165429   2.007   0.354   0.484  0.3379  0.9429 -1.8340
14646TIP3    H265430   2.033   0.282   0.353 -0.7112 -2.5716 -0.2451
14647TIP3   OH265431   2.179   5.567  15.688 -0.1642  0.5077  0.1992
14647TIP3    H165432   2.161   5.505  15.617  2.1258 -1.2548  1.0194
14647TIP3    H265433   2.191   5.651  15.644  1.1185 -0.5051 -1.5270
14648TIP3   OH265434   1.720   4.796  17.099 -0.3117  0.4800 -0.6313
14648TIP3    H165435   1.733   4.863  17.032 -0.7004 -0.1202 -1.3111
14648TIP3    H265436   1.733   4.713  17.053  0.6631  0.0890  0.3117
14649TIP3   OH265437   5.976   3.868  13.743 -0.2216  0.2901  0.3676
14649TIP3    H165438   6.011   3.810  13.811 -0.1817  0.1322  0.2133
14649TIP3    H265439   6.018   3.838  13.662 -1.1685 -0.2942  0.0788
14650TIP3   OH265440   3.529   3.103  13.302  0.5707 -0.1829 -0.5792
14650TIP3    H165441   3.509   3.129  13.212 -0.8307 -1.4857 -0.6956
14650TIP3    H265442   3.564   3.015  13.294  0.3973 -0.3234  0.1601
14651TIP3   OH265443   5.422   1.453  13.282  0.3940 -0.2090 -0.0937
14651TIP3    H165444   5.370   1.444  13.361 -0.6587  1.4724 -0.5408
14651TIP3    H265445   5.379   1.523  13.232  0.8667 -1.3710 -2.2777
14652TIP3   OH265446   2.115   1.903  12.520 -0.1339  0.1109  0.5520
14652TIP3    H165447   2.159   1.970  12.468 -0.4458  1.3331  1.8002
14652TIP3    H265448   2.051   1.864  12.460  1.7181 -0.8261 -0.9117
14653TIP3   OH265449   3.083   6.518  11.960 -0.3074 -0.4638  0.1311
14653TIP3    H165450   3.023   6.449  11.988  1.7653 -2.4721 -0.0890
14653TIP3    H265451   3.159   6.472  11.924  0.1215  1.9457 -2.4768
14654TIP3   OH265452   5.923   5.682   4.215 -0.1397 -0.3403 -0.6833
14654TIP3    H165453   5.876   5.741   4.157 -0.1258  0.9088  0.5195
14654TIP3    H265454   5.974   5.739   4.272 -0.3892 -1.4889  0.7677
14655TIP3   OH265455   1.156   5.274   3.653 -0.8048  0.9404  0.0599
14655TIP3    H165456   1.118   5.187   3.640  0.9295 -0.1093  1.5604
14655TIP3    H265457   1.197   5.269   3.740  3.3218  1.6749 -1.6404
14656TIP3   OH265458   3.594   0.176  10.449 -0.6154  0.4921  0.4779
14656TIP3    H165459   3.594   0.175  10.354 -0.8892  2.2467  0.4293
14656TIP3    H265460   3.664   0.115  10.474 -0.9568 -0.4522 -0.8109
14657TIP3   OH265461   1.299   2.728  16.652 -0.6327  0.5886 -0.0517
14657TIP3    H165462   1.267   2.683  16.574  0.9307  0.5101 -0.6771
14657TIP3    H265463   1.354   2.663  16.696 -1.6802  0.5513  1.2664
14658TIP3   OH265464   6.815   4.946  14.981  0.4701 -0.8294 -0.7276
14658TIP3    H165465   6.726   4.915  14.964  0.4752 -0.4977 -1.3904
14658TIP3    H265466   6.812   5.040  14.962  0.5546 -0.4705  0.8428
14659TIP3   OH265467   3.123   4.911  12.142 -0.2541  0.6315  0.0089
14659TIP3    H165468   3.092   4.826  12.112 -0.5144  1.4567 -2.3009
14659TIP3    H265469   3.044   4.957  12.171 -0.4218  0.7884 -0.6765
14660TIP3   OH265470   6.126   4.575  14.221 -0.4755 -0.2831 -0.9476
14660TIP3    H165471   6.067   4.536  14.157 -1.8202  0.7059 -0.3490
14660TIP3    H265472   6.123   4.669  14.203  1.8692 -0.2796 -1.6623
14661TIP3   OH265473   3.769   6.200   0.520 -0.0460 -0.5152 -0.2217
14661TIP3    H165474   3.792   6.111   0.546 -2.0965 -1.2612 -0.8077
14661TIP3    H265475   3.825   6.256   0.575  0.4359 -2.1216  0.9997
14662TIP3   OH265476   4.114   6.552  12.295  0.7119 -0.1744  0.1599
14662TIP3    H165477   4.138   6.587  12.381  0.3997 -1.0966  0.6339
14662TIP3    H265478   4.074   6.467  12.314 -0.3571  0.0843 -0.8205
14663TIP3   OH265479   4.229   3.260   6.553 -0.1345 -0.3478 -0.6223
14663TIP3    H165480   4.253   3.309   6.474  0.0032 -1.2785 -1.1644
14663TIP3    H265481   4.292   3.189   6.557  0.5017  0.2600  0.8964
14664TIP3   OH265482   5.000   1.680  13.401 -0.2151 -0.1975 -0.4964
14664TIP3    H165483   5.018   1.722  13.485 -0.6358 -1.5156  0.2912
14664TIP3    H265484   4.918   1.720  13.372 -3.2458 -3.4565  2.5034
14665TIP3   OH265485   2.169   3.529   5.123 -0.6752 -0.4673 -0.1810
14665TIP3    H165486   2.227   3.458   5.152 -1.3202 -0.4933  1.1505
14665TIP3    H265487   2.213   3.609   5.152 -0.5325 -0.3969 -0.5956
14666TIP3   OH265488   3.871   2.447   3.837 -0.5040 -0.0630  0.5385
14666TIP3    H165489   3.897   2.507   3.906 -0.8062 -0.5531  1.0868
14666TIP3    H265490   3.952   2.428   3.789  0.9718 -3.7763  3.9016
14667TIP3   OH265491   4.000   4.774   0.329 -0.0316  0.6402  0.3263
14667TIP3    H165492   3.921   4.813   0.293  1.2416  1.6987 -1.4843
14667TIP3    H265493   4.020   4.826   0.406  0.2472  2.0028 -0.6292
14668TIP3   OH265494   5.962   6.679  13.735  0.0260  0.2465 -0.4119
14668TIP3    H165495   5.883   6.730  13.752  0.8205  1.8386 -1.2242
14668TIP3    H265496   6.022   6.703  13.805 -0.3261 -1.2580  0.4250
14669TIP3   OH265497   2.258   3.829   5.016  0.2703 -0.7413 -0.0258
14669TIP3    H165498   2.288   3.872   5.096  1.1786 -0.8525 -0.2897
14669TIP3    H265499   2.318   3.755   5.005  0.2543 -0.6322 -0.8956
14670TIP3   OH265500   2.692   4.261   1.622 -0.5923 -0.1988 -0.1166
14670TIP3    H165501   2.617   4.319   1.632 -0.6041 -0.4409  1.4575
14670TIP3    H265502   2.752   4.308   1.565 -0.9990  0.9717  0.3919
14671TIP3   OH265503   1.504   5.039  12.858 -0.2499 -0.3124  0.2290
14671TIP3    H165504   1.529   5.011  12.770  1.7215  1.1262  0.2677
14671TIP3    H265505   1.526   4.964  12.914  0.2556 -0.5385 -0.2687
14672TIP3   OH265506   3.306   4.751   0.909 -0.0701 -0.0537 -0.0684
14672TIP3    H165507   3.246   4.677   0.904 -0.8673  0.5991 -0.3964
14672TIP3    H265508   3.387   4.718   0.870 -0.5579 -0.6189 -0.6257
14673TIP3   OH265509   0.024   6.178   2.507  0.1409 -0.2444  0.0498
14673TIP3    H165510  -0.005   6.124   2.581 -2.0131  0.5955 -0.1028
14673TIP3    H265511   0.039   6.264   2.546  0.0996 -0.0790 -0.2980
14674TIP3   OH265512   5.205   2.706   3.784  0.3235  0.5299  0.1971
14674TIP3    H165513   5.165   2.758   3.714  0.4079  0.3060 -0.0185
14674TIP3    H265514   5.212   2.767   3.858 -1.1424  0.3688  0.4993
14675TIP3   OH265515   5.170   1.622  13.200  0.2420 -0.1257 -0.0819
14675TIP3    H165516   5.106   1.629  13.271  0.7897 -0.4731  0.4548
14675TIP3    H265517   5.117   1.619  13.120 -0.3842  0.2021  0.3106
14676TIP3   OH265518   0.978   2.363  14.028 -0.4978 -0.3264 -0.1865
14676TIP3    H165519   0.941   2.381  13.942  1.2237  0.6375 -0.7645
14676TIP3    H265520   1.008   2.273  14.024  0.5362  0.0394 -0.9784
14677TIP3   OH265521   0.242   3.940  11.336  0.0084 -0.7596  0.1030
14677TIP3    H165522   0.252   3.954  11.430  0.3208  0.0436 -0.0420
14677TIP3    H265523   0.218   4.026  11.302  0.4386 -0.9252 -0.6277
14678TIP3   OH265524   2.641   4.516  15.919  0.1120  0.4739  0.6141
14678TIP3    H165525   2.697   4.439  15.920 -1.6110 -0.8414  2.1731
14678TIP3    H265526   2.688   4.579  15.863  1.8365 -1.4581 -0.2458
14679TIP3   OH265527   3.937   0.561   1.888  0.3292  0.2430 -0.1185
14679TIP3    H165528   3.855   0.611   1.882  0.3258  0.2716  0.1241
14679TIP3    H265529   3.924   0.505   1.965 -0.1415 -0.9977 -1.0712
14680TIP3   OH265530   2.226   3.636  13.240  0.1137 -0.3200 -0.2233
14680TIP3    H165531   2.311   3.626  13.197 -0.0285  1.3007 -0.9528
14680TIP3    H265532   2.220   3.560  13.298  1.6816 -0.9148 -0.7694
14681TIP3   OH265533   1.011   4.596   6.126 -0.4153 -0.2831 -0.3567
14681TIP3    H165534   1.014   4.510   6.169 -1.2017 -1.2187 -2.0856
14681TIP3    H265535   0.946   4.645   6.177 -1.2553 -1.3293 -0.3875
14682TIP3   OH265536   6.600   0.960   4.289  0.2573  0.2000 -0.1569
14682TIP3    H165537   6.544   0.886   4.265  0.7599 -0.3707  0.3900
14682TIP3    H265538   6.563   1.034   4.242  0.2679 -0.5717 -1.4331
14683TIP3   OH265539   0.614   4.237   6.005  0.7524 -0.1723  0.2166
14683TIP3    H165540   0.603   4.332   6.001  0.0440 -0.2718 -0.5545
14683TIP3    H265541   0.560   4.210   6.080 -0.9201 -0.1837 -0.9299
14684TIP3   OH265542   0.385   1.985  15.652 -0.0324  0.1217  0.3858
14684TIP3    H165543   0.423   1.899  15.637  2.3154  1.1107  0.2760
14684TIP3    H265544   0.375   1.991  15.747  1.6904  0.4343  0.5770
14685TIP3   OH265545   6.354   5.061  15.883  0.0761 -0.1518  0.1085
14685TIP3    H165546   6.310   5.123  15.941 -0.6070 -0.9864  0.5000
14685TIP3    H265547   6.421   5.113  15.839 -0.0645  0.7202  0.8966
14686TIP3   OH265548   1.890   5.923  14.129 -0.3579  0.7681  0.0408
14686TIP3    H165549   1.853   5.971  14.056  0.8113  0.4378 -0.7918
14686TIP3    H265550   1.955   5.865  14.090 -0.8203 -0.5784  1.1584
14687TIP3   OH265551   4.440   0.310   2.909 -0.0269  0.0554 -0.2533
14687TIP3    H165552   4.514   0.329   2.965 -0.9795  0.6977  0.8298
14687TIP3    H265553   4.410   0.223   2.936 -0.0568  0.0652 -0.2543
14688TIP3   OH265554   6.595   0.171   1.536  0.4763 -0.4202 -0.1905
14688TIP3    H165555   6.590   0.244   1.475 -2.4918  0.4526  0.8960
14688TIP3    H265556   6.671   0.120   1.508  1.1639  1.7217 -2.5037
14689TIP3   OH265557   4.059   0.437  15.652  0.4273 -0.1600 -0.0073
14689TIP3    H165558   4.086   0.471  15.737 -1.8277  0.1179  0.6630
14689TIP3    H265559   4.109   0.488  15.589 -0.6141  2.3780  1.0651
14690TIP3   OH265560   3.510   5.154  13.432  0.0363  0.1020  0.0733
14690TIP3    H165561   3.499   5.098  13.356 -0.6337 -2.1702  1.7253
14690TIP3    H265562   3.594   5.197  13.419 -0.3635  0.3044 -2.2190
14691TIP3   OH265563   2.751   5.897  11.319  0.1980 -0.3608 -0.0606
14691TIP3    H165564   2.813   5.864  11.254  0.5726  0.4492 -0.1244
14691TIP3    H265565   2.683   5.830  11.323  0.2878 -0.5310 -1.1199
14692TIP3   OH265566   0.528   6.247  11.733  0.1912 -0.5031 -0.0275
14692TIP3    H165567   0.469   6.298  11.678  1.0665  2.8098  1.8168
14692TIP3    H265568   0.474   6.219  11.807  0.1945 -0.2284  0.0815
14693TIP3   OH265569   2.753   0.102  16.688 -0.0631  0.1286  0.1479
14693TIP3    H165570   2.725   0.192  16.700  2.2629  0.8995  0.3041
14693TIP3    H265571   2.754   0.090  16.593  1.9786  1.1382 -0.0052
14694TIP3   OH265572   1.128   1.594  12.095 -0.0795 -0.5747  1.1006
14694TIP3    H165573   1.199   1.645  12.056 -1.3177 -1.2845 -2.4897
14694TIP3    H265574   1.170   1.544  12.165  3.0960 -1.1363 -0.9835
14695TIP3   OH265575   0.821   6.218   4.104  0.5380 -0.1297  0.0695
14695TIP3    H165576   0.799   6.125   4.094  1.8864 -0.3237 -1.5397
14695TIP3    H265577   0.743   6.264   4.071  0.0656 -0.6778  0.3913
14696TIP3   OH265578   4.456   0.861   3.956 -0.9695 -0.3003 -0.1601
14696TIP3    H165579   4.506   0.813   3.890  1.4693  0.8491  0.7551
14696TIP3    H265580   4.467   0.810   4.036  1.6083  1.5634  0.8123
14697TIP3   OH265581   4.524   3.381   2.693 -0.5250 -0.0250 -0.2168
14697TIP3    H165582   4.481   3.427   2.766 -1.0917  0.7018 -0.9950
14697TIP3    H265583   4.522   3.289   2.720 -0.7624  0.2224  0.6694
14698TIP3   OH265584   3.049   3.068   4.201  0.0597 -0.1917 -0.5739
14698TIP3    H165585   2.976   3.061   4.263  0.1098  0.9282 -0.3725
14698TIP3    H265586   3.101   2.989   4.216 -0.4993 -0.4494  0.0679
14699TIP3   OH265587   1.926   1.860   5.490 -0.2469 -0.2202  0.1021
14699TIP3    H165588   1.896   1.873   5.400  0.6512 -0.2028 -0.2040
14699TIP3    H265589   1.909   1.944   5.533  1.1477  0.4582 -0.5982
14700TIP3   OH265590   0.184   2.900  17.074 -0.3124 -0.2271  0.2441
14700TIP3    H165591   0.089   2.897  17.072 -0.2810 -2.1296  0.3936
14700TIP3    H265592   0.207   2.963  17.006 -1.6735  0.7220  0.6283
14701TIP3   OH265593   2.503   5.637   4.949 -0.5570 -0.7124 -0.1484
14701TIP3    H165594   2.420   5.684   4.944 -0.5701 -0.6211  0.8246
14701TIP3    H265595   2.562   5.687   4.892 -1.1186 -0.6858 -0.7104
14702TIP3   OH265596   1.316   0.318   1.594  0.1153  0.7049  0.4122
14702TIP3    H165597   1.326   0.413   1.600 -0.8538  0.8571 -0.1977
14702TIP3    H265598   1.405   0.284   1.601  0.4487  1.6397  0.8906
14703TIP3   OH265599   3.948   5.614   6.847  0.3846 -0.2584 -0.3101
14703TIP3    H165600   3.856   5.613   6.824  0.8594 -3.1382 -2.6689
14703TIP3    H265601   3.979   5.701   6.822 -1.2392 -0.0107 -1.5962
14704TIP3   OH265602   2.181   4.193  16.614  0.2979 -0.0454  0.2640
14704TIP3    H165603   2.230   4.119  16.650  2.1802  2.0597  2.3326
14704TIP3    H265604   2.090   4.176  16.640  0.3830 -2.3479 -0.6982
14705TIP3   OH265605   2.056   6.574   0.928  0.0053 -0.1867 -0.2317
14705TIP3    H165606   2.045   6.663   0.962 -1.0173 -1.2573  2.5133
14705TIP3    H265607   1.982   6.563   0.868 -1.0999  0.1841  0.9959
14706TIP3   OH265608   1.348   0.532   2.813 -0.1295 -0.2762 -0.5591
14706TIP3    H165609   1.284   0.484   2.760 -1.2461 -0.6106  1.0279
14706TIP3    H265610   1.431   0.520   2.766 -0.9025 -1.2881 -1.7534
14707TIP3   OH265611   6.852   0.914   0.767 -0.0993 -0.1790 -0.4920
14707TIP3    H165612   6.853   0.982   0.834  0.1386  0.8366 -1.4864
14707TIP3    H265613   6.795   0.949   0.699  1.4011 -0.1695 -1.8038
14708TIP3   OH265614   4.470   4.747   3.239 -0.1971 -0.5178 -1.1252
14708TIP3    H165615   4.442   4.666   3.282 -1.2520  0.3507 -0.1183
14708TIP3    H265616   4.527   4.718   3.168 -0.1194 -2.1097 -0.4454
14709TIP3   OH265617   6.154   5.962   5.896  0.1621  0.8406 -0.2331
14709TIP3    H165618   6.107   6.016   5.833 -0.9885  0.8551  0.6070
14709TIP3    H265619   6.165   5.878   5.852  0.9683  1.4011 -1.1208
14710TIP3   OH265620   3.587   5.781   2.366 -0.0360  0.2117  0.1335
14710TIP3    H165621   3.665   5.781   2.422 -0.6869  1.9917  1.1321
14710TIP3    H265622   3.599   5.706   2.307  2.9909  1.1050 -0.5404
14711TIP3   OH265623   5.793   2.912  12.708  0.0287  0.4785 -0.1862
14711TIP3    H165624   5.772   2.819  12.699 -1.1754  0.8178 -1.3536
14711TIP3    H265625   5.833   2.936  12.624  1.7535  0.7052  0.6539
14712TIP3   OH265626   1.378   6.543   1.603 -0.3090  0.0910 -0.2228
14712TIP3    H165627   1.299   6.491   1.588 -0.6247 -0.1543  1.9437
14712TIP3    H265628   1.368   6.576   1.692  0.9876  1.9678 -0.7029
14713TIP3   OH265629   5.872   3.847  10.460  0.0936  0.7300 -0.3618
14713TIP3    H165630   5.928   3.772  10.442 -0.2708  0.0953  1.0284
14713TIP3    H265631   5.896   3.911  10.393  0.8106 -0.4003 -1.2235
14714TIP3   OH265632   5.256   6.702  11.321  0.0066  0.0595 -0.0257
14714TIP3    H165633   5.208   6.632  11.278 -1.2662 -0.2077  1.7165
14714TIP3    H265634   5.319   6.732  11.256 -1.1288 -0.9961 -1.6738
14715TIP3   OH265635   0.003   3.332  11.747  0.0873  0.1822  0.5770
14715TIP3    H165636  -0.020   3.420  11.777  0.8256 -0.2876  2.6971
14715TIP3    H265637   0.082   3.344  11.696  1.3981  0.5816  2.5891
14716TIP3   OH265638   6.122   1.439   2.154 -0.2639  0.1993 -0.3506
14716TIP3    H165639   6.056   1.502   2.123  0.5610  1.1080 -0.3130
14716TIP3    H265640   6.204   1.469   2.113  0.4703  0.2062  1.0749
14717TIP3   OH265641   1.224   3.030  15.656  0.2496  0.1919 -0.8720
14717TIP3    H165642   1.261   3.115  15.629 -1.0303  1.2084  0.4031
14717TIP3    H265643   1.299   2.980  15.687  0.9003  1.2840 -0.6149
14718TIP3   OH265644   6.726   2.883  15.588 -0.1845  0.3910  0.0894
14718TIP3    H165645   6.689   2.807  15.631  1.0157 -0.6806 -0.7068
14718TIP3    H265646   6.785   2.922  15.654  0.2202 -0.1527  0.0538
14719TIP3   OH265647   2.667   4.877  14.585  0.1555 -0.4294  0.0546
14719TIP3    H165648   2.729   4.845  14.650 -1.4100 -1.5625  1.0699
14719TIP3    H265649   2.721   4.923  14.521  1.9064 -0.4822  1.4126
14720TIP3   OH265650   4.555   6.120  14.743 -0.7948 -0.3000  0.0983
14720TIP3    H165651   4.521   6.128  14.833  0.0317 -0.9258  0.4789
14720TIP3    H265652   4.497   6.056  14.702 -1.6773  0.5850 -0.0826
14721TIP3   OH265653   3.202   2.458  15.623  0.7112 -0.1307 -0.1647
14721TIP3    H165654   3.127   2.400  15.608  0.0613  0.6285  0.0746
14721TIP3    H265655   3.259   2.444  15.547 -0.0256 -0.1746 -0.7245
14722TIP3   OH265656   4.460   3.904   6.282  0.0936  0.1806  0.3754
14722TIP3    H165657   4.419   3.833   6.331 -0.7745 -0.1103 -0.7166
14722TIP3    H265658   4.539   3.864   6.244 -0.8880 -0.5141 -1.0179
14723TIP3   OH265659   6.065   1.313   5.510 -0.6020  0.0105 -0.6434
14723TIP3    H165660   6.077   1.407   5.525 -1.7407  0.0453  0.1895
14723TIP3    H265661   6.114   1.271   5.580  1.2132 -0.0982 -1.9102
14724TIP3   OH265662   0.871   0.872   2.892  0.5201 -0.1875  0.3307
14724TIP3    H165663   0.965   0.878   2.874  0.4569 -1.2854 -0.5521
14724TIP3    H265664   0.860   0.787   2.935 -0.0675 -0.0826  0.4016
14725TIP3   OH265665   2.359   5.644  12.167  0.3888 -0.6201  0.1294
14725TIP3    H165666   2.355   5.657  12.072 -3.4217 -0.5219  0.1435
14725TIP3    H265667   2.383   5.552  12.177 -0.9823 -1.1680 -1.0812
14726TIP3   OH265668   3.440   2.999  14.492  0.1551  0.4460  0.8886
14726TIP3    H165669   3.423   3.092  14.473 -0.5732 -0.2137 -2.4218
14726TIP3    H265670   3.525   2.982  14.453 -1.1985 -0.9395 -1.7339
14727TIP3   OH265671   1.687   1.284  10.410  0.2131  0.1945 -0.5896
14727TIP3    H165672   1.658   1.375  10.402 -0.6174 -0.1437 -1.7584
14727TIP3    H265673   1.648   1.254  10.492  1.7223  1.2929  0.5840
14728TIP3   OH265674   2.843   5.833  15.443  0.4811  0.0093 -0.3482
14728TIP3    H165675   2.785   5.798  15.511  0.0397  1.2685 -0.0544
14728TIP3    H265676   2.784   5.863  15.374  0.9342 -1.3878 -1.3752
14729TIP3   OH265677   2.594   0.749   5.604 -0.7021 -0.1298 -0.0022
14729TIP3    H165678   2.590   0.791   5.690  1.8373 -0.8495  0.5267
14729TIP3    H265679   2.524   0.792   5.554 -1.3441  1.2847  1.9753
14730TIP3   OH265680   1.431   1.753   3.181  0.3148 -0.2153  0.6282
14730TIP3    H165681   1.364   1.697   3.141  1.2971 -3.0325  2.5745
14730TIP3    H265682   1.382   1.812   3.238 -0.7090  0.4283 -0.8440
14731TIP3   OH265683   6.497   6.615  13.432 -0.1367  0.1384  0.1309
14731TIP3    H165684   6.452   6.636  13.514 -1.4018 -2.2165  0.1337
14731TIP3    H265685   6.454   6.669  13.366 -0.9712  0.0772  0.6094
14732TIP3   OH265686   5.670   1.627   4.537 -0.5967 -0.0142 -0.2764
14732TIP3    H165687   5.760   1.628   4.568 -0.2580  0.2545 -1.2614
14732TIP3    H265688   5.672   1.577   4.456 -1.0322  1.3831 -1.1887
14733TIP3   OH265689   1.559   2.936   1.477  0.5580 -0.0422  0.4014
14733TIP3    H165690   1.654   2.942   1.473  0.4810  1.0522 -0.3464
14733TIP3    H265691   1.528   2.995   1.409 -0.6762  0.3465  1.2527
14734TIP3   OH265692   3.321   6.577   6.232 -0.0904 -0.4702 -0.1759
14734TIP3    H165693   3.337   6.494   6.186 -1.2235 -2.3370  2.5154
14734TIP3    H265694   3.293   6.550   6.320 -0.2477  2.8161  0.9009
14735TIP3   OH265695   6.431   5.517   6.081  0.3034 -0.6564 -0.1844
14735TIP3    H165696   6.485   5.443   6.108  1.3968  0.1332 -0.1751
14735TIP3    H265697   6.352   5.510   6.136  0.9480 -1.0996  0.7103
14736TIP3   OH265698   5.011   4.900  14.454  0.4243  0.0899  0.6808
14736TIP3    H165699   5.024   4.947  14.372 -1.4717 -0.5264 -0.0347
14736TIP3    H265700   5.068   4.823  14.446  1.1095  0.6029  0.4599
14737TIP3   OH265701   0.100   5.257  13.692 -0.2927  0.2117 -0.1680
14737TIP3    H165702   0.011   5.292  13.696 -0.1848  0.4794 -0.0971
14737TIP3    H265703   0.156   5.329  13.721 -0.0856 -0.0783  0.1775
14738TIP3   OH265704   0.165   2.634   3.649 -0.0673 -0.4319  0.0298
14738TIP3    H165705   0.134   2.614   3.737  0.0216 -0.8965 -0.0459
14738TIP3    H265706   0.086   2.664   3.602 -0.0467  0.1697  0.3660
14739TIP3   OH265707   4.313   3.482  16.916 -0.3465 -0.0819 -0.5191
14739TIP3    H165708   4.269   3.567  16.914  0.5244  0.3914  0.2291
14739TIP3    H265709   4.294   3.444  16.830  0.7879  1.6591 -1.5938
14740TIP3   OH265710   0.145   4.904  10.566  0.4685  0.3540 -0.4351
14740TIP3    H165711   0.231   4.914  10.524  2.0016 -0.7417  2.2009
14740TIP3    H265712   0.138   4.979  10.625 -0.2822  0.2783 -0.4192
14741TIP3   OH265713   4.634   4.305   4.043  0.5422 -0.4253  0.4304
14741TIP3    H165714   4.555   4.279   3.995  1.2976 -0.4718 -0.8327
14741TIP3    H265715   4.603   4.369   4.108 -0.6384 -1.0414  0.4882
14742TIP3   OH265716   5.263   4.824  16.165  0.1128  0.0001  0.4404
14742TIP3    H165717   5.282   4.859  16.252  2.4279  0.5860 -0.2120
14742TIP3    H265718   5.349   4.814  16.124 -0.7967 -1.9624 -1.1576
14743TIP3   OH265719   4.442   2.426  13.498 -0.4746  0.4158  0.0310
14743TIP3    H165720   4.465   2.504  13.446 -0.9884  1.0402  0.7131
14743TIP3    H265721   4.390   2.461  13.571  1.9800 -0.1670  2.1848
14744TIP3   OH265722   3.597   6.079   3.642 -0.6465  0.2248  0.2529
14744TIP3    H165723   3.678   6.115   3.679 -0.1766 -0.4677 -0.0591
14744TIP3    H265724   3.554   6.153   3.600 -0.0849  0.5711  0.2812
14745TIP3   OH265725   4.097   4.063   5.902 -0.3722  0.1000 -0.0943
14745TIP3    H165726   4.100   4.155   5.875 -0.0627 -0.6745 -3.1045
14745TIP3    H265727   4.186   4.043   5.932 -0.2534  0.5923 -0.1241
14746TIP3   OH265728   1.708   4.647  16.799 -0.1065 -0.2322 -0.0967
14746TIP3    H165729   1.692   4.553  16.788  0.1754 -0.1548 -1.3329
14746TIP3    H265730   1.803   4.656  16.800 -0.1207 -0.0619  1.1633
14747TIP3   OH265731   5.851   2.894  16.468 -0.0902 -0.1124 -0.0548
14747TIP3    H165732   5.824   2.844  16.545  0.2136  0.8800  0.7129
14747TIP3    H265733   5.774   2.945  16.445  0.0391  0.1186  0.0222
14748TIP3   OH265734   0.834   3.959  12.127  0.3907 -0.6162 -0.3989
14748TIP3    H165735   0.818   3.897  12.198 -0.3527 -0.2383 -0.2207
14748TIP3    H265736   0.821   3.908  12.047 -1.1748 -0.4996 -0.2587
14749TIP3   OH265737   2.767   5.570  14.357 -0.1577  0.0075  0.2045
14749TIP3    H165738   2.708   5.646  14.357 -1.5440 -1.0270  1.2067
14749TIP3    H265739   2.808   5.573  14.271  0.5487  2.4198  0.5343
14750TIP3   OH265740   0.240   5.344  16.511 -0.4457 -0.0491 -0.2116
14750TIP3    H165741   0.329   5.333  16.544 -1.1409  0.2914  1.9560
14750TIP3    H265742   0.209   5.255  16.494  0.3573 -0.1549 -1.2171
14751TIP3   OH265743   2.893   1.862   0.399  0.3742 -0.2548 -0.0805
14751TIP3    H165744   2.862   1.933   0.454 -0.3821 -0.2431 -0.5058
14751TIP3    H265745   2.950   1.810   0.456 -2.2595 -1.6459  1.5240
14752TIP3   OH265746   4.914   0.257  11.668 -0.1162 -0.1348 -0.0498
14752TIP3    H165747   4.858   0.249  11.591 -0.7758  1.3562  0.2291
14752TIP3    H265748   4.968   0.334  11.651  0.2922 -0.2566  0.6340
14753TIP3   OH265749   2.486   2.696  13.834 -0.2672  0.0646 -0.6315
14753TIP3    H165750   2.391   2.702  13.825 -0.4577 -0.9508  0.4777
14753TIP3    H265751   2.518   2.676  13.746 -1.0978  0.2027 -0.9711
14754TIP3   OH265752   0.649   6.322  12.436  0.2011  0.0117 -0.0641
14754TIP3    H165753   0.554   6.315  12.427  0.1978  1.2193 -1.2625
14754TIP3    H265754   0.680   6.348  12.350  1.2879  2.4370  0.9560
14755TIP3   OH265755   5.950   3.986   4.745 -0.1719 -0.1184  0.0508
14755TIP3    H165756   6.043   4.004   4.729  0.0692 -1.4761 -0.1933
14755TIP3    H265757   5.904   4.057   4.699  0.7369  1.0804  0.9169
14756TIP3   OH265758   6.223   1.479   3.261  0.6190 -0.0988  0.4390
14756TIP3    H165759   6.162   1.413   3.227 -2.4622  2.0988  1.2429
14756TIP3    H265760   6.289   1.489   3.193  0.1665 -2.6689 -0.4817
14757TIP3   OH265761   2.512   0.692  16.740  0.3854 -0.2033  0.6767
14757TIP3    H165762   2.522   0.766  16.800  2.0256 -1.0226  1.4891
14757TIP3    H265763   2.456   0.630  16.786 -0.6538  0.3337  0.1651
14758TIP3   OH265764   4.260   5.324   6.383 -0.2858 -0.2467  0.4820
14758TIP3    H165765   4.333   5.385   6.391 -0.6835  0.4219 -0.7268
14758TIP3    H265766   4.295   5.252   6.330  0.0546 -0.8767  1.5412
14759TIP3   OH265767   2.454   1.242   2.944 -0.3505  0.9337 -0.9322
14759TIP3    H165768   2.409   1.327   2.945  1.6654  2.0657  0.2352
14759TIP3    H265769   2.483   1.229   3.034  0.1142 -0.5982 -1.2725
14760TIP3   OH265770   3.687   0.501   0.878  0.3995  0.1406  0.0440
14760TIP3    H165771   3.663   0.449   0.955 -1.2714 -0.1301 -0.6085
14760TIP3    H265772   3.671   0.443   0.803  0.8922  0.7741 -0.5678
14761TIP3   OH265773   1.748   2.832  14.034  0.1895  0.0697  0.3482
14761TIP3    H165774   1.728   2.916  14.076  2.1702  0.6609  0.2298
14761TIP3    H265775   1.677   2.819  13.971 -0.0669  1.7665  0.2306
14762TIP3   OH265776   0.203   1.450   4.168 -0.6835  0.5757 -0.2120
14762TIP3    H165777   0.195   1.513   4.096 -0.7435 -1.0423 -1.7123
14762TIP3    H265778   0.146   1.377   4.141  1.3310 -1.2299  0.1830
14763TIP3   OH265779   1.655   6.592   0.971  0.0497 -0.2930 -0.1216
14763TIP3    H165780   1.608   6.649   1.031  1.5344  0.6574  0.1992
14763TIP3    H265781   1.674   6.513   1.021  0.5850  0.1669  0.4041
14764TIP3   OH265782   4.234   2.944   1.961  0.1445 -0.7641 -0.1086
14764TIP3    H165783   4.214   2.853   1.940 -0.6467 -0.9665  1.4239
14764TIP3    H265784   4.236   2.947   2.056 -0.7788  1.0204 -0.1182
14765TIP3   OH265785   5.392   3.053  11.783 -0.1228  0.0106 -0.5690
14765TIP3    H165786   5.367   3.125  11.842 -0.4234 -0.4585 -0.1090
14765TIP3    H265787   5.468   3.013  11.824 -0.0044  0.0180 -0.7812
14766TIP3   OH265788   1.115   1.638   5.839 -0.2227 -0.6544  0.0321
14766TIP3    H165789   1.183   1.574   5.861  2.0482  1.1565 -1.2586
14766TIP3    H265790   1.075   1.660   5.923  0.9233 -1.6467  0.8756
14767TIP3   OH265791   0.194   3.233  12.521  0.0521 -0.6964  0.1894
14767TIP3    H165792   0.142   3.158  12.551 -1.3524  0.3005  0.3589
14767TIP3    H265793   0.129   3.302  12.504  1.3891  1.0786  1.7533
14768TIP3   OH265794   0.603   5.456   3.228  0.0038  0.4117  0.2571
14768TIP3    H165795   0.667   5.509   3.275  1.1203 -1.2262  0.6608
14768TIP3    H265796   0.538   5.433   3.294  0.4262 -0.1086  0.4990
14769TIP3   OH265797   0.953   2.294   0.168 -0.3335  0.1269  0.0309
14769TIP3    H165798   0.972   2.378   0.209  2.0190 -0.8217  1.0646
14769TIP3    H265799   0.969   2.229   0.236 -0.9815 -1.2441 -1.0680
14770TIP3   OH265800   6.190   2.017   5.266 -0.5080  0.1126  0.1777
14770TIP3    H165801   6.256   2.035   5.199 -1.1098  1.0894 -0.1853
14770TIP3    H265802   6.232   2.041   5.349 -0.2137  0.1992  0.0018
14771TIP3   OH265803   2.202   0.506  10.392 -0.4042  0.1884  0.0523
14771TIP3    H165804   2.246   0.550  10.464 -1.6612 -1.9930  2.2941
14771TIP3    H265805   2.261   0.434  10.369 -1.0428 -0.4870  0.4932
14772TIP3   OH265806   6.549   2.967   6.651 -0.1812  0.0867  0.1071
14772TIP3    H165807   6.470   2.920   6.680 -0.8076  1.0418 -0.0064
14772TIP3    H265808   6.598   2.903   6.601 -1.8136 -0.0068 -1.4595
14773TIP3   OH265809   3.747   3.943   1.557  0.0823  0.0690 -0.0956
14773TIP3    H165810   3.671   3.894   1.587  1.4310 -2.3003 -0.3418
14773TIP3    H265811   3.785   3.890   1.487  1.4975  1.5806 -0.5480
14774TIP3   OH265812   1.057   2.958   5.120  0.1973  0.5333  0.0328
14774TIP3    H165813   1.147   2.980   5.097  0.2745  0.6434  0.4352
14774TIP3    H265814   1.040   2.877   5.073  0.8882 -0.0921  0.8144
14775TIP3   OH265815   3.766   5.350   0.548  0.3305 -0.3183 -0.7996
14775TIP3    H165816   3.852   5.380   0.518  1.4115 -1.7886  0.6391
14775TIP3    H265817   3.703   5.402   0.498  2.0449  2.2954 -0.4124
14776TIP3   OH265818   6.373   3.572  10.092  0.2515 -0.2123  0.4539
14776TIP3    H165819   6.414   3.534  10.170  0.8136  2.6468  1.6541
14776TIP3    H265820   6.440   3.629  10.055 -0.4888 -0.4541 -1.3429
14777TIP3   OH265821   0.355   6.464   2.384  0.1821  0.4893  0.3136
14777TIP3    H165822   0.313   6.536   2.337  0.3251 -0.6289 -1.6360
14777TIP3    H265823   0.448   6.486   2.383  0.1240  0.7475  0.5836
14778TIP3   OH265824   4.679   2.929  13.210 -0.3112  0.2780 -0.0897
14778TIP3    H165825   4.653   2.972  13.292  1.6683 -0.4238  0.9644
14778TIP3    H265826   4.703   3.001  13.152  2.6809  0.7784  1.5557
14779TIP3   OH265827   0.883   4.084   0.391  0.2762  0.3238  0.5206
14779TIP3    H165828   0.975   4.062   0.397  0.1529  0.0237  1.4896
14779TIP3    H265829   0.879   4.153   0.325  1.0365 -0.4709 -0.3790
14780TIP3   OH265830   4.933   0.066   0.695  0.6839  0.1363 -0.3004
14780TIP3    H165831   4.901  -0.005   0.639  2.0193 -1.1135  0.4590
14780TIP3    H265832   4.857   0.123   0.708 -0.3536 -1.0179 -1.1398
14781TIP3   OH265833   6.176   0.438   1.342  0.0682  0.3753  0.1501
14781TIP3    H165834   6.095   0.404   1.304  0.3015 -0.4679  0.3807
14781TIP3    H265835   6.190   0.522   1.298 -0.5587  0.2031 -0.3940
14782TIP3   OH265836   6.534   2.106   4.569 -0.2848 -0.2014 -0.5711
14782TIP3    H165837   6.444   2.116   4.538 -0.8562 -1.6298  0.5520
14782TIP3    H265838   6.583   2.085   4.490 -0.8091  1.1290 -1.2891
14783TIP3   OH265839   3.215   5.882   0.856  0.4076  0.0916 -0.4989
14783TIP3    H165840   3.220   5.847   0.945 -1.6164 -1.1259 -0.8022
14783TIP3    H265841   3.132   5.930   0.853  1.2699  1.6058 -1.2604
14784TIP3   OH265842   2.595   3.289  13.292 -0.2819 -0.7439  0.9233
14784TIP3    H165843   2.511   3.252  13.265  0.0756 -0.8429 -0.1027
14784TIP3    H265844   2.595   3.378  13.256  0.7758 -1.3412 -0.6905
14785TIP3   OH265845   4.043   5.919   5.908 -0.0130  0.1127  0.5172
14785TIP3    H165846   3.986   5.957   5.975 -0.8108 -0.1205 -0.0119
14785TIP3    H265847   4.089   5.849   5.953  1.6333  1.7722  1.5614
14786TIP3   OH265848   1.862   2.995  13.690 -0.4230  0.3026 -0.1374
14786TIP3    H165849   1.832   2.937  13.759 -1.5682  0.0378 -0.8292
14786TIP3    H265850   1.937   2.949  13.651  0.3113  0.5208  0.9860
14787TIP3   OH265851   4.020   2.664  14.959 -0.3305 -0.1480  0.1110
14787TIP3    H165852   4.051   2.672  15.050 -0.5256 -0.2019  0.1832
14787TIP3    H265853   4.016   2.755  14.928  0.8298 -0.1851 -0.2182
14788TIP3   OH265854   0.620   6.839   4.166 -0.0187 -0.3366  0.2478
14788TIP3    H165855   0.694   6.778   4.169  1.9075  1.8099 -0.6184
14788TIP3    H265856   0.591   6.845   4.257 -0.1075 -2.2631  0.3979
14789TIP3   OH265857   0.503   1.698   4.453 -0.3459  0.0123  0.0429
14789TIP3    H165858   0.521   1.748   4.373  2.2405 -0.2400  0.3727
14789TIP3    H265859   0.567   1.627   4.451 -0.6978 -0.4095  2.0009
14790TIP3   OH265860   3.295   0.967   4.553  0.2849  0.8660  0.5452
14790TIP3    H165861   3.363   0.909   4.520 -0.3653 -0.3644  1.2688
14790TIP3    H265862   3.327   1.056   4.536  1.5405  0.2989 -0.1207
14791TIP3   OH265863   1.530   2.166   4.687  0.2069  0.4968  0.1972
14791TIP3    H165864   1.454   2.178   4.631  0.0991  1.0620  0.4516
14791TIP3    H265865   1.599   2.217   4.645 -0.1963  1.9342  1.1837
14792TIP3   OH265866   0.142   1.483   0.030  0.4855  0.0877  0.3682
14792TIP3    H165867   0.228   1.510   0.061  0.6140  0.2339 -0.0982
14792TIP3    H265868   0.085   1.556   0.053  1.0409  1.3324 -1.8685
14793TIP3   OH265869   4.689   6.284  13.155  0.4280  0.0514  0.5869
14793TIP3    H165870   4.686   6.192  13.131  0.3693  0.1712  0.1106
14793TIP3    H265871   4.782   6.305  13.161  0.5450  0.5408 -1.7200
14794TIP3   OH265872   3.119   2.669  12.601  0.8354 -0.1629 -0.2173
14794TIP3    H165873   3.139   2.685  12.509 -0.4658 -2.7073 -1.0459
14794TIP3    H265874   3.138   2.576  12.614 -0.3261 -0.1934  1.7010
14795TIP3   OH265875   3.099   0.773   0.199  0.1036 -0.2459  0.2186
14795TIP3    H165876   3.073   0.681   0.202 -0.7013 -0.0187  0.5939
14795TIP3    H265877   3.190   0.771   0.171  0.5706 -1.2573  1.6515
14796TIP3   OH265878   6.774   5.929  13.814 -0.3232  0.2606 -0.0963
14796TIP3    H165879   6.719   5.864  13.857  0.9247 -1.0617 -0.4134
14796TIP3    H265880   6.813   5.882  13.740  1.4869  1.0352  0.3111
14797TIP3   OH265881   0.947   5.008  13.588  0.0864 -0.6103 -0.1087
14797TIP3    H165882   0.966   4.914  13.588 -1.7951 -1.0558  1.3908
14797TIP3    H265883   0.875   5.018  13.526  0.3754 -0.1205 -0.3713
14798TIP3   OH265884   0.464   0.423   4.716  0.1716 -0.3913 -0.4523
14798TIP3    H165885   0.372   0.431   4.689 -0.0623  0.8022  0.6135
14798TIP3    H265886   0.510   0.395   4.636 -1.0815 -0.8183 -1.0429
14799TIP3   OH265887   2.050   0.297   4.903 -0.6437  0.1480 -0.4018
14799TIP3    H165888   2.060   0.210   4.942  0.7086  0.5995  0.3269
14799TIP3    H265889   1.964   0.295   4.862 -0.6856 -1.4965 -0.3018
14800TIP3   OH265890   1.330   0.524  12.811 -0.2576 -0.3564 -0.5049
14800TIP3    H165891   1.349   0.437  12.778  0.1424 -0.3467 -0.3074
14800TIP3    H265892   1.274   0.564  12.744  0.7232 -0.2533 -1.2878
14801TIP3   OH265893   1.615   4.235   2.689 -0.4730  0.1755 -0.1352
14801TIP3    H165894   1.663   4.317   2.678 -1.2326  0.7382  0.6448
14801TIP3    H265895   1.574   4.220   2.604 -1.5027  1.3768  0.1273
14802TIP3   OH265896   1.094   5.330   1.765  0.2102 -0.2020 -0.3252
14802TIP3    H165897   1.122   5.395   1.700 -0.7576  0.0407 -0.5082
14802TIP3    H265898   1.121   5.246   1.728  1.7720  0.0917  0.0634
14803TIP3   OH265899   5.451   4.591   1.143 -0.4183 -0.0605 -0.0807
14803TIP3    H165900   5.358   4.571   1.156 -0.2271 -0.4309  0.8018
14803TIP3    H265901   5.478   4.634   1.224  0.2508 -0.2118 -0.2150
14804TIP3   OH265902   6.613   6.429   4.374 -0.6293 -0.2276  0.1445
14804TIP3    H165903   6.621   6.520   4.404 -1.0172  0.0595 -0.6003
14804TIP3    H265904   6.573   6.384   4.449 -0.1016  0.1294  0.6544
14805TIP3   OH265905   2.660   1.739  13.447 -0.0026 -0.8924 -0.1471
14805TIP3    H165906   2.593   1.790  13.403  0.3837 -0.4697 -0.2532
14805TIP3    H265907   2.620   1.653  13.461 -0.9695 -0.2967  0.8362
14806TIP3   OH265908   6.032   4.144  16.984 -0.2287 -0.1898  0.7684
14806TIP3    H165909   5.953   4.133  17.037 -0.7120  1.1556  0.3488
14806TIP3    H265910   6.038   4.238  16.968 -0.5380 -0.5668 -2.2170
14807TIP3   OH265911   4.096   4.293  10.509 -0.7691 -0.4206 -0.5061
14807TIP3    H165912   4.132   4.256  10.589 -0.7620  0.9879  0.1841
14807TIP3    H265913   4.017   4.243  10.492 -0.3271 -1.2771 -0.0937
14808TIP3   OH265914   1.893   4.516  16.111  0.7404 -0.3307  0.1848
14808TIP3    H165915   1.937   4.587  16.158  1.1167 -1.7227  2.0622
14808TIP3    H265916   1.800   4.527  16.132  0.3827  1.2657 -1.9271
14809TIP3   OH265917   4.538   0.313  12.189  0.5745  0.7688  0.1952
14809TIP3    H165918   4.619   0.273  12.219  0.7401  1.3556  0.5605
14809TIP3    H265919   4.502   0.357  12.267  0.4001  1.3115 -0.1819
14810TIP3   OH265920   5.666   6.291   2.073  0.7729  0.0813  0.0870
14810TIP3    H165921   5.683   6.345   1.996 -1.0885 -0.8584 -1.0696
14810TIP3    H265922   5.693   6.203   2.046 -1.7068 -0.6320 -0.2854
14811TIP3   OH265923   5.810   2.434   4.372 -0.1123  0.3206  0.4567
14811TIP3    H165924   5.769   2.348   4.382 -1.0304  0.5725 -0.8647
14811TIP3    H265925   5.874   2.438   4.442 -1.3616 -0.6781  1.7252
14812TIP3   OH265926   5.438   4.304   3.310  0.0510 -0.1983 -0.0949
14812TIP3    H165927   5.465   4.239   3.245 -1.3609 -0.6011 -0.3176
14812TIP3    H265928   5.432   4.255   3.392 -0.3196 -0.1877 -0.1157
14813TIP3   OH265929   2.498   2.200  13.896  0.2034  0.0455 -0.0679
14813TIP3    H165930   2.500   2.295  13.888  1.5658  0.0874  0.3772
14813TIP3    H265931   2.413   2.174  13.862 -0.1671  1.4172 -0.2421
14814TIP3   OH265932   1.080   4.849  12.669  0.7648 -0.0489  0.3092
14814TIP3    H165933   0.997   4.806  12.648  0.3199  0.2804  1.3308
14814TIP3    H265934   1.124   4.859  12.585  0.2993 -1.3084 -0.1095
14815TIP3   OH265935   6.025   2.414  14.646 -0.1131  0.3855 -0.1614
14815TIP3    H165936   6.033   2.369  14.730 -2.2673 -1.1176 -0.6826
14815TIP3    H265937   6.004   2.505  14.668  2.8720  0.9230  0.8939
14816TIP3   OH265938   5.040   0.957  11.896 -0.1109  0.0458 -0.9360
14816TIP3    H165939   5.006   0.871  11.919  0.2418 -0.0991 -0.9668
14816TIP3    H265940   5.050   0.955  11.801  3.3802 -1.1804 -0.6764
14817TIP3   OH265941   0.370   5.213   3.642  0.3169  0.0541 -0.2355
14817TIP3    H165942   0.315   5.151   3.690  0.5282 -1.0762 -1.3750
14817TIP3    H265943   0.433   5.246   3.706 -0.2218 -0.4092  0.5441
14818TIP3   OH265944   0.766   1.131   1.230  0.4816  0.2793 -0.1149
14818TIP3    H165945   0.831   1.193   1.195 -0.8653  0.6854 -2.0468
14818TIP3    H265946   0.731   1.174   1.308  1.4735  0.7107  0.1113
14819TIP3   OH265947   1.365   2.573   3.957  0.1576 -0.1748  0.0896
14819TIP3    H165948   1.276   2.565   3.923 -0.6551  0.7572  1.8620
14819TIP3    H265949   1.407   2.490   3.935 -1.4222 -0.9783 -0.0274
14820TIP3   OH265950   5.870   5.117  11.882  0.4299 -0.1044  0.2537
14820TIP3    H165951   5.830   5.142  11.799 -1.6477 -3.5627  0.0105
14820TIP3    H265952   5.964   5.129  11.868  0.2469 -1.3325 -2.9960
14821TIP3   OH265953   1.754   4.633  15.357 -0.3172 -0.5200 -0.4386
14821TIP3    H165954   1.844   4.602  15.349 -0.2508 -0.7108  0.8080
14821TIP3    H265955   1.752   4.714  15.306  0.4416 -0.7411 -0.8366
14822TIP3   OH265956   2.915   2.472  17.011 -0.0280 -0.5750 -0.0164
14822TIP3    H165957   2.892   2.397  17.066  1.0588 -0.7256  0.2575
14822TIP3    H265958   2.912   2.438  16.922 -1.0551 -0.5273 -0.0136
14823TIP3   OH265959   5.716   6.634  12.553  0.0176 -0.0612  0.6512
14823TIP3    H165960   5.738   6.726  12.535  2.6370 -0.5659  0.8250
14823TIP3    H265961   5.717   6.628  12.649  1.2763 -0.5379  0.6217
14824TIP3   OH265962   0.970   3.679  16.974  0.1165 -0.3514 -0.0060
14824TIP3    H165963   1.047   3.658  16.921 -0.5466 -1.5257 -0.5392
14824TIP3    H265964   0.965   3.608  17.038 -0.0521  0.1685  0.5679
14825TIP3   OH265965   5.510   3.453   2.010 -0.4215 -0.1542 -0.2343
14825TIP3    H165966   5.598   3.419   1.995  0.0430  1.4867 -1.5264
14825TIP3    H265967   5.461   3.430   1.931 -0.3390  1.3288 -0.7478
14826TIP3   OH265968   4.982   3.456   3.093  0.3781  0.0519  0.4094
14826TIP3    H165969   4.929   3.460   3.172  0.0096 -0.6203  0.2022
14826TIP3    H265970   5.057   3.514   3.111  1.1622 -1.3621  1.8863
14827TIP3   OH265971   0.225   2.631   1.857 -0.1637  0.6118  0.1517
14827TIP3    H165972   0.145   2.589   1.824  1.2360 -1.6042 -0.6466
14827TIP3    H265973   0.259   2.681   1.784  1.4460 -2.0524 -1.0923
14828TIP3   OH265974   4.048   4.724  15.718  0.3610  0.6059  0.6898
14828TIP3    H165975   4.141   4.735  15.702  0.5818 -0.4345  1.1438
14828TIP3    H265976   4.010   4.704  15.633  0.3562  2.0909  0.3113
14829TIP3   OH265977   3.404   3.139   0.880 -0.0605 -0.2615 -0.1525
14829TIP3    H165978   3.368   3.093   0.956 -0.6815  0.8298  0.2297
14829TIP3    H265979   3.331   3.141   0.818 -0.4687  1.3556  0.3521
14830TIP3   OH265980   0.133   4.598  16.668  0.2649  0.3265  0.2107
14830TIP3    H165981   0.146   4.504  16.655  1.0987  0.3738  0.6343
14830TIP3    H265982   0.057   4.620  16.614  1.3924 -0.1579 -1.6686
14831TIP3   OH265983   0.990   6.729  16.866 -0.4600  0.2040 -0.3181
14831TIP3    H165984   0.939   6.665  16.816 -2.8219  1.2043  0.6435
14831TIP3    H265985   1.038   6.779  16.799 -2.8340  0.9205 -1.6098
14832TIP3   OH265986   0.730   3.913   4.314 -0.3591 -0.4597 -0.0948
14832TIP3    H165987   0.739   3.818   4.317 -2.2010 -0.7155 -1.0188
14832TIP3    H265988   0.641   3.928   4.283  0.1167  1.5748 -0.6689
14833TIP3   OH265989   6.266   6.384   1.116  0.1879 -0.5138 -0.2059
14833TIP3    H165990   6.185   6.413   1.159  1.0401  2.5642 -0.4448
14833TIP3    H265991   6.336   6.417   1.173  1.3206 -2.4934 -0.3835
14834TIP3   OH265992   2.788   5.921   2.291 -0.6113  0.2375  0.1097
14834TIP3    H165993   2.770   5.835   2.254 -1.9755  0.6231 -0.1938
14834TIP3    H265994   2.856   5.957   2.234 -0.0382 -0.6304  0.2357
14835TIP3   OH265995   4.872   1.609   5.211 -0.1483 -0.1280  0.2006
14835TIP3    H165996   4.855   1.516   5.201 -2.3969  0.0068  2.0020
14835TIP3    H265997   4.811   1.651   5.150  1.4669  0.2264 -1.2672
14836TIP3   OH265998   5.903   1.183  13.874  0.2994  0.2479  0.2003
14836TIP3    H165999   5.927   1.110  13.817 -1.0321 -0.0930  0.0489
14836TIP3    H266000   5.966   1.252  13.852  1.0217 -0.5348 -0.2823
14837TIP3   OH266001   6.184   1.165   4.159 -0.0279 -0.2294 -0.3934
14837TIP3    H166002   6.092   1.173   4.134  0.5664  0.2133 -2.7273
14837TIP3    H266003   6.183   1.159   4.254 -2.4425  0.0240 -0.3419
14838TIP3   OH266004   3.189   0.928   1.639  0.8665 -0.7704  0.0410
14838TIP3    H166005   3.125   0.901   1.704  1.4791  1.1204  1.5120
14838TIP3    H266006   3.167   0.876   1.561 -2.1634 -0.5116  0.6074
14839TIP3   OH266007   2.796   4.574   6.653  0.2283 -0.7634  0.5823
14839TIP3    H166008   2.818   4.482   6.661  0.9457 -0.8598 -1.6949
14839TIP3    H266009   2.702   4.576   6.636  0.2238 -1.0950  0.5725
14840TIP3   OH266010   1.543   5.695  13.395 -0.7331 -0.7537 -0.3408
14840TIP3    H166011   1.465   5.750  13.409  0.8137  1.4638  0.1243
14840TIP3    H266012   1.536   5.666  13.304 -0.4784  2.2549 -1.4175
14841TIP3   OH266013   2.974   4.367   3.689 -0.1493  0.8871 -0.1070
14841TIP3    H166014   2.911   4.367   3.617 -0.8215 -1.2512  0.4130
14841TIP3    H266015   2.932   4.318   3.759  0.4991  2.8892  1.7989
14842TIP3   OH266016   1.315   2.074   2.980 -0.2539  0.2294  0.2951
14842TIP3    H166017   1.386   2.093   2.918 -0.1194  0.6391  0.5709
14842TIP3    H266018   1.260   2.153   2.977  1.1185  1.3833  2.5848
14843TIP3   OH266019   0.187   2.654  16.628  0.1778 -0.1454 -1.0680
14843TIP3    H166020   0.263   2.607  16.594  0.0245 -2.2628  1.2385
14843TIP3    H266021   0.115   2.591  16.621  0.0572 -0.6239  2.5861
14844TIP3   OH266022   4.987   0.840   1.570 -0.0904  0.3507 -0.6037
14844TIP3    H166023   5.014   0.795   1.490  2.3870  0.7155 -0.0529
14844TIP3    H266024   4.974   0.931   1.542  1.1681  0.5635 -0.5523
14845TIP3   OH266025   6.731   5.908   2.725  0.2571  0.3099  0.0780
14845TIP3    H166026   6.673   5.900   2.649 -1.2117  2.4075  0.9025
14845TIP3    H266027   6.731   5.820   2.764 -1.2879 -0.0836 -0.7213
14846TIP3   OH266028   0.705   2.095   3.726  0.9358  0.2684 -0.8252
14846TIP3    H166029   0.754   2.014   3.716  1.3014  0.3665  0.1035
14846TIP3    H266030   0.647   2.097   3.650 -0.2156 -1.6503 -0.0699
14847TIP3   OH266031   4.084   0.063   2.921 -0.3560  0.5254 -0.2798
14847TIP3    H166032   4.116   0.099   2.838 -0.7594  1.5703 -0.0014
14847TIP3    H266033   4.008   0.011   2.897  0.1702 -0.0907 -0.6778
14848TIP3   OH266034   4.997   4.954   1.539 -0.0538  0.0002 -0.0094
14848TIP3    H166035   4.931   4.894   1.573 -1.9898  0.2750 -2.9418
14848TIP3    H266036   5.054   4.899   1.486 -0.8985  0.4322 -1.4211
14849TIP3   OH266037   5.894   0.853   3.580 -0.5225  0.2979 -0.7575
14849TIP3    H166038   5.984   0.826   3.561 -0.7407 -0.5457 -0.6556
14849TIP3    H266039   5.903   0.926   3.641  0.1300  1.4456 -2.1689
14850TIP3   OH266040   4.714   4.964   6.303 -0.0838 -0.4865  0.2853
14850TIP3    H166041   4.806   4.977   6.282 -0.1917  0.3423  0.2725
14850TIP3    H266042   4.688   5.046   6.346 -0.6571 -0.9468  0.8370
14851TIP3   OH266043   5.842   4.178   4.580 -0.2549  0.4611  0.4202
14851TIP3    H166044   5.896   4.169   4.502 -0.3315 -3.7159  0.6181
14851TIP3    H266045   5.759   4.215   4.549  0.6283  1.4111 -0.9015
14852TIP3   OH266046   2.934   1.011   5.777 -0.0831  0.7527  0.6027
14852TIP3    H166047   2.855   1.029   5.829 -0.6686 -0.2275  0.0684
14852TIP3    H266048   2.993   0.967   5.837 -0.4273  0.3826  0.6712
14853TIP3   OH266049   1.538   0.187   1.289  0.5951  0.3631  0.3550
14853TIP3    H166050   1.444   0.204   1.282 -0.1082 -2.8926  0.1530
14853TIP3    H266051   1.555   0.188   1.383  0.0867 -0.0295  0.4629
14854TIP3   OH266052   3.062   6.443  12.292  0.3178  0.0314 -0.4594
14854TIP3    H166053   3.069   6.372  12.355 -0.3779 -0.5110 -0.9673
14854TIP3    H266054   3.020   6.402  12.215 -2.0709  1.4141 -0.0016
14855TIP3   OH266055   4.532   2.883  10.343  0.7061  0.1749 -0.0783
14855TIP3    H166056   4.465   2.834  10.297  0.9242 -0.1569 -0.0441
14855TIP3    H266057   4.523   2.973  10.311  1.0719 -0.1138 -1.0174
14856TIP3   OH266058   0.830   6.856   5.221 -0.4788  0.0334  0.1169
14856TIP3    H166059   0.788   6.844   5.135 -1.2266 -0.2293  0.5154
14856TIP3    H266060   0.796   6.939   5.253  2.9591  2.3859 -1.6247
14857TIP3   OH266061   0.282   3.952   2.531 -0.1072 -0.1786 -0.0168
14857TIP3    H166062   0.316   3.884   2.589 -1.4296 -0.0377  0.9552
14857TIP3    H266063   0.233   4.011   2.589 -2.0709 -0.4166 -1.3647
14858TIP3   OH266064   0.851   2.696  14.508  0.1126 -0.4178 -0.0722
14858TIP3    H166065   0.765   2.691  14.550  0.1527 -0.3846  0.0133
14858TIP3    H266066   0.833   2.724  14.419  0.0198 -0.5591 -0.0993
14859TIP3   OH266067   2.656   5.297   0.724  0.1530  0.1739 -0.0499
14859TIP3    H166068   2.652   5.212   0.680  1.4955  1.2429 -2.3709
14859TIP3    H266069   2.695   5.278   0.810 -0.9507 -1.7151  0.0893
14860TIP3   OH266070   0.905   0.691   1.842 -0.0796 -0.0958 -0.0837
14860TIP3    H166071   0.968   0.725   1.905  1.1796  0.9797 -1.8167
14860TIP3    H266072   0.820   0.715   1.877  0.5850  0.6529  1.0769
14861TIP3   OH266073   4.309   6.191   0.039 -0.0975  0.1737  0.3881
14861TIP3    H166074   4.266   6.260  -0.012  0.2209  0.2248  0.1831
14861TIP3    H266075   4.241   6.159   0.098 -0.0759  1.1179  0.9465
14862TIP3   OH266076   0.127   6.845  16.550 -0.1203  0.3718  0.2379
14862TIP3    H166077   0.086   6.809  16.471  1.1131  0.2624 -0.3792
14862TIP3    H266078   0.057   6.895  16.593 -0.6853  0.8832 -1.2069
14863TIP3   OH266079   1.433   3.602  14.537 -0.0205 -0.7871 -0.1585
14863TIP3    H166080   1.418   3.535  14.603 -1.7804  0.7676  1.0941
14863TIP3    H266081   1.346   3.624  14.504  0.5324  0.7165 -0.6906
14864TIP3   OH266082   5.201   4.911  12.290 -0.3530 -0.2601  0.4339
14864TIP3    H166083   5.196   4.827  12.335 -0.5578 -0.0035  0.8962
14864TIP3    H266084   5.253   4.894  12.212  0.8560 -0.4929  1.2686
14865TIP3   OH266085   4.958   5.290   0.587  0.2416  0.1817  0.2286
14865TIP3    H166086   4.868   5.319   0.606 -0.7338 -1.1078 -2.1133
14865TIP3    H266087   4.962   5.285   0.492  2.3812 -1.1730  0.3414
14866TIP3   OH266088   3.767   3.489   5.575  0.2706 -0.2465  0.0646
14866TIP3    H166089   3.815   3.411   5.546  1.0688  0.4256 -0.4661
14866TIP3    H266090   3.834   3.546   5.612 -0.2461  0.3582  0.0883
14867TIP3   OH266091   3.128   2.112   5.242  0.2088  0.4101 -0.4383
14867TIP3    H166092   3.051   2.109   5.185 -1.0674 -2.9157  1.2120
14867TIP3    H266093   3.124   2.199   5.282 -2.4299  0.5400 -0.7957
14868TIP3   OH266094   2.828   0.692   1.305  0.7379 -0.1182 -0.3002
14868TIP3    H166095   2.794   0.747   1.235  0.8046  1.0080  0.5249
14868TIP3    H266096   2.754   0.679   1.364  1.1022  0.3358  0.2699
14869TIP3   OH266097   4.135   1.915  11.383 -0.0295 -0.0660 -0.1499
14869TIP3    H166098   4.136   1.991  11.442  2.3815 -0.0670 -0.1013
14869TIP3    H266099   4.209   1.861  11.412 -2.1956 -3.0192  0.4699
14870TIP3   OH266100   1.706   3.793   1.712  0.2332 -0.8256  0.0811
14870TIP3    H166101   1.669   3.733   1.777  1.3769 -2.9301 -1.1124
14870TIP3    H266102   1.685   3.753   1.627 -0.8722  1.6328 -0.9100
14871TIP3   OH266103   4.394   1.274  11.129  0.7010  0.3683  0.1018
14871TIP3    H166104   4.387   1.181  11.108 -0.1840  0.6986 -1.2059
14871TIP3    H266105   4.333   1.317  11.068  1.3519  1.8351  0.4436
14872TIP3   OH266106   5.909   1.176   4.160  0.3037 -0.0506 -0.5883
14872TIP3    H166107   5.956   1.123   4.225 -0.0503  0.1910 -0.1342
14872TIP3    H266108   5.820   1.141   4.160  0.5309 -0.6801 -1.6386
14873TIP3   OH266109   3.491   2.237   0.422  0.2489 -0.2444  0.1060
14873TIP3    H166110   3.584   2.215   0.424  0.1171 -0.9079 -0.4364
14873TIP3    H266111   3.465   2.245   0.514  0.7607 -0.4271  0.2661
14874TIP3   OH266112   5.801   1.113  12.873  0.6045  0.7063 -0.6171
14874TIP3    H166113   5.717   1.143  12.838  0.5290  0.0865 -0.9901
14874TIP3    H266114   5.845   1.071  12.799  0.4478 -0.6144 -0.0016
14875TIP3   OH266115   3.516   5.403   3.680  0.9518  0.0465  0.5015
14875TIP3    H166116   3.538   5.345   3.608 -0.5520 -0.1462  0.1579
14875TIP3    H266117   3.500   5.488   3.640 -0.2692 -0.1497  0.5139
14876TIP3   OH266118   1.965   5.847  16.367 -0.0208 -0.2563  0.2033
14876TIP3    H166119   1.970   5.932  16.410  0.1784 -0.5244  0.7136
14876TIP3    H266120   2.023   5.855  16.291  0.5111 -0.1481  0.6198
14877TIP3   OH266121   6.216   5.793  15.418 -0.2044  0.0759 -0.1205
14877TIP3    H166122   6.244   5.800  15.509 -0.1090 -1.6058 -0.0034
14877TIP3    H266123   6.291   5.755  15.372 -0.2165  0.9929 -0.9479
14878TIP3   OH266124   5.796   6.616  14.517  0.5165 -0.1040 -0.4274
14878TIP3    H166125   5.889   6.634  14.528  0.7134 -0.9806 -0.5949
14878TIP3    H266126   5.762   6.694  14.475  1.0646  0.4549  0.1363
14879TIP3   OH266127   3.607   4.302   5.790  0.1628  0.1590  0.2945
14879TIP3    H166128   3.653   4.243   5.731  1.0345 -1.6958  2.6741
14879TIP3    H266129   3.675   4.336   5.848 -0.8915  0.5295  1.3534
14880TIP3   OH266130   3.970   3.343  12.019 -0.1858  0.0310 -0.2787
14880TIP3    H166131   3.928   3.259  12.001  0.4129 -0.0575 -1.3564
14880TIP3    H266132   3.904   3.393  12.065 -1.5073 -0.1106 -1.9092
14881TIP3   OH266133   0.826   1.690  16.873  0.3253  0.1179 -0.1157
14881TIP3    H166134   0.746   1.640  16.857  0.5033 -0.2808  0.2150
14881TIP3    H266135   0.823   1.710  16.967 -0.5348  2.1222 -0.5107
14882TIP3   OH266136   6.642   5.280  14.021  0.6428  0.5230 -0.5719
14882TIP3    H166137   6.637   5.366  14.061  3.2822 -0.0521  1.2546
14882TIP3    H266138   6.558   5.238  14.041  0.5376  1.5578  1.2728
14883TIP3   OH266139   5.689   2.073  16.390 -0.1029 -0.3937 -0.3709
14883TIP3    H166140   5.771   2.073  16.439 -0.1521 -0.4758 -0.2860
14883TIP3    H266141   5.659   2.164  16.394  0.4264 -0.1754 -1.1555
14884TIP3   OH266142   5.571   0.952   2.638  0.0334  0.1643  0.5693
14884TIP3    H166143   5.543   1.043   2.632 -0.6667 -0.0427  0.6349
14884TIP3    H266144   5.553   0.926   2.728  0.1103 -0.0787  0.5172
14885TIP3   OH266145   4.454   1.418  12.529  0.1873  0.0575  0.0674
14885TIP3    H166146   4.391   1.489  12.535 -0.8216 -0.8884  1.6412
14885TIP3    H266147   4.475   1.397  12.621  2.3859 -0.0316 -0.3936
14886TIP3   OH266148   4.861   1.072   1.476  0.1632  0.4270  0.3258
14886TIP3    H166149   4.899   1.148   1.432  0.6790  1.3387  2.2133
14886TIP3    H266150   4.790   1.109   1.528 -0.2159 -0.5512  0.5145
14887TIP3   OH266151   5.783   6.848  12.322 -0.3967 -0.2377  0.2660
14887TIP3    H166152   5.853   6.862  12.386 -1.0025  1.5793  0.5774
14887TIP3    H266153   5.729   6.926  12.328 -0.3503  0.1149 -2.6586
14888TIP3   OH266154   3.480   0.684  13.869 -0.5061 -0.0952  0.1339
14888TIP3    H166155   3.566   0.723  13.884 -0.3309 -0.7348  0.8376
14888TIP3    H266156   3.471   0.618  13.938 -1.7800  0.3254  0.3993
14889TIP3   OH266157   4.086   0.776  11.617 -0.5113  0.2760  0.0734
14889TIP3    H166158   4.020   0.717  11.654  0.9113  0.4389  3.2437
14889TIP3    H266159   4.081   0.854  11.672  0.0246  1.7223 -1.8378
14890TIP3   OH266160   3.536   4.493   2.650  0.4268 -0.6705 -0.6596
14890TIP3    H166161   3.493   4.573   2.620 -0.9989 -0.8067  0.8454
14890TIP3    H266162   3.466   4.444   2.694  1.6799 -1.8870  0.0566
14891TIP3   OH266163   0.871   6.485   3.211  0.3881  0.1704  0.3119
14891TIP3    H166164   0.868   6.408   3.267 -3.4852  0.0448  0.1661
14891TIP3    H266165   0.850   6.558   3.268 -0.5015  0.4709 -0.3753
14892TIP3   OH266166   0.711   2.866  12.493 -0.2540  0.1986  0.0290
14892TIP3    H166167   0.736   2.959  12.491  0.2443  0.0645 -1.9583
14892TIP3    H266168   0.650   2.856  12.420  1.2195 -1.4153 -1.0555
14893TIP3   OH266169   5.373   5.091   2.837  0.1334  0.4669  0.0537
14893TIP3    H166170   5.443   5.147   2.806  0.3278  1.0418  1.4720
14893TIP3    H266171   5.302   5.151   2.859  0.3283  0.1806  1.5436
14894TIP3   OH266172   1.038   5.257   5.640  0.0744  0.0882 -0.6136
14894TIP3    H166173   1.108   5.209   5.595  0.3457 -0.2081  0.1084
14894TIP3    H266174   1.083   5.306   5.709 -0.4739 -0.4092  0.1072
14895TIP3   OH266175   4.760   6.018  15.591  0.1322 -0.8077 -0.7806
14895TIP3    H166176   4.743   5.946  15.652  3.8031  0.0996  1.6025
14895TIP3    H266177   4.708   6.091  15.626  2.4000 -0.2082  1.7120
14896TIP3   OH266178   5.816   0.605   5.689 -0.4315  0.3940 -0.1063
14896TIP3    H166179   5.877   0.639   5.755 -1.5316  0.2762  1.0319
14896TIP3    H266180   5.732   0.602   5.735 -1.0490 -0.5768 -1.2595
14897TIP3   OH266181   3.554   2.263  11.617 -0.0868  0.4466 -0.4117
14897TIP3    H166182   3.580   2.332  11.557 -0.1840  1.3031  0.4983
14897TIP3    H266183   3.615   2.191  11.600  1.2311  1.4536 -0.0852
14898TIP3   OH266184   2.035   6.544   5.125  0.3674 -0.0954 -0.5185
14898TIP3    H166185   1.966   6.577   5.183  1.2497  0.2611  0.3422
14898TIP3    H266186   2.116   6.557   5.174  1.3802  1.9887 -2.5316
14899TIP3   OH266187   5.625   2.139  14.051 -0.9346 -0.3763 -0.2486
14899TIP3    H166188   5.615   2.064  13.992 -0.1822 -1.4583  0.9597
14899TIP3    H266189   5.569   2.120  14.125 -3.0124  1.6576 -1.1580
14900TIP3   OH266190   0.411   4.418  15.822  0.4804  0.1964  0.8916
14900TIP3    H166191   0.390   4.511  15.831 -1.2085  0.0367 -0.7647
14900TIP3    H266192   0.457   4.412  15.738  0.2444 -0.5091  0.8085
14901TIP3   OH266193   6.852   5.347  12.457 -0.8574  0.0125  0.4735
14901TIP3    H166194   6.763   5.311  12.459 -0.9466  0.2576  1.2296
14901TIP3    H266195   6.907   5.273  12.430 -1.2411 -0.2354  0.3602
14902TIP3   OH266196   6.698   2.234   0.214  0.2531  0.2244 -0.6504
14902TIP3    H166197   6.694   2.252   0.120 -0.2363  1.0290 -0.4846
14902TIP3    H266198   6.607   2.241   0.244  0.5133  0.8584  0.0323
14903TIP3   OH266199   3.930   4.131  11.980 -0.0128 -0.1332  0.2168
14903TIP3    H166200   3.971   4.215  12.001 -1.0891  0.5419 -0.3006
14903TIP3    H266201   3.919   4.133  11.885  4.3170 -2.9057 -0.6325
14904TIP3   OH266202   3.749   5.137   5.146 -0.7344 -0.4861 -0.5480
14904TIP3    H166203   3.712   5.093   5.070 -2.5754 -0.1357  0.1022
14904TIP3    H266204   3.765   5.067   5.209 -1.5910 -0.4851 -0.3268
14905TIP3   OH266205   2.613   2.652  12.730  0.3639  0.6012  0.3379
14905TIP3    H166206   2.634   2.607  12.811 -0.8476  0.5786  0.6497
14905TIP3    H266207   2.698   2.670  12.690  0.9663 -3.1848 -0.5007
14906TIP3   OH266208   2.437   5.776  11.654 -0.2597 -0.0453 -0.0067
14906TIP3    H166209   2.417   5.814  11.568  0.6906 -0.3048 -0.3538
14906TIP3    H266210   2.516   5.725  11.640 -0.2462 -0.3163  0.9732
14907TIP3   OH266211   5.985   5.706  14.751 -0.2882  0.6314  0.1604
14907TIP3    H166212   6.041   5.768  14.706 -2.1514  2.9580  0.8418
14907TIP3    H266213   5.938   5.660  14.681 -1.1277  2.2259 -0.3634
14908TIP3   OH266214   1.834   5.682   4.471 -0.2406  0.3200  0.1792
14908TIP3    H166215   1.819   5.737   4.548 -2.5392 -2.4655  1.9359
14908TIP3    H266216   1.758   5.698   4.415  0.6601  1.1778 -0.8539
14909TIP3   OH266217   3.180   3.010   3.943 -0.3188 -0.0128 -0.0461
14909TIP3    H166218   3.116   3.013   4.014  0.9834 -1.1419  1.2417
14909TIP3    H266219   3.129   2.990   3.865 -2.0263  2.9103  0.1768
14910TIP3   OH266220   3.395   3.129   5.268  0.5607 -0.4735 -0.6840
14910TIP3    H166221   3.381   3.222   5.288  1.0329 -0.1573 -1.7723
14910TIP3    H266222   3.334   3.110   5.197  2.1984 -0.3183 -2.1922
14911TIP3   OH266223   2.631   6.427   3.989 -0.1980  0.4654 -0.4119
14911TIP3    H166224   2.650   6.490   4.059 -0.0437  1.3666 -1.2357
14911TIP3    H266225   2.663   6.470   3.910  1.3941 -1.3352 -0.8166
14912TIP3   OH266226   1.029   1.285   3.361  0.7206  0.5232  0.1743
14912TIP3    H166227   0.970   1.273   3.436  1.8020  1.0565  1.1382
14912TIP3    H266228   0.971   1.297   3.286 -0.3926 -0.6946  0.7998
14913TIP3   OH266229   5.178   2.950  16.868 -0.9206 -0.4962  0.6434
14913TIP3    H166230   5.222   3.029  16.899 -0.4678 -0.8377  0.8911
14913TIP3    H266231   5.086   2.963  16.889 -1.0427  0.4746 -0.3806
14914TIP3   OH266232   3.694   1.813  12.708  0.3325  0.5564 -0.0039
14914TIP3    H166233   3.672   1.886  12.766  1.5028  2.0196 -1.2926
14914TIP3    H266234   3.618   1.805  12.650  0.6062  1.4816 -0.5160
14915TIP3   OH266235   0.979   5.227  10.361  0.7310 -0.0879 -1.0525
14915TIP3    H166236   0.966   5.256  10.452 -0.3172  0.9304 -1.5046
14915TIP3    H266237   1.045   5.158  10.367  1.7021  0.9039  0.3412
14916TIP3   OH266238   2.669   3.169   5.252  0.2670  0.0947  0.4325
14916TIP3    H166239   2.592   3.122   5.285  0.0404 -0.2448 -0.5395
14916TIP3    H266240   2.644   3.195   5.163  1.4054 -0.3250 -0.0202
14917TIP3   OH266241   6.817   3.366   5.922 -0.0250 -0.2276  0.3039
14917TIP3    H166242   6.798   3.272   5.920  0.7467 -0.4017  0.7177
14917TIP3    H266243   6.778   3.400   5.842  1.5794 -1.2651 -0.9776
14918TIP3   OH266244   4.683   3.061  17.051 -0.1787  0.2432  0.1419
14918TIP3    H166245   4.599   3.032  17.087  0.3190  0.1316  1.2522
14918TIP3    H266246   4.686   3.155  17.070 -0.5321  0.4768 -0.8995
14919TIP3   OH266247   3.963   1.963   0.458 -0.0903 -0.0355 -0.4609
14919TIP3    H166248   4.020   1.955   0.534  1.3006  0.3518 -1.4195
14919TIP3    H266249   3.993   2.042   0.414 -2.2850  0.9481 -0.2974
14920TIP3   OH266250   2.760   2.160  13.955 -0.3419  0.1864 -0.5957
14920TIP3    H166251   2.664   2.159  13.951 -0.3332  0.2895 -0.9343
14920TIP3    H266252   2.783   2.249  13.928 -0.0837 -0.4064 -2.5063
14921TIP3   OH266253   5.984   6.200  13.229 -0.3701  0.4249  0.1295
14921TIP3    H166254   6.005   6.287  13.262  1.1687  0.3834 -0.6686
14921TIP3    H266255   6.066   6.151  13.237 -0.5294 -0.2110 -1.7418
14922TIP3   OH266256   3.945   5.730  12.062  0.4529 -0.4280 -0.3292
14922TIP3    H166257   3.901   5.651  12.093  1.0676 -0.6626 -0.0375
14922TIP3    H266258   4.038   5.709  12.066  0.6944  0.7589  1.0111
14923TIP3   OH266259   1.463   2.321   0.488 -0.4745 -0.5058  0.2566
14923TIP3    H166260   1.475   2.306   0.394 -0.8827  0.6030  0.0130
14923TIP3    H266261   1.396   2.389   0.493  1.0494  0.9999  1.2782
14924TIP3   OH266262   1.000   0.335  15.109 -0.1672  0.1502 -0.4322
14924TIP3    H166263   1.063   0.356  15.177 -0.5996 -1.3635  0.4840
14924TIP3    H266264   1.031   0.382  15.031 -0.8116  3.6882  1.2391
14925TIP3   OH266265   6.262   5.626  16.367 -0.0250  0.7385 -0.4638
14925TIP3    H166266   6.191   5.690  16.358 -0.4447  0.2819 -0.4783
14925TIP3    H266267   6.256   5.597  16.458 -0.8579 -0.4223 -0.8553
14926TIP3   OH266268   3.668   2.775   2.780 -0.2629  0.1174  0.0571
14926TIP3    H166269   3.716   2.760   2.861 -0.7022 -0.0164  0.2965
14926TIP3    H266270   3.584   2.730   2.793  0.1867 -1.0898 -0.9986
14927TIP3   OH266271   5.099   3.498   1.093  0.3104 -0.5847 -0.2470
14927TIP3    H166272   5.140   3.413   1.108  1.2397  0.1235  1.5787
14927TIP3    H266273   5.047   3.514   1.171 -0.4657  0.2023 -0.9048
14928TIP3   OH266274   5.574   2.256  12.959 -0.1550  0.1948 -0.2970
14928TIP3    H166275   5.514   2.260  12.885 -0.6404  0.3534  0.0950
14928TIP3    H266276   5.525   2.211  13.028  0.1509  0.3782  0.0496
14929TIP3   OH266277   1.727   4.152   4.806 -0.1251  0.5448 -0.2896
14929TIP3    H166278   1.675   4.204   4.746  1.8741  1.0928 -1.6353
14929TIP3    H266279   1.743   4.070   4.759 -0.3321  0.0952  0.4015
14930TIP3   OH266280   5.466   1.585   1.824 -0.2477 -0.1169 -0.5509
14930TIP3    H166281   5.438   1.572   1.734 -1.8593 -0.0896 -0.0850
14930TIP3    H266282   5.406   1.532   1.876  0.9373 -0.5002  0.4905
14931TIP3   OH266283   1.965   6.767  16.716  0.0312 -0.4026 -0.1040
14931TIP3    H166284   1.911   6.730  16.785 -2.4860  0.5602 -1.4445
14931TIP3    H266285   1.945   6.860  16.717  0.2482 -0.2988 -1.8199
14932TIP3   OH266286   0.825   2.914  15.647  0.3345 -0.0120 -0.3113
14932TIP3    H166287   0.905   2.877  15.610  1.9324 -0.3199  3.0882
14932TIP3    H266288   0.837   3.008  15.642  0.3155 -0.0387 -0.9357
14933TIP3   OH266289   4.077   6.656   4.314  0.3865  0.0545  0.1086
14933TIP3    H166290   4.094   6.706   4.393  2.3389  2.3789 -1.6423
14933TIP3    H266291   4.163   6.641   4.275 -0.1971 -3.5728 -0.2356
14934TIP3   OH266292   1.641   2.051   4.932 -0.2712  0.1353  0.3401
14934TIP3    H166293   1.700   2.121   4.959  0.7990 -0.8415  0.6164
14934TIP3    H266294   1.601   2.084   4.851 -0.0063  1.1648  0.6094
14935TIP3   OH266295   3.883   4.688   0.629  0.4497 -0.2841  0.1643
14935TIP3    H166296   3.816   4.752   0.650  2.2120  0.9008  2.6493
14935TIP3    H266297   3.839   4.603   0.637 -2.3553  0.3180 -4.6455
14936TIP3   OH266298   3.019   3.022   1.315 -0.3921 -0.6378  0.0699
14936TIP3    H166299   3.064   3.006   1.232 -1.6201 -1.9779 -0.3749
14936TIP3    H266300   2.939   2.970   1.310 -1.1024  0.2189  1.5984
14937TIP3   OH266301   3.139   0.695   3.039 -0.2256 -0.2113 -0.0354
14937TIP3    H166302   3.129   0.660   2.951  2.1544 -0.4102 -0.3049
14937TIP3    H266303   3.070   0.762   3.047 -0.6182 -0.3346 -1.9553
14938TIP3   OH266304   3.741   1.853   5.707  0.2066 -0.6263  0.3732
14938TIP3    H166305   3.651   1.873   5.682  0.9657  0.5307 -1.7052
14938TIP3    H266306   3.749   1.887   5.796 -1.1971 -0.0507  0.3079
14939TIP3   OH266307   0.355   5.152  14.580  0.2961  0.2448 -0.1845
14939TIP3    H166308   0.348   5.144  14.675  1.2340  0.3794 -0.1010
14939TIP3    H266309   0.449   5.146  14.562  0.3139  2.1933 -0.9310
14940TIP3   OH266310   5.944   4.350  13.708  0.2516 -0.2367  0.2701
14940TIP3    H166311   5.992   4.267  13.699  0.3605 -0.2539  0.9394
14940TIP3    H266312   5.862   4.324  13.750  0.4266  0.0324  0.7895
14941TIP3   OH266313   3.365   4.234   5.626 -0.1262  0.4978  0.5878
14941TIP3    H166314   3.449   4.235   5.671 -0.8785 -0.7433  2.1054
14941TIP3    H266315   3.377   4.173   5.553  0.5224  1.0022  0.2608
14942TIP3   OH266316   5.231   5.567   0.110  0.0946  0.1253 -0.5155
14942TIP3    H166317   5.232   5.629   0.183 -1.6941 -1.3689  0.8819
14942TIP3    H266318   5.306   5.510   0.125 -0.8783 -0.8445  0.8234
14943TIP3   OH266319   0.356   6.115  11.121  0.2414  0.5347 -0.5503
14943TIP3    H166320   0.348   6.055  11.195 -0.3598  0.6907 -0.4780
14943TIP3    H266321   0.432   6.169  11.142 -0.6219  1.3772  0.5656
14944TIP3   OH266322   4.031   2.589   3.453 -0.0660 -0.7896  0.3583
14944TIP3    H166323   4.000   2.506   3.418  1.0198 -1.7399  1.5688
14944TIP3    H266324   4.017   2.583   3.547 -2.3261  1.4516  0.2743
14945TIP3   OH266325   2.146   0.032   5.096  0.6210  1.0854  0.9310
14945TIP3    H166326   2.196  -0.049   5.107  1.1211  1.1563 -0.5987
14945TIP3    H266327   2.135   0.065   5.185 -0.7785 -1.3352  1.7558
14946TIP3   OH266328   2.121   0.955   1.211  0.5626  0.0309 -0.4364
14946TIP3    H166329   2.118   1.049   1.193 -0.6774  0.4161  1.4798
14946TIP3    H266330   2.161   0.948   1.298  1.0491 -1.2501 -0.7423
14947TIP3   OH266331   4.672   4.970  12.581 -0.3803  0.2068  0.2853
14947TIP3    H166332   4.647   4.927  12.663 -1.9039  1.5122  0.5605
14947TIP3    H266333   4.591   5.010  12.549  0.1124 -0.4765 -2.0272
14948TIP3   OH266334   0.246   4.920  15.422  0.2602  0.1076 -0.3621
14948TIP3    H166335   0.221   4.931  15.330  0.7979 -0.6061 -0.6038
14948TIP3    H266336   0.340   4.901  15.419  0.4571  0.9248  0.4000
14949TIP3   OH266337   2.168   5.563  13.686  0.0854  0.2159  0.3651
14949TIP3    H166338   2.249   5.607  13.708  0.5166 -1.2288  1.8772
14949TIP3    H266339   2.180   5.534  13.595  1.5058 -0.4536  0.7377
14950TIP3   OH266340   4.032   1.885  14.182 -0.4524 -0.0917 -0.1899
14950TIP3    H166341   4.048   1.791  14.172 -1.9767 -0.4670  0.6045
14950TIP3    H266342   3.967   1.905  14.114  0.2342  0.5018 -0.6769
14951TIP3   OH266343   2.018   6.589  12.227  0.4407 -0.1043 -1.1425
14951TIP3    H166344   2.028   6.496  12.245  0.0462  0.4685  3.2049
14951TIP3    H266345   1.927   6.599  12.198  0.2695 -1.0045 -0.9265
14952TIP3   OH266346   2.864   1.830   5.811 -0.0024  0.9140 -0.3217
14952TIP3    H166347   2.907   1.812   5.727  1.4865  1.7592  0.2213
14952TIP3    H266348   2.928   1.801   5.877 -1.1232  0.3168  0.5421
14953TIP3   OH266349   5.441   1.987  11.518 -0.2869  0.2163 -0.1002
14953TIP3    H166350   5.438   1.948  11.605 -2.2905 -1.1567 -0.7280
14953TIP3    H266351   5.529   1.966  11.485  0.5699  0.9190  1.5989
14954TIP3   OH266352   4.452   3.678  13.345  0.1510  0.9724  0.0046
14954TIP3    H166353   4.469   3.622  13.420  0.6375 -0.8178 -1.3773
14954TIP3    H266354   4.531   3.731  13.336  0.8426 -0.0908 -0.3031
14955TIP3   OH266355   3.734   6.291   0.859  0.2223 -0.1569  0.0871
14955TIP3    H166356   3.680   6.327   0.789 -0.5122 -1.2756  0.0502
14955TIP3    H266357   3.820   6.331   0.846  0.0873 -0.3089 -1.4291
14956TIP3   OH266358   2.055   3.119  12.744 -0.3577  0.0812 -0.4494
14956TIP3    H166359   2.026   3.048  12.687 -1.1264 -0.1475  0.1983
14956TIP3    H266360   2.116   3.169  12.690 -1.4178  0.1578 -1.6588
14957TIP3   OH266361   3.359   1.417   4.215  0.1281  0.0241 -0.4720
14957TIP3    H166362   3.356   1.500   4.262 -0.8986  0.1970 -0.8331
14957TIP3    H266363   3.349   1.441   4.123 -0.4407 -0.5215 -0.5554
14958TIP3   OH266364   2.497   1.483  11.928 -0.3946 -0.0207 -0.2128
14958TIP3    H166365   2.558   1.511  11.996 -0.7354  0.7670 -0.2316
14958TIP3    H266366   2.422   1.541  11.937  0.1980  1.1512 -2.2581
14959TIP3   OH266367   1.230   0.820  15.115  0.4258  0.8250  0.3106
14959TIP3    H166368   1.139   0.792  15.121  0.2797  1.1555 -0.2680
14959TIP3    H266369   1.274   0.774  15.187 -0.0520  0.1141  0.1612
14960TIP3   OH266370   6.516   2.782  11.481  0.0386  0.0231  0.5061
14960TIP3    H166371   6.570   2.704  11.477  0.1613  0.1110  0.4303
14960TIP3    H266372   6.512   2.804  11.574  0.3536  0.1659  0.4883
14961TIP3   OH266373   0.427   4.499   0.107  0.0381 -0.1441 -0.2386
14961TIP3    H166374   0.350   4.448   0.083  0.7117 -0.5419 -1.6714
14961TIP3    H266375   0.423   4.577   0.051  0.5764 -0.0726 -0.1850
14962TIP3   OH266376   4.375   4.769   0.941  0.2717 -0.1535 -0.1195
14962TIP3    H166377   4.452   4.776   0.997 -0.5425  1.8896  0.8698
14962TIP3    H266378   4.395   4.824   0.865  0.2208 -0.5117 -0.3950
14963TIP3   OH266379   0.801   5.693   1.393 -0.2302  0.0378  0.2566
14963TIP3    H166380   0.773   5.632   1.325 -1.4820  0.4215  0.3859
14963TIP3    H266381   0.805   5.778   1.349 -0.3330  0.1665  0.4928
14964TIP3   OH266382   4.872   3.353  11.055  0.5964  0.0447  0.1854
14964TIP3    H166383   4.827   3.270  11.042 -1.2887  0.7877  1.4558
14964TIP3    H266384   4.866   3.397  10.970  1.1099 -0.8580 -0.3336
14965TIP3   OH266385   1.031   1.816   0.051  0.0333  0.2673 -1.0692
14965TIP3    H166386   1.099   1.766   0.006  0.0419  1.1782 -2.1319
14965TIP3    H266387   1.079   1.879   0.104  0.0729  1.2780 -2.2403
14966TIP3   OH266388   0.425   5.192  11.638  0.1785  0.7066  0.1062
14966TIP3    H166389   0.488   5.223  11.704 -0.4827  2.3571  0.0227
14966TIP3    H266390   0.463   5.111  11.604  1.7206  1.0957  0.8231
14967TIP3   OH266391   3.198   5.744  12.349  0.1781  0.1996  0.0845
14967TIP3    H166392   3.122   5.700  12.389 -0.0814 -0.1242 -0.7439
14967TIP3    H266393   3.214   5.695  12.269 -0.1210  1.6193 -0.8813
14968TIP3   OH266394   2.603   1.268  13.795  0.2910 -0.0653 -0.8452
14968TIP3    H166395   2.580   1.360  13.807 -1.2240 -0.3786 -1.0787
14968TIP3    H266396   2.528   1.220  13.831  0.1230 -1.1662 -2.5545
14969TIP3   OH266397   4.266   0.280  14.675  0.2474 -0.7525 -0.1488
14969TIP3    H166398   4.261   0.262  14.581 -0.0714  1.0399 -0.5263
14969TIP3    H266399   4.192   0.232  14.712 -2.9052  2.4623 -1.6160
14970TIP3   OH266400   2.599   1.668  10.755  0.2617  0.6429  0.6220
14970TIP3    H166401   2.678   1.622  10.784 -0.4031 -0.4937  0.6987
14970TIP3    H266402   2.615   1.689  10.663 -0.0908 -1.3577  0.0429
14971TIP3   OH266403   2.828   5.195   0.496 -0.4290  0.2533 -0.3833
14971TIP3    H166404   2.813   5.207   0.402 -4.0521  0.0781  0.0348
14971TIP3    H266405   2.747   5.154   0.528  0.8318 -0.0209  2.7804
14972TIP3   OH266406   1.757   1.441   1.877 -0.3972 -0.6919 -0.2960
14972TIP3    H166407   1.663   1.422   1.870 -0.7075  0.9785 -1.0574
14972TIP3    H266408   1.792   1.424   1.790 -0.5706  1.4257 -0.8296
14973TIP3   OH266409   3.315   6.558   4.244 -0.3842  1.2603  0.5063
14973TIP3    H166410   3.403   6.593   4.234  0.2456  0.0008  1.4706
14973TIP3    H266411   3.327   6.463   4.248 -1.5148  1.1502  3.0004
14974TIP3   OH266412   5.822   4.804   4.184 -0.1726 -0.0702 -0.0285
14974TIP3    H166413   5.755   4.842   4.128 -2.1167  2.4634  3.6557
14974TIP3    H266414   5.870   4.879   4.219  1.2988 -1.5399  1.2975
14975TIP3   OH266415   6.227   2.040  15.963  1.1019  0.5303 -0.3296
14975TIP3    H166416   6.295   2.096  15.926  0.8833  1.5907  0.7995
14975TIP3    H266417   6.253   2.028  16.055 -0.1067  0.7676  0.0558
14976TIP3   OH266418   4.301   0.177  15.232 -0.1095  0.1206 -0.0544
14976TIP3    H166419   4.258   0.262  15.236  1.1799  0.7991 -0.1116
14976TIP3    H266420   4.375   0.190  15.172  1.0657 -0.5848  1.1839
14977TIP3   OH266421   2.891   5.996   0.209  0.6194 -0.0768 -0.2591
14977TIP3    H166422   2.836   6.052   0.264  0.3989 -1.3720  0.8753
14977TIP3    H266423   2.904   5.917   0.260  1.6264 -0.7390 -1.4867
14978TIP3   OH266424   0.888   5.112  14.787 -0.3831 -0.1357 -0.7587
14978TIP3    H166425   0.881   5.068  14.872 -1.3775  2.9632  0.9072
14978TIP3    H266426   0.979   5.142  14.783 -0.6544  0.7990 -0.1676
14979TIP3   OH266427   3.048   3.295   6.106  0.2523 -0.4119  0.1265
14979TIP3    H166428   3.080   3.206   6.092  0.1027 -0.5704  0.7934
14979TIP3    H266429   3.047   3.334   6.018  0.1644 -1.1144 -0.1890
14980TIP3   OH266430   5.248   4.804   5.581  0.6357 -0.2235 -0.0131
14980TIP3    H166431   5.179   4.862   5.614 -0.0680 -0.7287 -0.5477
14980TIP3    H266432   5.328   4.857   5.584 -0.1366  1.1133 -1.3436
14981TIP3   OH266433   0.565   3.844  11.323 -0.0053 -0.1440 -0.4087
14981TIP3    H166434   0.560   3.920  11.265 -2.3204 -0.7250 -1.0638
14981TIP3    H266435   0.531   3.771  11.270 -0.9754 -0.9635  1.2624
14982TIP3   OH266436   0.891   1.413   0.401 -0.0730 -0.2811  0.1089
14982TIP3    H166437   0.860   1.492   0.356 -3.4157  0.6932  3.6412
14982TIP3    H266438   0.837   1.342   0.365 -1.8990  0.2968  1.5626
14983TIP3   OH266439   2.668   3.679  12.105  0.0138 -0.6370 -1.1885
14983TIP3    H166440   2.649   3.771  12.087 -0.0121 -0.9121 -2.6339
14983TIP3    H266441   2.588   3.633  12.083 -0.8497 -0.8143  1.8224
14984TIP3   OH266442   6.159   0.490   3.950  0.3056  0.0033 -0.6508
14984TIP3    H166443   6.105   0.448   4.017  1.4594  1.1569  1.0454
14984TIP3    H266444   6.204   0.560   3.995  1.2771  0.7080 -2.6131
14985TIP3   OH266445   2.442   3.810   5.228 -0.3317  0.2101  1.3649
14985TIP3    H166446   2.473   3.749   5.160 -0.3354 -0.0279  1.5758
14985TIP3    H266447   2.486   3.782   5.308  0.2295  0.9419  1.3223
14986TIP3   OH266448   0.954   4.616   5.795 -0.0881 -0.7413  0.3795
14986TIP3    H166449   0.885   4.572   5.745  0.3199 -0.1534 -0.7389
14986TIP3    H266450   1.027   4.553   5.795  0.0049 -0.6394 -0.0178
14987TIP3   OH266451   4.853   1.154   5.332  0.0495 -0.6655  0.1844
14987TIP3    H166452   4.824   1.190   5.416  0.0953 -0.6411  0.1896
14987TIP3    H266453   4.804   1.073   5.322 -1.2625  0.1676 -0.5630
14988TIP3   OH266454   6.532   0.790  11.954  0.8385  0.3385  0.6427
14988TIP3    H166455   6.554   0.871  11.908 -0.4176  1.1449  1.4119
14988TIP3    H266456   6.592   0.789  12.029  1.0335  0.4221  0.4885
14989TIP3   OH266457   6.306   0.854   2.937  0.3680  0.0617  0.1937
14989TIP3    H166458   6.282   0.836   3.028  1.0845  1.5249  0.7223
14989TIP3    H266459   6.328   0.948   2.937  0.7526 -0.0018 -1.4077
14990TIP3   OH266460   6.799   1.615   3.961 -0.7806  0.3844  0.3462
14990TIP3    H166461   6.846   1.623   4.044 -0.1318 -1.3618  0.1818
14990TIP3    H266462   6.718   1.665   3.975  0.3584  2.0825  1.1887
14991TIP3   OH266463   1.919   0.706  16.009  0.1671  0.3193 -0.4718
14991TIP3    H166464   1.986   0.769  16.036  0.8060 -0.2825 -0.6265
14991TIP3    H266465   1.894   0.661  16.090 -2.1435  2.4637  0.1215
14992TIP3   OH266466   5.360   3.591   3.864  0.2252  0.2156 -0.0253
14992TIP3    H166467   5.396   3.583   3.776 -1.0384  2.4430 -0.8123
14992TIP3    H266468   5.271   3.622   3.851  0.3363  1.6116  2.0452
14993TIP3   OH266469   3.217   5.447   4.345 -0.2426 -0.1574  0.5109
14993TIP3    H166470   3.294   5.468   4.291  1.0277 -0.7734  2.0009
14993TIP3    H266471   3.145   5.492   4.302  1.4985  3.3856  0.9541
14994TIP3   OH266472   6.642   2.876   2.928  0.0630 -0.1713  0.3419
14994TIP3    H166473   6.615   2.935   2.858  0.0218  2.1105  2.1813
14994TIP3    H266474   6.560   2.842   2.964 -0.0289  0.6231  0.8893
14995TIP3   OH266475   6.545   1.888   1.202 -0.6670 -0.0838 -0.2403
14995TIP3    H166476   6.511   1.936   1.127 -2.3730 -1.4732 -0.4360
14995TIP3    H266477   6.467   1.856   1.247  0.3439 -0.1528  1.5483
14996TIP3   OH266478   4.572   1.696   3.359 -0.2360 -0.8653  0.0837
14996TIP3    H166479   4.562   1.735   3.273  0.5709  0.0779  0.3883
14996TIP3    H266480   4.512   1.745   3.415 -0.0184 -0.7895  0.2523
14997TIP3   OH266481   1.624   6.673  11.868  0.6086 -0.3815 -0.2061
14997TIP3    H166482   1.536   6.636  11.857  1.2770 -1.8264 -1.0016
14997TIP3    H266483   1.655   6.687  11.779  1.0410  0.5161  0.0762
14998TIP3   OH266484   4.415   3.032   4.715  0.4989  0.3311  0.1048
14998TIP3    H166485   4.338   3.083   4.741  0.2003  0.0704 -0.2452
14998TIP3    H266486   4.431   2.974   4.789  2.3830  2.6021  1.6218
14999TIP3   OH266487   4.650   2.908   2.772 -0.4539  0.2758 -0.2329
14999TIP3    H166488   4.580   2.952   2.725 -0.8936  0.8419  0.8998
14999TIP3    H266489   4.616   2.821   2.792 -1.1476  0.7824  0.9221
15000TIP3   OH266490   3.612   5.458   4.853 -0.5211 -0.0468 -0.3923
15000TIP3    H166491   3.681   5.396   4.830 -0.7810 -1.8038  2.9182
15000TIP3    H266492   3.655   5.519   4.913 -1.3652  0.0251  0.1536
15001TIP3   OH266493   3.346   0.279   2.120  0.1366  0.4454 -0.0478
15001TIP3    H166494   3.373   0.233   2.199  2.4337  1.4320 -0.1660
15001TIP3    H266495   3.298   0.356   2.152 -1.3656 -0.5620  0.2307
15002TIP3   OH266496   5.113   1.595   3.427 -0.5874  0.0898  0.5057
15002TIP3    H166497   5.040   1.609   3.367  0.3738 -0.5896 -0.8935
15002TIP3    H266498   5.095   1.511   3.469 -1.1361  0.4440  0.9878
15003TIP3   OH266499   0.714   6.538  12.638 -0.7092 -0.1270 -0.0386
15003TIP3    H166500   0.630   6.523  12.596 -0.3681 -3.5760  0.2474
15003TIP3    H266501   0.692   6.577  12.723 -1.7812  1.3940 -0.9800
15004TIP3   OH266502   4.385   6.433  16.465  0.4607 -0.4630 -0.6153
15004TIP3    H166503   4.304   6.383  16.464  0.0960  0.1337 -1.2159
15004TIP3    H266504   4.432   6.406  16.387 -0.6040  1.4981 -2.0145
15005TIP3   OH266505   2.867   5.680   0.063  0.0232  0.3917 -0.7732
15005TIP3    H166506   2.803   5.670   0.134  0.8882 -0.3354 -0.0814
15005TIP3    H266507   2.832   5.626  -0.009 -0.1412 -0.0075 -0.3974
15006TIP3   OH266508   5.503   3.683  14.283  0.4928 -0.3229 -0.3401
15006TIP3    H166509   5.431   3.643  14.234  0.4374 -0.1288 -0.4207
15006TIP3    H266510   5.573   3.619  14.280  1.5312  0.7782 -3.1335
15007TIP3   OH266511   1.288   3.371   2.867  0.3222  0.2412  0.0683
15007TIP3    H166512   1.251   3.447   2.823  1.5905  0.7457 -0.1634
15007TIP3    H266513   1.302   3.307   2.797 -1.7753 -0.6856  0.4113
15008TIP3   OH266514   5.584   0.134  12.556  0.2274 -0.3842 -0.1085
15008TIP3    H166515   5.596   0.181  12.639  0.2039 -1.4586  0.5157
15008TIP3    H266516   5.510   0.076  12.572  0.3721 -0.7652 -0.8093
15009TIP3   OH266517   2.848   3.809   2.176 -0.3423 -0.6505 -0.0706
15009TIP3    H166518   2.764   3.847   2.151 -0.2840  0.6296  1.5263
15009TIP3    H266519   2.894   3.797   2.092 -1.3752  0.4342 -0.8302
15010TIP3   OH266520   5.142   1.718   0.424  0.1721  0.1524 -0.6386
15010TIP3    H166521   5.092   1.727   0.505  0.2131 -1.4104 -0.4054
15010TIP3    H266522   5.105   1.784   0.365 -0.0853  1.0810  0.5235
15011TIP3   OH266523   0.942   0.130   3.738  0.5015  0.0674  0.0950
15011TIP3    H166524   0.850   0.155   3.742  0.9426  1.6224  2.2126
15011TIP3    H266525   0.941   0.035   3.748 -0.7994  0.3424  4.3997
15012TIP3   OH266526   6.602   3.966   4.749  0.3632  0.2014 -0.1857
15012TIP3    H166527   6.579   3.878   4.781 -1.9419  1.1221  0.8948
15012TIP3    H266528   6.566   3.969   4.661 -1.6325  0.7569  0.5847
15013TIP3   OH266529   3.705   0.242   2.706 -0.2585 -0.3661 -0.0941
15013TIP3    H166530   3.787   0.256   2.752  0.1281  0.3811 -0.9778
15013TIP3    H266531   3.641   0.223   2.775  0.3837  0.3168  0.6962
15014TIP3   OH266532   4.149   0.108  13.079  0.0096 -0.4248  1.2408
15014TIP3    H166533   4.096   0.098  13.158 -0.4690 -0.0607  0.9682
15014TIP3    H266534   4.085   0.122  13.009  0.4880  0.5226  0.9875
15015TIP3   OH266535   4.257   1.445  16.053  0.0442  0.0159  0.0179
15015TIP3    H166536   4.192   1.437  15.984  0.0739 -0.3322  0.0255
15015TIP3    H266537   4.325   1.382  16.029  0.7657  0.9333 -0.4106
15016TIP3   OH266538   3.698   3.876  15.692  0.2111 -0.2535 -0.2494
15016TIP3    H166539   3.658   3.799  15.733  1.5303 -0.3455  0.9150
15016TIP3    H266540   3.627   3.913  15.639 -1.2098 -0.7987  1.1769
15017TIP3   OH266541   4.671   0.941   1.313  0.1574 -0.1782 -0.1985
15017TIP3    H166542   4.753   0.956   1.361  0.6339  1.7942 -1.4600
15017TIP3    H266543   4.674   0.849   1.288  1.4318 -0.4290  0.7704
15018TIP3   OH266544   3.345   4.885   1.904  0.2894 -0.0443  0.3867
15018TIP3    H166545   3.344   4.850   1.993 -0.7101  1.3612  0.9704
15018TIP3    H266546   3.271   4.841   1.861  1.2008 -1.2481  0.0096
15019TIP3   OH266547   0.778   3.633  12.673  0.8302  0.4938 -0.6360
15019TIP3    H166548   0.781   3.587  12.590  0.5427 -0.3065 -0.2164
15019TIP3    H266549   0.864   3.676  12.680  1.3378 -0.4551 -0.7805
15020TIP3   OH266550   3.253   4.848  14.282 -0.5846 -0.1110  0.0543
15020TIP3    H166551   3.260   4.937  14.246 -0.5245 -0.7705 -1.6514
15020TIP3    H266552   3.179   4.853  14.343  0.1126  1.3603  0.8385
15021TIP3   OH266553   3.284   3.032  15.996  0.2391 -1.1656  0.1589
15021TIP3    H166554   3.290   3.073  16.082 -0.0358  0.4129 -0.5280
15021TIP3    H266555   3.332   3.092  15.938 -1.6561 -0.8674 -1.2016
15022TIP3   OH266556   5.124   6.049   0.157 -0.9127  0.9331  0.0085
15022TIP3    H166557   5.093   5.980   0.216 -0.4130  1.2130  0.6169
15022TIP3    H266558   5.105   6.017   0.070 -0.2755 -0.1955  0.2638
15023TIP3   OH266559   4.341   6.807  14.688 -0.1167  0.2428 -0.6176
15023TIP3    H166560   4.359   6.824  14.596  0.6234 -0.0977 -0.5385
15023TIP3    H266561   4.262   6.753  14.687 -0.5114  0.8082 -1.0119
15024TIP3   OH266562   0.952   5.509   0.260  0.3128 -0.4554  0.2637
15024TIP3    H166563   0.865   5.532   0.292 -0.0675  1.1739 -1.6713
15024TIP3    H266564   0.947   5.524   0.165  2.1040 -2.3567 -0.2147
15025TIP3   OH266565   0.534   6.787  13.289  0.3299  0.2869 -0.1433
15025TIP3    H166566   0.583   6.836  13.356  0.0674 -1.4349  1.3963
15025TIP3    H266567   0.581   6.704  13.282 -2.2174 -1.4209  1.3591
15026TIP3   OH266568   3.587   5.168  12.459  0.0273 -0.2562 -0.5823
15026TIP3    H166569   3.660   5.108  12.471  0.5466 -0.2152 -3.0589
15026TIP3    H266570   3.524   5.118  12.406  0.3728  1.2079 -2.5037
15027TIP3   OH266571   4.961   5.629   0.128  0.3741  0.6973  0.0350
15027TIP3    H166572   4.883   5.574   0.124  0.4856  0.5766 -2.6865
15027TIP3    H266573   5.033   5.569   0.108  0.7257  1.4147 -0.9449
15028TIP3   OH266574   4.182   1.573  15.182  0.2348  0.2554  0.3942
15028TIP3    H166575   4.274   1.549  15.191  0.2718  0.4658  0.5654
15028TIP3    H266576   4.176   1.663  15.215 -0.4539 -0.5202  2.5581
15029TIP3   OH266577   1.013   1.543   1.019 -0.3426 -0.0174  0.3266
15029TIP3    H166578   0.974   1.465   0.978  0.1149  0.3820 -0.9181
15029TIP3    H266579   0.980   1.616   0.967 -3.0048  0.9670  3.1498
15030TIP3   OH266580   2.190   5.813  11.281 -0.3157 -0.2506  0.1693
15030TIP3    H166581   2.121   5.878  11.270  0.7869  0.6369 -2.3522
15030TIP3    H266582   2.180   5.755  11.205  2.1744  0.4347 -0.7685
15031TIP3   OH266583   6.346   1.720  10.431  0.2661  0.1503 -0.2760
15031TIP3    H166584   6.383   1.720  10.343 -0.4765  1.3115 -0.6168
15031TIP3    H266585   6.256   1.751  10.419 -0.5459 -1.6782  0.6413
15032TIP3   OH266586   6.325   3.673   4.220  0.0206 -0.8930  0.5256
15032TIP3    H166587   6.252   3.644   4.167  0.5663 -0.9301 -0.2202
15032TIP3    H266588   6.403   3.658   4.166  0.3143  2.6552 -0.3170
15033TIP3   OH266589   1.126   1.987  12.206 -0.2252 -0.1763  0.4459
15033TIP3    H166590   1.133   1.926  12.134 -1.3749 -2.3940  2.0950
15033TIP3    H266591   1.175   1.946  12.278 -0.5542  1.0911  1.4444
15034TIP3   OH266592   6.827   1.044   1.059 -0.0396 -0.2803 -0.6042
15034TIP3    H166593   6.769   0.977   1.094 -1.8308  1.7508  0.5764
15034TIP3    H266594   6.909   1.031   1.107 -0.6986 -0.9464  0.3851
15035TIP3   OH266595   4.369   4.898  15.051  0.2070 -0.3113  0.7593
15035TIP3    H166596   4.340   4.975  15.099 -1.4054  0.6547 -1.5839
15035TIP3    H266597   4.406   4.933  14.970  1.0822 -1.9479  0.4142
15036TIP3   OH266598   3.671   4.368  12.808  0.6147  0.1107  0.7547
15036TIP3    H166599   3.668   4.272  12.811  0.8499  0.0620 -0.2029
15036TIP3    H266600   3.606   4.391  12.741  0.3117  0.6423  1.2281
15037TIP3   OH266601   6.789   0.568   2.601 -0.6169 -0.6795  0.3453
15037TIP3    H166602   6.757   0.482   2.574 -2.0240 -0.2662  0.6646
15037TIP3    H266603   6.718   0.628   2.580  0.4751  0.4693 -0.1722
15038TIP3   OH266604   2.015   5.324   3.284 -0.0943 -0.0750  0.0594
15038TIP3    H166605   2.069   5.350   3.358  0.5829  1.1266 -0.8126
15038TIP3    H266606   1.963   5.251   3.316  1.4387 -0.7236  1.1967
15039TIP3   OH266607   2.182   3.372  10.890 -0.2810  0.3016  0.2253
15039TIP3    H166608   2.173   3.403  10.800 -0.6282  0.3181  0.2617
15039TIP3    H266609   2.275   3.353  10.900 -0.3547 -0.4680 -0.3911
15040TIP3   OH266610   6.604   2.808  13.409 -0.1525  0.1951 -0.4075
15040TIP3    H166611   6.602   2.896  13.372 -0.7939  0.1596 -0.4697
15040TIP3    H266612   6.606   2.821  13.504 -3.2268  0.3243 -0.2503
15041TIP3   OH266613   2.041   1.823   1.406  0.0600 -0.1815 -0.5097
15041TIP3    H166614   2.011   1.779   1.486 -1.5482  0.7713 -0.5399
15041TIP3    H266615   2.020   1.915   1.421  1.6133  0.3268 -1.2220
15042TIP3   OH266616   5.269   2.942  16.075 -0.3772 -0.7082  0.0807
15042TIP3    H166617   5.257   2.849  16.089  1.3189 -0.8854  0.5816
15042TIP3    H266618   5.223   2.984  16.149 -1.3904 -1.1109 -0.3090
15043TIP3   OH266619   0.845   4.018  12.438 -0.1497 -0.0285 -0.6167
15043TIP3    H166620   0.889   4.057  12.514  0.6383  2.7456 -2.3291
15043TIP3    H266621   0.913   4.015  12.370 -1.5095  0.2600 -2.0434
15044TIP3   OH266622   4.222   0.681   4.124 -0.2412 -0.1136 -0.1326
15044TIP3    H166623   4.140   0.712   4.161  0.4489  2.0258 -0.2195
15044TIP3    H266624   4.290   0.717   4.181  0.7247  0.7373 -1.7241
15045TIP3   OH266625   0.790   0.140  12.259  0.2546 -0.0000 -0.3926
15045TIP3    H166626   0.722   0.206  12.273 -1.0291 -0.9065 -1.8901
15045TIP3    H266627   0.872   0.188  12.262 -0.5022  1.2713  0.7110
15046TIP3   OH266628   2.212   0.627  14.146  0.6294  0.4532  0.3869
15046TIP3    H166629   2.227   0.681  14.224 -0.4887  0.7474  0.4127
15046TIP3    H266630   2.268   0.550  14.159  1.2572  0.9935  0.9643
15047TIP3   OH266631   4.282   2.490   4.623  0.7102 -0.1040  0.6170
15047TIP3    H166632   4.290   2.404   4.664  0.2931 -0.0195  0.8853
15047TIP3    H266633   4.219   2.476   4.552 -0.3900  0.2622  1.4946
15048TIP3   OH266634   1.969   0.519   0.579  0.2465  0.1179  0.3260
15048TIP3    H166635   1.886   0.566   0.577 -0.1942 -0.6394  0.4433
15048TIP3    H266636   2.026   0.572   0.635 -0.8902 -0.5311  2.1750
15049TIP3   OH266637   5.415   2.598  10.976 -0.5122  0.0209 -0.0587
15049TIP3    H166638   5.433   2.653  10.899 -1.5837  0.2614 -0.1572
15049TIP3    H266639   5.495   2.603  11.028 -0.1711  0.7430 -0.6266
15050TIP3   OH266640   2.985   5.074  15.030  0.0482  0.2768  0.2198
15050TIP3    H166641   2.910   5.046  15.084  2.3058 -2.6681  2.1815
15050TIP3    H266642   3.028   5.141  15.082 -0.9586  1.7246 -0.7530
15051TIP3   OH266643   2.102   3.507   5.935  0.1702  0.1560  0.6450
15051TIP3    H166644   2.060   3.422   5.947 -0.2002  0.2786  0.2614
15051TIP3    H266645   2.071   3.559   6.010 -0.3856  0.2510  0.3534
15052TIP3   OH266646   3.917   3.256   5.828  0.7583  0.4031  0.0843
15052TIP3    H166647   3.879   3.344   5.830  2.0574  1.2101 -3.7284
15052TIP3    H266648   3.842   3.198   5.841 -0.6499  2.0306 -0.3531
15053TIP3   OH266649   1.888   1.488  15.967 -0.4793  0.1078 -0.3542
15053TIP3    H166650   1.913   1.580  15.961  0.1419  0.1302  1.7179
15053TIP3    H266651   1.962   1.441  15.929 -0.1644  0.4198 -0.1365
15054TIP3   OH266652   3.731   3.384   2.553  0.4949 -0.1540  1.1172
15054TIP3    H166653   3.773   3.406   2.469 -0.8250 -1.7015 -0.0114
15054TIP3    H266654   3.782   3.432   2.618  1.8608  0.7394 -0.5175
15055TIP3   OH266655   0.439   1.309   4.219  0.1963 -0.0424  0.0151
15055TIP3    H166656   0.485   1.339   4.141  0.3574 -0.4606 -0.0557
15055TIP3    H266657   0.349   1.340   4.207  0.4708  0.8324  0.1862
15056TIP3   OH266658   4.614   0.361  13.153  0.4651  0.1449 -0.0272
15056TIP3    H166659   4.612   0.429  13.220  2.0191 -0.5115  0.7307
15056TIP3    H266660   4.541   0.303  13.175  0.6834  0.1832  0.8397
15057TIP3   OH266661   0.239   0.353  14.053 -0.3883 -0.2104 -0.5905
15057TIP3    H166662   0.300   0.319  13.988  0.3093  1.1074 -0.6609
15057TIP3    H266663   0.202   0.275  14.094  1.4366 -1.0607 -0.4423
15058TIP3   OH266664   3.421   5.740  16.686  0.2469  0.2290  0.5139
15058TIP3    H166665   3.326   5.740  16.696  0.2460  0.7216  0.5397
15058TIP3    H266666   3.439   5.815  16.629  0.6141  0.1036  0.4628
15059TIP3   OH266667   4.130   6.054   0.230  0.3125 -0.1611  0.0751
15059TIP3    H166668   4.162   6.071   0.318 -0.7700 -1.5963  0.7867
15059TIP3    H266669   4.037   6.079   0.233 -0.1981 -1.9317 -0.0915
15060TIP3   OH266670   3.757   3.149  13.436  0.5179  0.4289  0.4137
15060TIP3    H166671   3.747   3.057  13.462  0.3986  0.2812 -0.1434
15060TIP3    H266672   3.713   3.155  13.352  0.2577  1.0735  0.5908
15061TIP3   OH266673   0.228   6.759   0.376 -0.3845 -0.5899  0.2366
15061TIP3    H166674   0.204   6.666   0.380 -0.7808 -0.5441 -0.6995
15061TIP3    H266675   0.155   6.800   0.331 -0.2224  0.1925  0.6728
15062TIP3   OH266676   0.886   3.013   2.626 -0.3460  0.4263 -0.3081
15062TIP3    H166677   0.842   3.035   2.544 -1.7557  1.4763  0.6844
15062TIP3    H266678   0.821   2.964   2.676  0.3281  0.2212  0.3817
15063TIP3   OH266679   1.663   0.315   3.860  0.4887  0.2441 -0.0169
15063TIP3    H166680   1.624   0.228   3.872  0.2811  0.3288 -0.0782
15063TIP3    H266681   1.733   0.301   3.796 -0.2666  0.3247 -0.8846
15064TIP3   OH266682   0.376   3.808   1.676  0.4359  0.0197 -0.9084
15064TIP3    H166683   0.410   3.858   1.751  0.4749  1.3198 -1.7529
15064TIP3    H266684   0.285   3.788   1.699  0.0643  1.4879 -1.0026
15065TIP3   OH266685   5.577   3.400  11.891  0.1665 -0.0708  0.0916
15065TIP3    H166686   5.518   3.444  11.830  0.1541  0.1565  0.2653
15065TIP3    H266687   5.579   3.309  11.861 -0.1261 -0.0396 -0.0269
15066TIP3   OH266688   5.229   2.102  15.109 -0.3735 -0.0907 -0.6557
15066TIP3    H166689   5.171   2.027  15.119 -0.4943 -0.1972 -2.0187
15066TIP3    H266690   5.301   2.085  15.170 -0.5046 -1.2064 -0.7999
15067TIP3   OH266691   1.391   3.908   6.255  0.1668 -0.2293 -0.7528
15067TIP3    H166692   1.459   3.858   6.299  1.3846  2.6410  0.8208
15067TIP3    H266693   1.437   3.974   6.204 -1.3890  1.3069 -0.2762
15068TIP3   OH266694   2.801   0.586   4.500 -0.5290  0.1539  0.3797
15068TIP3    H166695   2.892   0.601   4.525 -0.7411  2.0360  0.1689
15068TIP3    H266696   2.765   0.673   4.486 -2.3941 -0.5444  0.5107
15069TIP3   OH266697   5.002   2.944  14.971  0.1033 -0.3588  0.0191
15069TIP3    H166698   5.023   2.967  15.062  2.8927  3.3692 -1.3208
15069TIP3    H266699   4.931   3.004  14.948  1.2434  0.6781 -0.9396
15070TIP3   OH266700   3.966   4.528  12.986  0.3258 -0.9514 -0.2523
15070TIP3    H166701   3.981   4.619  12.961  1.3592 -1.6025 -2.3260
15070TIP3    H266702   3.955   4.529  13.081  1.6026  1.1780 -0.0734
15071TIP3   OH266703   2.221   5.825   2.620 -0.8222 -0.2078 -1.0988
15071TIP3    H166704   2.227   5.905   2.568  0.1559  0.2637 -0.2987
15071TIP3    H266705   2.132   5.824   2.654  0.1272  2.5295  1.9030
15072TIP3   OH266706   6.469   1.213  13.484  0.1571  0.1430  0.3290
15072TIP3    H166707   6.510   1.242  13.402  1.8511  0.7469  1.3381
15072TIP3    H266708   6.502   1.124  13.496 -1.3598 -0.5513 -0.4156
15073TIP3   OH266709   0.306   6.078  13.734  0.6194 -0.6674 -0.2772
15073TIP3    H166710   0.375   6.071  13.800 -0.9983 -0.0313  1.5741
15073TIP3    H266711   0.280   5.988  13.716 -0.5040 -0.7985  1.7661
15074TIP3   OH266712   6.686   3.825  13.277  0.1679  0.2057  0.0352
15074TIP3    H166713   6.743   3.891  13.237 -0.3140  1.0307  0.6716
15074TIP3    H266714   6.611   3.875  13.309 -0.6926 -0.8003 -0.3710
15075TIP3   OH266715   0.714   4.865   4.422  0.2309  0.2880  0.1914
15075TIP3    H166716   0.784   4.924   4.394 -0.0624 -0.2833 -1.9070
15075TIP3    H266717   0.752   4.777   4.413 -0.7489 -0.0334 -1.0576
15076TIP3   OH266718   1.258   1.787  17.001  0.3581  0.1734 -0.0709
15076TIP3    H166719   1.280   1.880  16.994  0.6458  0.0030 -2.4282
15076TIP3    H266720   1.284   1.750  16.916  1.1152 -2.2553  1.1233
15077TIP3   OH266721   5.451   3.364  14.710  0.6480  0.7516  0.4761
15077TIP3    H166722   5.369   3.355  14.660  1.2302 -1.0103 -0.2418
15077TIP3    H266723   5.431   3.428  14.778 -1.0024  1.1689 -0.3577
15078TIP3   OH266724   6.020   2.048  13.948  0.3469 -0.1203 -0.1958
15078TIP3    H166725   5.972   1.966  13.936 -0.0920 -0.1659  1.6552
15078TIP3    H266726   6.002   2.074  14.038  1.5541  1.3319 -0.3333
15079TIP3   OH266727   5.081   0.460   2.233 -0.3018  0.2728 -0.1630
15079TIP3    H166728   5.063   0.535   2.177 -0.4852  1.6532  1.6581
15079TIP3    H266729   4.999   0.410   2.234 -1.3184  1.8380  1.1468
15080TIP3   OH266730   0.340   2.275  15.365  0.1392 -0.1610  0.1400
15080TIP3    H166731   0.432   2.285  15.391  0.6055 -1.4528 -0.8998
15080TIP3    H266732   0.319   2.357  15.319  0.3204  0.7276  1.5934
15081TIP3   OH266733   1.622   6.122   1.585  0.7410 -0.1638  0.1901
15081TIP3    H166734   1.551   6.098   1.646 -0.9460  0.7661 -1.3243
15081TIP3    H266735   1.673   6.041   1.576 -0.7302 -1.1858  0.5207
15082TIP3   OH266736   0.183   0.895  12.193 -0.1846  0.2566  0.1757
15082TIP3    H166737   0.122   0.822  12.178  1.3445 -1.1254  0.3737
15082TIP3    H266738   0.267   0.862  12.162  0.5631  1.9461  0.3303
15083TIP3   OH266739   1.980   3.263   5.695 -0.7910 -0.1972 -0.2070
15083TIP3    H166740   2.004   3.194   5.633 -0.3400 -0.1135 -0.1283
15083TIP3    H266741   1.943   3.216   5.770  0.8872 -0.4714  0.4941
15084TIP3   OH266742   1.708   5.573   0.850 -0.2958  0.7867 -0.7548
15084TIP3    H166743   1.686   5.645   0.790 -0.8723 -1.0151 -2.8348
15084TIP3    H266744   1.627   5.558   0.899 -0.6211  0.6773 -1.3066
15085TIP3   OH266745   3.833   4.409   6.241 -0.1973 -0.0432  0.2430
15085TIP3    H166746   3.784   4.347   6.295  0.0378  0.1205  0.6510
15085TIP3    H266747   3.836   4.489   6.294  0.6449 -0.1012  0.2901
15086TIP3   OH266748   0.827   0.515   1.295  0.2131 -0.4179  0.4349
15086TIP3    H166749   0.818   0.428   1.334 -0.1402 -0.3583  0.4960
15086TIP3    H266750   0.740   0.554   1.305 -0.3466 -0.9833 -1.8217
15087TIP3   OH266751   0.930   4.200  15.370  0.1433 -0.3937  0.3516
15087TIP3    H166752   0.882   4.120  15.389 -0.7437  0.0775  0.1539
15087TIP3    H266753   0.982   4.179  15.292  0.2766 -0.9085  0.5720
15088TIP3   OH266754   2.962   0.738   6.404  0.2247 -0.2210  0.3659
15088TIP3    H166755   3.055   0.732   6.426  0.6206 -0.6541 -1.2492
15088TIP3    H266756   2.960   0.731   6.308 -1.5165 -0.7523  0.4120
15089TIP3   OH266757   5.019   4.812  13.680 -0.1475  0.2447 -0.4818
15089TIP3    H166758   5.090   4.759  13.716 -0.5346  0.1227  0.1152
15089TIP3    H266759   4.946   4.752  13.671 -0.0074  0.2227 -1.6873
15090TIP3   OH266760   2.768   4.814   1.457  0.3182 -0.2767  0.3190
15090TIP3    H166761   2.688   4.852   1.493  0.1637  1.4065 -1.6438
15090TIP3    H266762   2.830   4.887   1.453  0.6289 -0.5935 -1.8316
15091TIP3   OH266763   5.038   0.012  12.759 -0.1578 -0.1100 -0.0338
15091TIP3    H166764   5.130   0.025  12.783 -0.1155 -0.4644  0.0093
15091TIP3    H266765   5.029   0.053  12.673  0.4144 -1.3623 -0.7114
15092TIP3   OH266766   3.452   6.206   1.322  0.0490  0.3823 -0.1491
15092TIP3    H166767   3.518   6.199   1.253  0.8392 -0.7744  0.6814
15092TIP3    H266768   3.498   6.180   1.402 -0.9923  1.1568  0.7356
15093TIP3   OH266769   6.700   1.615  11.530 -0.1432  0.2309 -0.3935
15093TIP3    H166770   6.664   1.652  11.450 -2.2307 -0.2239  0.2753
15093TIP3    H266771   6.624   1.587  11.581  1.1655 -0.8313  1.1180
15094TIP3   OH266772   6.499   1.622   6.237  0.0632  0.7159  0.6687
15094TIP3    H166773   6.508   1.717   6.230  0.0544  0.6361 -0.5559
15094TIP3    H266774   6.579   1.587   6.196 -0.1440  0.1918  0.7021
15095TIP3   OH266775   4.896   5.712   5.409 -0.3410  0.2004 -0.4495
15095TIP3    H166776   4.917   5.620   5.393 -1.8002 -0.2363 -0.0146
15095TIP3    H266777   4.881   5.749   5.322 -0.2627 -0.1181 -0.5993
15096TIP3   OH266778   4.407   0.273   2.003  0.1529 -0.3634 -0.0425
15096TIP3    H166779   4.464   0.247   2.075 -1.3985  0.4917  1.5762
15096TIP3    H266780   4.397   0.367   2.013  0.2517 -0.1406 -1.6925
15097TIP3   OH266781   6.095   4.122   0.464 -0.4388  0.6497  0.3805
15097TIP3    H166782   6.091   4.038   0.509  1.3983  0.4522  0.2599
15097TIP3    H266783   6.013   4.165   0.486 -0.9439 -0.7290  1.3348
15098TIP3   OH266784   0.460   4.595  16.171 -0.4015  0.5722 -0.1310
15098TIP3    H166785   0.444   4.508  16.136  2.6606  0.2760 -1.0866
15098TIP3    H266786   0.429   4.591  16.261 -1.5835 -1.0432 -0.5770
15099TIP3   OH266787   0.866   0.893   3.641  0.6654 -0.4001  0.6257
15099TIP3    H166788   0.885   0.818   3.698  1.8162  0.2200  1.0894
15099TIP3    H266789   0.821   0.855   3.566  0.1736 -1.3949  1.4037
15100TIP3   OH266790   1.454   5.842   3.422  0.0031  0.2014 -0.2878
15100TIP3    H166791   1.479   5.874   3.509 -0.9918 -1.6967  0.7607
15100TIP3    H266792   1.426   5.921   3.375  2.0468  1.5034  0.5262
15101TIP3   OH266793   2.943   6.006  11.836  0.3292  0.5322  0.0382
15101TIP3    H166794   2.995   5.939  11.792 -0.8791 -0.4532  0.0425
15101TIP3    H266795   3.005   6.075  11.858  1.8337 -1.0466  0.9982
15102TIP3   OH266796   2.126   1.789   2.847 -0.3084  0.2581 -0.6472
15102TIP3    H166797   2.034   1.812   2.835  0.1754  0.9172 -3.9276
15102TIP3    H266798   2.150   1.742   2.767  2.8128  2.2623 -1.0720
15103TIP3   OH266799   6.389   4.918  12.043  0.5300 -0.3133 -0.1815
15103TIP3    H166800   6.362   4.999  12.087  0.0453  0.4861 -1.8472
15103TIP3    H266801   6.480   4.933  12.017  1.0672 -1.0905  1.2004
15104TIP3   OH266802   3.388   4.014   5.484 -0.6525 -0.5541  0.3012
15104TIP3    H166803   3.377   3.995   5.391  0.1410 -1.0031  0.2809
15104TIP3    H266804   3.326   3.956   5.528 -2.1267  0.7531  0.0015
15105TIP3   OH266805   6.558   2.687  15.416  0.4080 -0.2097 -0.5343
15105TIP3    H166806   6.628   2.752  15.413  0.5832 -0.3049  0.8871
15105TIP3    H266807   6.604   2.603  15.417  0.4276 -0.2623  2.1419
15106TIP3   OH266808   1.738   1.778   3.425 -0.7699 -0.2874  0.0428
15106TIP3    H166809   1.807   1.826   3.470 -0.4677 -1.2447  0.6272
15106TIP3    H266810   1.656   1.818   3.456 -0.5271  1.8692 -1.7868
15107TIP3   OH266811   3.224   3.568   4.953 -0.2248  0.1039  0.1146
15107TIP3    H166812   3.181   3.605   5.030  0.8902 -0.3829  0.9960
15107TIP3    H266813   3.226   3.474   4.969 -0.5640 -0.0720 -0.8193
15108TIP3   OH266814   6.509   0.228  15.797 -0.2144 -0.3620  0.0378
15108TIP3    H166815   6.546   0.316  15.782 -1.1343  0.3763  1.8103
15108TIP3    H266816   6.491   0.195  15.709 -0.0628  1.3156 -0.6735
15109TIP3   OH266817   3.180   2.270   4.180 -0.2088 -0.0517 -0.1975
15109TIP3    H166818   3.236   2.298   4.252 -0.0079 -0.7745 -0.0643
15109TIP3    H266819   3.240   2.235   4.114 -0.4660 -0.3903 -0.2590
15110TIP3   OH266820   4.040   0.128  16.636 -0.3332 -0.3424 -0.2899
15110TIP3    H166821   4.112   0.183  16.669  0.6135 -1.6983 -0.0376
15110TIP3    H266822   3.974   0.191  16.606  0.5998  0.9321  0.2421
15111TIP3   OH266823   6.600   5.986   1.399  0.3238 -0.0221 -0.2312
15111TIP3    H166824   6.613   6.030   1.484  0.9958  1.2917 -0.9767
15111TIP3    H266825   6.530   6.036   1.357  0.1875 -0.4933 -0.5725
15112TIP3   OH266826   6.807   1.449   4.399  0.1368  0.4703 -0.5083
15112TIP3    H166827   6.720   1.421   4.428  0.0672 -1.3783 -2.2574
15112TIP3    H266828   6.790   1.513   4.330  0.2340  1.4214  0.3222
15113TIP3   OH266829   2.870   1.679   5.023 -0.1722  0.0518 -0.3064
15113TIP3    H166830   2.871   1.597   5.073  2.1708  1.0489  1.4444
15113TIP3    H266831   2.805   1.733   5.067  1.2679  0.6062  1.2307
15114TIP3   OH266832   0.237   0.955  12.764 -0.1623  0.3676  0.3209
15114TIP3    H166833   0.312   1.009  12.788 -0.5147  1.0869 -0.1596
15114TIP3    H266834   0.162   1.012  12.777 -0.4866  0.2332 -0.8946
15115TIP3   OH266835   2.172   5.382   3.762 -0.0472  0.4063 -0.1179
15115TIP3    H166836   2.133   5.296   3.743 -1.2246  0.8385  0.2087
15115TIP3    H266837   2.199   5.376   3.854 -1.5476  0.8576  0.3863
15116TIP3   OH266838   5.480   5.030  13.420  0.1110  0.1972 -0.0391
15116TIP3    H166839   5.447   5.117  13.443  0.3498  0.2440  0.1304
15116TIP3    H266840   5.406   4.971  13.436  0.9892 -0.1577  3.3873
15117TIP3   OH266841   5.983   0.639   2.793 -0.7929  0.1641 -0.2359
15117TIP3    H166842   6.016   0.689   2.718 -0.8458  0.5834  0.0189
15117TIP3    H266843   5.986   0.548   2.764  0.0334  0.2427 -0.4288
15118TIP3   OH266844   3.317   0.495  12.037 -0.1843 -0.1762 -0.6706
15118TIP3    H166845   3.354   0.435  11.972 -0.0641  0.4110 -1.1507
15118TIP3    H266846   3.229   0.515  12.004  0.3761  1.2216 -1.4108
15119TIP3   OH266847   2.391   3.686  15.602 -0.1290 -0.0733  0.4460
15119TIP3    H166848   2.361   3.745  15.670 -2.1021 -0.0918 -0.3404
15119TIP3    H266849   2.457   3.736  15.554 -0.7473  0.9870  0.6625
15120TIP3   OH266850   2.401   0.400  10.711 -0.6175 -0.6814  0.4098
15120TIP3    H166851   2.440   0.318  10.681 -0.0712  0.3674 -2.0194
15120TIP3    H266852   2.476   0.455  10.733 -0.7952  0.1232 -0.8432
15121TIP3   OH266853   5.943   3.182   0.269 -0.5216 -0.3264  0.1133
15121TIP3    H166854   5.931   3.142   0.355 -0.2043 -0.3620  0.1411
15121TIP3    H266855   5.860   3.227   0.252 -1.5290 -2.3627 -0.6658
15122TIP3   OH266856   2.550   1.212  15.618  0.0183 -0.2238  0.3782
15122TIP3    H166857   2.548   1.165  15.701  1.3772  0.2283  0.6994
15122TIP3    H266858   2.464   1.197  15.579 -1.6807  1.7323  3.0649
15123TIP3   OH266859   1.586   5.936  11.313 -1.0745 -0.3512  0.2945
15123TIP3    H166860   1.544   5.921  11.228 -1.5248 -0.6370  0.5697
15123TIP3    H266861   1.679   5.921  11.296 -0.9284  1.2278 -0.5516
15124TIP3   OH266862   6.620   4.244   5.397 -0.2503  0.4539 -0.4370
15124TIP3    H166863   6.643   4.316   5.456  0.8044  0.9700 -1.4457
15124TIP3    H266864   6.536   4.270   5.359 -0.9034  0.1536  0.7255
15125TIP3   OH266865   2.877   2.486   5.502  0.2504 -0.6148 -0.1092
15125TIP3    H166866   2.782   2.489   5.512  0.4023  0.3229  1.3080
15125TIP3    H266867   2.901   2.573   5.471  0.6961 -0.7031 -0.0159
15126TIP3   OH266868   0.292   2.986  12.704  0.3875  0.1947  0.0927
15126TIP3    H166869   0.335   3.066  12.676  0.6032 -0.6903 -2.3641
15126TIP3    H266870   0.199   3.003  12.693  0.4661 -0.1834 -1.5754
15127TIP3   OH266871   0.755   2.569  11.065 -0.1498 -0.3176 -0.4313
15127TIP3    H166872   0.749   2.480  11.030  2.3543  0.0240 -2.0316
15127TIP3    H266873   0.715   2.625  10.998 -0.9040 -0.1275  0.1572
15128TIP3   OH266874   6.403   1.478   4.181  0.3302 -0.2385 -0.6211
15128TIP3    H166875   6.481   1.423   4.169 -0.2203 -0.9607 -0.9478
15128TIP3    H266876   6.331   1.416   4.190 -0.3323  0.4361 -1.1253
15129TIP3   OH266877   6.745   5.508  11.572  0.5655 -0.0131  0.0295
15129TIP3    H166878   6.799   5.543  11.643 -0.0737  1.2189 -0.0727
15129TIP3    H266879   6.746   5.413  11.587 -0.3483  0.2758  2.2757
15130TIP3   OH266880   3.508   3.286   4.794  0.1202 -0.8785  0.2534
15130TIP3    H166881   3.441   3.309   4.730  1.1610 -0.0607 -0.5808
15130TIP3    H266882   3.515   3.364   4.851 -1.2348 -1.8230  1.7971
15131TIP3   OH266883   2.730   4.279  13.442  0.6692  0.3547  1.2630
15131TIP3    H166884   2.802   4.242  13.492 -0.0733  0.4497  2.4449
15131TIP3    H266885   2.739   4.240  13.355  1.4182 -0.5856  1.7421
15132TIP3   OH266886   4.039   6.739   2.718 -0.1089  0.0199 -0.4468
15132TIP3    H166887   4.108   6.675   2.737 -1.4487 -1.9903 -1.8908
15132TIP3    H266888   4.072   6.789   2.644  0.4587  0.1992 -0.0796
15133TIP3   OH266889   4.393   3.540   2.496  0.0195  0.1822 -0.5736
15133TIP3    H166890   4.447   3.466   2.523  0.4281  0.8078  0.4293
15133TIP3    H266891   4.435   3.616   2.538 -0.5274  0.9458 -1.3672
15134TIP3   OH266892   5.872   6.485  15.835 -0.5190  0.1924 -0.1576
15134TIP3    H166893   5.908   6.478  15.924  1.9097  1.9185 -0.8896
15134TIP3    H266894   5.803   6.551  15.841  0.2291  0.9439  0.3096
15135TIP3   OH266895   2.669   0.476  12.783 -0.3519 -0.1325  0.1212
15135TIP3    H166896   2.759   0.493  12.757 -0.2799 -0.5771  0.0881
15135TIP3    H266897   2.676   0.440  12.871 -0.4757 -0.5282 -0.0314
15136TIP3   OH266898   0.784   6.352  16.259 -0.4478  0.0158  0.0145
15136TIP3    H166899   0.809   6.444  16.270 -1.0479  0.1312  0.4549
15136TIP3    H266900   0.868   6.304  16.262 -0.1838  0.4921  0.3870
15137TIP3   OH266901   4.248   0.671  12.057 -0.1594  0.5065  0.0478
15137TIP3    H166902   4.317   0.648  11.995  2.4467  1.0375  2.5594
15137TIP3    H266903   4.215   0.586  12.088 -0.3451  0.2481 -0.8298
15138TIP3   OH266904   2.345   6.367  16.752 -0.4590  0.4382  0.9009
15138TIP3    H166905   2.383   6.334  16.833 -0.5566 -0.6477  0.5294
15138TIP3    H266906   2.302   6.448  16.777 -2.2115 -0.8598  2.3968
15139TIP3   OH266907   2.665   5.082  16.653 -0.5634  0.2560  0.3770
15139TIP3    H166908   2.588   5.122  16.614 -0.1047 -0.3885 -1.2491
15139TIP3    H266909   2.737   5.142  16.631  0.0562 -1.1485 -1.7049
15140TIP3   OH266910   0.547   0.035  14.345  0.0545 -0.0252 -0.4656
15140TIP3    H166911   0.550  -0.060  14.357 -1.5190 -0.1367 -0.7170
15140TIP3    H266912   0.620   0.068  14.398  1.5559 -1.4517 -1.5590
15141TIP3   OH266913   3.869   0.298   3.110 -0.2413  0.0211  0.2901
15141TIP3    H166914   3.913   0.284   3.026  1.3389 -1.2148  1.2679
15141TIP3    H266915   3.881   0.391   3.128  1.3609 -0.1433  0.1786
15142TIP3   OH266916   3.083   5.652   0.252  0.1424  0.1075  0.0019
15142TIP3    H166917   3.043   5.647   0.165  0.2638 -4.0929  0.0223
15142TIP3    H266918   3.176   5.665   0.235 -0.1376  2.0696 -0.3004
15143TIP3   OH266919   0.194   1.664  12.786 -0.3617  0.0627  0.2721
15143TIP3    H166920   0.206   1.739  12.727 -0.6688  0.1271  0.2895
15143TIP3    H266921   0.103   1.637  12.772 -0.9606  1.0785  1.8631
15144TIP3   OH266922   0.920   0.924   0.007  0.7732 -0.5039 -0.4441
15144TIP3    H166923   1.010   0.957   0.014  1.3132 -1.8128 -0.8746
15144TIP3    H266924   0.922   0.839   0.050 -0.0619 -0.9033 -1.1503
15145TIP3   OH266925   5.490   1.879   2.369  0.2139  0.2248 -0.2060
15145TIP3    H166926   5.513   1.968   2.395 -1.7815  0.6440  0.2977
15145TIP3    H266927   5.402   1.866   2.404  0.4205 -1.9269 -0.3543
15146TIP3   OH266928   3.361   2.167   3.996 -0.3281 -0.2049 -0.3398
15146TIP3    H166929   3.430   2.131   4.051  1.8944 -0.2194 -2.9684
15146TIP3    H266930   3.378   2.131   3.909 -3.0879  0.5937 -1.3091
15147TIP3   OH266931   3.351   2.006   5.422 -0.1288 -0.7624  0.3800
15147TIP3    H166932   3.346   1.919   5.383 -0.5998 -0.3137 -0.6010
15147TIP3    H266933   3.260   2.035   5.429 -0.0260 -0.6462  1.4261
15148TIP3   OH266934   0.275   3.999   3.272 -0.6112  0.2139 -0.0334
15148TIP3    H166935   0.224   4.014   3.192  1.2752 -0.4842 -1.4604
15148TIP3    H266936   0.359   4.041   3.255 -0.2871  0.3922  1.7839
15149TIP3   OH266937   2.894   0.373  16.599  0.5282 -0.0005  0.2017
15149TIP3    H166938   2.926   0.456  16.563 -1.1154  0.4429 -0.3516
15149TIP3    H266939   2.810   0.395  16.639  0.6370 -1.1858  1.1398
15150TIP3   OH266940   3.036   3.938  12.790  0.3015  0.6584 -0.0633
15150TIP3    H166941   2.943   3.957  12.800  0.3116 -0.1436  2.2957
15150TIP3    H266942   3.080   4.013  12.830  0.4616 -1.1175  3.4680
15151TIP3   OH266943   4.395   4.329  15.860  0.0342 -0.2186  0.2094
15151TIP3    H166944   4.408   4.365  15.947 -0.0784  0.3121  0.0117
15151TIP3    H266945   4.374   4.237  15.874  0.6278 -0.2838  0.7069
15152TIP3   OH266946   5.934   4.129   4.147 -0.2186  0.0591  0.2096
15152TIP3    H166947   5.985   4.066   4.095 -0.5821  0.0281 -0.1167
15152TIP3    H266948   5.923   4.087   4.232  1.5259  0.6758  0.7728
15153TIP3   OH266949   3.671   3.025   2.450 -0.6276  0.1833 -0.5571
15153TIP3    H166950   3.608   3.096   2.436  0.3930  1.5075  1.0856
15153TIP3    H266951   3.688   3.028   2.544 -0.2056 -1.9904 -0.5217
15154TIP3   OH266952   0.774   4.360   0.580  0.4774 -0.4359  0.3972
15154TIP3    H166953   0.772   4.355   0.485  1.5298  0.6496  0.2763
15154TIP3    H266954   0.775   4.269   0.610 -0.7482 -0.7888 -0.5797
15155TIP3   OH266955   4.376   0.033   2.954 -0.3702  0.7012 -0.4826
15155TIP3    H166956   4.283   0.026   2.978 -0.6678  2.2801 -1.0922
15155TIP3    H266957   4.379   0.002   2.863 -0.1987  0.1554 -0.2961
15156TIP3   OH266958   6.136   6.049  11.043 -0.0402 -0.6472  0.2300
15156TIP3    H166959   6.203   6.115  11.063 -1.0704  0.2654  0.7765
15156TIP3    H266960   6.185   5.967  11.037  1.1725  0.0407  0.2893
15157TIP3   OH266961   1.992   6.549  11.559 -0.2322  0.5229  0.4190
15157TIP3    H166962   1.947   6.554  11.644  0.5814 -0.1554  0.9008
15157TIP3    H266963   2.044   6.469  11.564  1.2885  1.4469  0.0129
15158TIP3   OH266964   1.437   5.574   5.223  0.1946 -0.5691 -0.5475
15158TIP3    H166965   1.479   5.634   5.285 -0.3836  0.8750 -1.4938
15158TIP3    H266966   1.355   5.618   5.199 -0.6853 -2.1664 -0.6206
15159TIP3   OH266967   3.468   5.096  12.071 -0.3400  0.5058  0.6611
15159TIP3    H166968   3.478   5.076  11.978 -0.5273  0.1968  0.7071
15159TIP3    H266969   3.543   5.053  12.113 -0.6363  0.0542  0.7360
15160TIP3   OH266970   1.035   1.607   4.628 -0.4654 -0.5792  0.3946
15160TIP3    H166971   0.991   1.523   4.615 -0.2829 -0.7150  0.6385
15160TIP3    H266972   1.064   1.604   4.719  2.5917 -1.7113 -0.5088
15161TIP3   OH266973   3.903   4.536   0.011 -0.3357  0.0556 -0.8620
15161TIP3    H166974   3.995   4.515   0.024 -0.3567  1.0203  1.3947
15161TIP3    H266975   3.903   4.627  -0.018 -0.5636  0.3455 -0.0011
15162TIP3   OH266976   4.124   6.833  15.006 -0.2060 -0.5659  0.1564
15162TIP3    H166977   4.067   6.871  14.940 -0.1947  1.0125  0.9865
15162TIP3    H266978   4.212   6.862  14.982 -0.1392 -0.4212  0.5539
15163TIP3   OH266979   3.898   5.634   1.709 -0.0536  0.5636 -1.0586
15163TIP3    H166980   3.811   5.673   1.719 -0.3368 -0.4210  0.8537
15163TIP3    H266981   3.958   5.695   1.751 -0.1211  0.2787 -0.5364
15164TIP3   OH266982   4.815   6.645  11.785  0.0136  0.4582 -0.5033
15164TIP3    H166983   4.873   6.698  11.840 -1.7593  1.2036  0.7317
15164TIP3    H266984   4.809   6.693  11.703 -1.9156  2.5358  0.7487
15165TIP3   OH266985   1.220   4.948  12.416  0.3027 -0.1369  0.3049
15165TIP3    H166986   1.166   5.013  12.372 -0.4467 -0.5903  0.5370
15165TIP3    H266987   1.261   4.899  12.345  0.5134  0.2881  0.1279
15166TIP3   OH266988   2.581   0.989   3.631 -0.2055  0.3701  0.3053
15166TIP3    H166989   2.603   0.928   3.561 -1.3320  1.1554 -0.7631
15166TIP3    H266990   2.666   1.017   3.666  0.6811  2.8993 -3.3404
15167TIP3   OH266991   6.737   2.827   4.727  0.5023  0.3001 -0.2966
15167TIP3    H166992   6.823   2.856   4.696  0.6702 -0.2036 -0.3163
15167TIP3    H266993   6.752   2.739   4.761  0.1784  0.5704  0.5795
15168TIP3   OH266994   2.373   1.883  15.167 -0.3522 -0.1354  0.4594
15168TIP3    H166995   2.367   1.873  15.262 -0.6367  0.2332  0.4822
15168TIP3    H266996   2.389   1.794  15.134 -1.3696 -0.4498  0.7697
15169TIP3   OH266997   4.692   6.658   4.757  0.7305 -0.3166  0.6601
15169TIP3    H166998   4.618   6.666   4.817  0.6301  1.7300  0.3552
15169TIP3    H266999   4.653   6.628   4.675  0.1327  1.0318  0.4129
15170TIP3   OH267000   5.547   4.574  14.727  0.1516  0.3264  0.0072
15170TIP3    H167001   5.491   4.548  14.800 -0.1744  3.0942  0.8515
15170TIP3    H267002   5.628   4.524  14.741 -0.6680 -0.7729  1.0388
15171TIP3   OH267003   0.968   5.432  11.039 -0.2284 -0.0846 -0.0095
15171TIP3    H167004   0.958   5.480  11.121 -2.1685  0.4156 -0.4994
15171TIP3    H267005   0.982   5.500  10.973 -1.6889 -0.2627 -0.5173
15172TIP3   OH267006   3.864   3.005  12.241  0.0693 -0.0100 -0.3048
15172TIP3    H167007   3.940   3.061  12.224 -0.3102  0.8994  0.8449
15172TIP3    H267008   3.887   2.957  12.321  0.5147 -1.7881 -1.4423
15173TIP3   OH267009   6.072   0.354   2.207 -0.2645  0.3557  0.0513
15173TIP3    H167010   6.000   0.412   2.232 -0.4266 -0.1112  0.6916
15173TIP3    H267011   6.151   0.406   2.223 -0.4633  1.0541 -1.1400
15174TIP3   OH267012   4.699   6.570   5.756  0.2602  0.3269  0.4208
15174TIP3    H167013   4.791   6.578   5.731  0.2632 -0.6204  0.0760
15174TIP3    H267014   4.671   6.659   5.777 -0.0783  1.4759 -4.0660
15175TIP3   OH267015   5.242   1.343   3.480  0.0572  0.3816  0.3989
15175TIP3    H167016   5.258   1.401   3.554  0.2999  1.0519 -0.1643
15175TIP3    H267017   5.263   1.256   3.512  0.0716  0.6516  1.1420
15176TIP3   OH267018   2.765   1.637   0.330  0.2179  0.9212  0.0869
15176TIP3    H167019   2.812   1.716   0.357  0.9234 -0.1228  2.0961
15176TIP3    H267020   2.827   1.590   0.274  0.4621  0.9672  0.3166
15177TIP3   OH267021   1.140   6.813  11.921 -0.1075 -0.3473 -0.1159
15177TIP3    H167022   1.117   6.726  11.954 -0.9799 -1.3040 -2.9553
15177TIP3    H267023   1.229   6.828  11.953 -0.8862 -1.0606  2.6374
15178TIP3   OH267024   3.419   0.272   1.592 -0.7680 -0.1033  0.6122
15178TIP3    H167025   3.334   0.250   1.554 -1.1655 -0.6480  1.7801
15178TIP3    H267026   3.413   0.245   1.683  0.5585  0.1367  0.7971
15179TIP3   OH267027   3.232   6.127  13.683 -0.2788 -0.0625  0.2251
15179TIP3    H167028   3.293   6.142  13.755  1.1819  1.2152 -1.2302
15179TIP3    H267029   3.284   6.138  13.604 -2.1095 -0.2599 -1.0674
15180TIP3   OH267030   0.894   1.134  12.437 -0.7095  0.4886 -0.1589
15180TIP3    H167031   0.901   1.213  12.383  1.0238 -1.2530 -2.6573
15180TIP3    H267032   0.950   1.152  12.513 -0.2986  1.6373 -0.7072
15181TIP3   OH267033   2.419   6.571   3.427  0.0957 -0.2101  0.2971
15181TIP3    H167034   2.341   6.625   3.413  0.2849 -0.1691 -0.6372
15181TIP3    H267035   2.460   6.565   3.341  1.4491  0.2381  0.8871
15182TIP3   OH267036   0.725   1.236  16.011  0.4959  0.5990  0.5776
15182TIP3    H167037   0.701   1.256  15.921  0.8477 -0.9752  0.1116
15182TIP3    H267038   0.739   1.322  16.051  0.6425  1.3180 -0.9391
15183TIP3   OH267039   2.470   6.469  13.863 -0.4969 -0.5659 -0.0516
15183TIP3    H167040   2.481   6.384  13.821  0.5091 -0.7896  0.6289
15183TIP3    H267041   2.534   6.526  13.819 -1.4177 -0.0524 -0.7565
15184TIP3   OH267042   6.796   2.980   6.110 -0.3431 -0.9433 -0.1149
15184TIP3    H167043   6.740   3.019   6.043  0.4296 -0.4488 -0.4802
15184TIP3    H267044   6.875   2.953   6.063  0.9456  0.9639  0.8526
15185TIP3   OH267045   6.153   2.839  15.795 -0.1469 -0.2915  0.3589
15185TIP3    H167046   6.232   2.803  15.836  0.3267  0.1937 -0.1019
15185TIP3    H267047   6.175   2.931  15.777 -1.8437  0.7161  2.8657
15186TIP3   OH267048   6.684   6.325   1.818  0.6284  0.2773  1.0496
15186TIP3    H167049   6.691   6.401   1.875  0.4512 -1.2369  3.2306
15186TIP3    H267050   6.712   6.356   1.732 -1.1018  3.2104  1.4133
15187TIP3   OH267051   5.325   1.151  16.802  0.1586  0.0245  0.4737
15187TIP3    H167052   5.313   1.057  16.818  1.3540 -0.1007  0.7596
15187TIP3    H267053   5.294   1.164  16.712  3.1635 -1.3870 -0.9489
15188TIP3   OH267054   2.548   5.565   1.888 -0.5603 -0.5670 -0.1118
15188TIP3    H167055   2.599   5.595   1.963 -0.1679 -1.9244  0.1880
15188TIP3    H267056   2.505   5.485   1.918 -0.6363 -0.9705 -1.2408
15189TIP3   OH267057   0.163   1.031  16.197  0.1991  0.5331  0.4561
15189TIP3    H167058   0.123   1.107  16.241 -0.0155 -0.8251  2.8015
15189TIP3    H267059   0.255   1.036  16.222  0.0034 -0.4691  1.4542
15190TIP3   OH267060   1.244   3.781   0.611  0.1964 -0.0618 -0.3012
15190TIP3    H167061   1.295   3.708   0.646  1.0972  0.5481 -0.3142
15190TIP3    H267062   1.157   3.770   0.650  0.8659 -0.0156  1.2931
15191TIP3   OH267063   0.536   0.323  16.911 -0.1732  0.6233  0.4385
15191TIP3    H167064   0.622   0.318  16.953  0.0434  0.2457 -0.0410
15191TIP3    H267065   0.548   0.281  16.825 -0.7460  0.8851  0.2235
15192TIP3   OH267066   3.757   0.946   1.268  0.0858  0.4796 -0.0367
15192TIP3    H167067   3.684   0.893   1.301  0.6036 -0.5927 -0.6010
15192TIP3    H267068   3.725   0.982   1.185 -0.8421  2.3724  1.0423
15193TIP3   OH267069   1.235   0.218   4.425 -0.0301  0.1625 -0.4869
15193TIP3    H167070   1.309   0.238   4.369  0.2772  1.0016  0.1974
15193TIP3    H267071   1.272   0.213   4.513 -0.8659  1.1943 -0.0506
15194TIP3   OH267072   0.412   0.596   6.296 -0.4504 -0.4756  0.3161
15194TIP3    H167073   0.351   0.528   6.322 -0.6015  0.5782  2.9482
15194TIP3    H267074   0.487   0.585   6.354  0.4921  0.2651 -0.7063
15195TIP3   OH267075   4.536   3.271   4.571  0.5641  0.1704 -0.1317
15195TIP3    H167076   4.474   3.341   4.550  0.5024 -0.5911 -3.0216
15195TIP3    H267077   4.486   3.209   4.623 -1.2881 -0.5211 -2.5659
15196TIP3   OH267078   3.578   2.700   0.949  0.9324  0.1428  0.5702
15196TIP3    H167079   3.547   2.723   1.037  1.4260  1.6249  0.3671
15196TIP3    H267080   3.665   2.740   0.942  0.4148  1.0849 -1.0085
15197TIP3   OH267081   5.352   2.198  13.936 -0.4209  0.4137 -0.3792
15197TIP3    H167082   5.319   2.263  13.874 -1.1515  0.3661 -0.0618
15197TIP3    H267083   5.390   2.130  13.882  0.5249  1.1795 -0.7154
15198TIP3   OH267084   2.487   4.484  11.012 -0.3510 -0.0598  0.0736
15198TIP3    H167085   2.524   4.399  10.988 -0.2306  0.0030  0.0362
15198TIP3    H267086   2.397   4.480  10.981 -1.9055 -1.9744  4.1583
15199TIP3   OH267087   6.268   5.093   3.033 -0.3492 -0.1406  0.5240
15199TIP3    H167088   6.305   5.123   3.115 -0.2743  0.9586  0.1014
15199TIP3    H267089   6.288   5.162   2.970  0.4683 -1.3863 -0.6674
15200TIP3   OH267090   3.647   4.785   3.890  0.1576  0.4009  0.1124
15200TIP3    H167091   3.563   4.815   3.857 -0.7102 -1.8890  0.0419
15200TIP3    H267092   3.630   4.696   3.921  2.7430 -0.5216 -0.8186
15201TIP3   OH267093   1.568   6.132  15.720  0.4826 -0.4650 -0.0545
15201TIP3    H167094   1.656   6.140  15.681  0.6600  0.1366  0.4562
15201TIP3    H267095   1.518   6.203  15.679  0.8453  0.5833  1.2475
15202TIP3   OH267096   3.008   1.736  15.403 -0.4752  0.0854  0.7317
15202TIP3    H167097   3.021   1.763  15.312 -0.3640  1.1309  1.0517
15202TIP3    H267098   3.082   1.678  15.421 -0.3023  0.1571  0.2654
15203TIP3   OH267099   1.008   0.219   4.594 -0.0105 -0.9570  0.1864
15203TIP3    H167100   0.942   0.288   4.583 -0.7058 -1.5456  0.5761
15203TIP3    H267101   1.061   0.224   4.514 -2.0069 -2.0181 -1.2906
15204TIP3   OH267102   6.234   4.135  16.395  0.6171  0.7817  0.2902
15204TIP3    H167103   6.159   4.195  16.397 -0.7167 -0.8318  1.1021
15204TIP3    H267104   6.223   4.081  16.474  1.6790 -0.6267 -0.4889
15205TIP3   OH267105   5.203   0.293   0.073 -0.4596 -0.4718  0.1551
15205TIP3    H167106   5.146   0.369   0.088 -1.6756 -1.7095  2.3820
15205TIP3    H267107   5.251   0.282   0.155  0.6982 -1.3400 -0.6032
15206TIP3   OH267108   3.969   1.791   3.892 -0.1560  0.3144  0.0186
15206TIP3    H167109   4.031   1.736   3.844  0.2887  0.3416  0.5391
15206TIP3    H267110   3.916   1.730   3.942 -0.2786  0.3132 -0.1121
15207TIP3   OH267111   2.321   0.001   2.297 -0.1617 -0.3856  0.1052
15207TIP3    H167112   2.407   0.013   2.257 -0.5779  0.9112 -0.4400
15207TIP3    H267113   2.278   0.086   2.290 -1.7610 -1.1624 -0.2700
15208TIP3   OH267114   1.336   6.842   0.219 -0.2884  0.0895  0.3612
15208TIP3    H167115   1.354   6.869   0.129  0.4424  0.4191  0.6019
15208TIP3    H267116   1.317   6.923   0.265  2.3332  0.3301  1.1833
15209TIP3   OH267117   5.545   4.833  11.609 -0.0292 -0.2146  0.1900
15209TIP3    H167118   5.548   4.853  11.515 -0.1558 -2.4944 -0.3619
15209TIP3    H267119   5.456   4.800  11.623  0.4737 -1.3989  0.7351
15210TIP3   OH267120   1.987   2.502  11.224  0.1457  0.1524 -0.1822
15210TIP3    H167121   1.934   2.513  11.304  1.2505  1.1349  0.4503
15210TIP3    H267122   2.076   2.491  11.256  0.1587 -3.6548 -1.1359
15211TIP3   OH267123   0.092   3.430   3.780  0.4377  0.8595 -0.3159
15211TIP3    H167124   0.042   3.464   3.706 -0.8175 -1.5314 -0.6945
15211TIP3    H267125   0.027   3.417   3.849  0.3759 -2.2462 -0.7955
15212TIP3   OH267126   3.497   3.801  12.000 -0.2387  0.2686 -0.2658
15212TIP3    H167127   3.569   3.767  12.054  0.1719 -1.1227 -1.6156
15212TIP3    H267128   3.453   3.864  12.057  0.6292 -0.5572  1.4238
15213TIP3   OH267129   3.524   4.471  13.540  0.7412 -0.4119  0.1901
15213TIP3    H167130   3.587   4.400  13.528  0.8842 -0.6364  2.0564
15213TIP3    H267131   3.459   4.456  13.472  1.5342 -1.4656 -0.3761
15214TIP3   OH267132   1.687   3.592  16.886 -0.2647  0.1242 -0.0462
15214TIP3    H167133   1.743   3.656  16.931  1.4040 -1.0258 -0.3986
15214TIP3    H267134   1.613   3.644  16.855  0.4697  1.6776  0.6443
15215TIP3   OH267135   4.073   4.837  15.006 -0.1487 -0.3226 -0.2005
15215TIP3    H167136   4.084   4.785  14.927  1.2723 -0.3689 -0.0030
15215TIP3    H267137   4.093   4.927  14.978 -2.0815  0.0897 -0.4251
15216TIP3   OH267138   1.170   1.081  15.113  0.1440 -0.2409  0.0103
15216TIP3    H167139   1.223   1.131  15.175  1.4410 -0.2224 -1.0461
15216TIP3    H267140   1.218   0.998  15.103  0.0991 -0.1442 -1.1318
15217TIP3   OH267141   1.658   4.674  14.152 -0.1820 -0.4207 -0.0633
15217TIP3    H167142   1.710   4.621  14.212  0.5464  0.6599  0.2882
15217TIP3    H267143   1.631   4.750  14.204 -0.7302 -0.1599 -0.7113
15218TIP3   OH267144   2.846   1.066   2.069  0.0141  0.0768  0.7385
15218TIP3    H167145   2.760   1.025   2.060  0.6809 -1.2908  0.3586
15218TIP3    H267146   2.851   1.131   1.999  0.2598 -1.6278 -0.8816
15219TIP3   OH267147   4.671   6.042   3.222 -0.8692 -0.0861  0.0280
15219TIP3    H167148   4.746   6.024   3.164  1.5845  0.9921  2.5926
15219TIP3    H267149   4.611   6.092   3.167  1.6092  1.4889 -1.5074
15220TIP3   OH267150   6.638   3.067  12.472  0.2374 -0.3108 -0.3027
15220TIP3    H167151   6.664   3.112  12.552  3.9660  0.5061 -1.7345
15220TIP3    H267152   6.583   2.994  12.501  1.0111  0.2480  2.9150
15221TIP3   OH267153   3.191   4.704   2.460  0.0210  0.2554  0.0477
15221TIP3    H167154   3.276   4.714   2.505  0.0411 -0.3520  0.1553
15221TIP3    H267155   3.126   4.729   2.526 -0.0253 -1.9672  0.9023
15222TIP3   OH267156   0.799   5.381   3.494  0.4557  0.1402  0.4141
15222TIP3    H167157   0.813   5.400   3.587  0.0336  1.4125  0.2452
15222TIP3    H267158   0.869   5.428   3.449 -0.8073  1.6793 -0.0503
15223TIP3   OH267159   4.225   6.509   2.800 -0.2866 -0.2478 -0.1641
15223TIP3    H167160   4.202   6.452   2.874  2.4860 -1.5158 -0.1317
15223TIP3    H267161   4.234   6.449   2.726  0.0152  0.5563 -0.7916
15224TIP3   OH267162   6.827   5.793  10.606 -0.3479  0.5085 -0.2700
15224TIP3    H167163   6.756   5.733  10.580 -0.3147  0.5358 -0.4229
15224TIP3    H267164   6.787   5.879  10.606  0.2418  0.8426 -2.6249
15225TIP3   OH267165   0.401   6.206  14.231  0.7914 -0.6584  0.0644
15225TIP3    H167166   0.493   6.200  14.255  0.2846 -1.1311  2.1856
15225TIP3    H267167   0.389   6.297  14.202  1.6626 -0.1787  1.1294
15226TIP3   OH267168   6.243   4.423  11.164 -0.0318  0.4470  0.2508
15226TIP3    H167169   6.182   4.427  11.091  1.1943  0.4431 -0.8036
15226TIP3    H267170   6.284   4.509  11.166  0.8421  0.0549  0.1059
15227TIP3   OH267171   6.135   3.188  15.261 -0.1749  0.0604  0.0518
15227TIP3    H167172   6.042   3.206  15.245 -0.1236  1.4068  1.0287
15227TIP3    H267173   6.137   3.099  15.296 -0.7967 -0.9680 -2.3490
15228TIP3   OH267174   0.128   5.612   0.650  0.2331  0.2110  0.3239
15228TIP3    H167175   0.109   5.700   0.619 -0.2213 -0.4842 -1.5012
15228TIP3    H267176   0.053   5.559   0.621 -0.0411 -0.6086  2.3270
15229TIP3   OH267177   2.898   2.384   5.127 -0.1521  0.1605  0.3780
15229TIP3    H167178   2.966   2.441   5.163 -1.0525  0.9261  0.9019
15229TIP3    H267179   2.903   2.397   5.032  0.3455  0.3068  0.4232
15230TIP3   OH267180   4.293   1.788   1.303  0.0283 -0.0905  0.2637
15230TIP3    H167181   4.376   1.755   1.339  0.4372  0.0660 -0.5154
15230TIP3    H267182   4.314   1.815   1.214 -0.5998  1.0452  0.4335
15231TIP3   OH267183   0.731   5.144  12.116 -0.0427  0.2908  0.3908
15231TIP3    H167184   0.766   5.232  12.108  0.3595  0.1810  0.8858
15231TIP3    H267185   0.654   5.143  12.059  0.8349  0.4972 -0.8171
15232TIP3   OH267186   3.506   5.076   1.818  0.2447  0.4250 -0.2145
15232TIP3    H167187   3.439   5.021   1.859  1.2948 -0.4677  0.3297
15232TIP3    H267188   3.589   5.045   1.853  1.2508 -0.4347 -3.0452
15233TIP3   OH267189   5.478   4.969  11.864 -0.0107 -0.4712 -0.7288
15233TIP3    H167190   5.536   4.932  11.797 -0.4404  0.4908 -1.6653
15233TIP3    H267191   5.510   5.059  11.875 -0.2579 -0.4710  0.0083
15234TIP3   OH267192   3.942   2.336  17.019  0.0183 -0.3761  0.0846
15234TIP3    H167193   3.891   2.406  17.060 -0.8149 -0.7378 -0.3063
15234TIP3    H267194   3.919   2.258  17.070  0.4725 -0.4791  0.1339
15235TIP3   OH267195   4.770   5.014  10.873 -0.1385 -0.3522  0.3349
15235TIP3    H167196   4.816   5.030  10.791  0.2905  0.7000  0.7556
15235TIP3    H267197   4.704   5.084  10.878 -0.9287 -1.0825  0.3481
15236TIP3   OH267198   2.795   5.678   1.585 -0.7912 -0.0228  0.0171
15236TIP3    H167199   2.797   5.747   1.652 -0.8162 -0.3561  0.3696
15236TIP3    H267200   2.848   5.607   1.622  0.7822  0.5014 -1.1375
15237TIP3   OH267201   1.064   6.757  15.417  0.6538 -0.0941 -0.2153
15237TIP3    H167202   1.108   6.679  15.381 -0.2141 -1.0932  0.8092
15237TIP3    H267203   0.981   6.761  15.369  1.4957  1.3741 -1.6432
15238TIP3   OH267204   0.131   4.816   2.325  0.0504 -0.6132  0.1342
15238TIP3    H167205   0.081   4.781   2.398 -2.3383 -1.7543 -1.9009
15238TIP3    H267206   0.218   4.777   2.335 -1.1462 -3.4022  0.6312
15239TIP3   OH267207   2.031   4.160   0.036 -0.3328  0.1761  0.2775
15239TIP3    H167208   2.064   4.169  -0.054  1.1975 -2.3733  0.4857
15239TIP3    H267209   1.936   4.172   0.028 -0.1678  0.5661 -1.5692
15240TIP3   OH267210   2.714   6.563  15.628  0.0065  0.5751  0.0292
15240TIP3    H167211   2.668   6.630  15.678 -1.4063 -1.4006  1.5599
15240TIP3    H267212   2.805   6.592  15.626 -0.7982  3.3564 -0.9100
15241TIP3   OH267213   0.611   0.200   1.636  0.1464  0.2027 -0.7261
15241TIP3    H167214   0.544   0.153   1.586 -0.3262  0.9068 -0.7775
15241TIP3    H267215   0.671   0.234   1.569 -0.5404  1.2286 -0.8424
15242TIP3   OH267216   2.707   5.809   3.601  0.3872 -0.2534 -0.1505
15242TIP3    H167217   2.736   5.850   3.519 -1.9813  0.0114 -0.9528
15242TIP3    H267218   2.694   5.717   3.578 -0.3653 -0.1604 -0.1389
15243TIP3   OH267219   1.220   4.974   3.764  0.6701 -0.1616 -0.3075
15243TIP3    H167220   1.132   4.949   3.736  1.0677 -0.8358 -0.9741
15243TIP3    H267221   1.269   4.988   3.683  1.5898 -1.2765  0.0319
15244TIP3   OH267222   5.741   1.892   1.228  0.1402 -0.4252 -0.1822
15244TIP3    H167223   5.809   1.850   1.175  0.9389 -0.5444  0.9171
15244TIP3    H267224   5.788   1.948   1.289 -0.8842  2.0959 -1.5515
15245TIP3   OH267225   4.325   2.305   2.667  0.3567  1.0230 -0.1811
15245TIP3    H167226   4.416   2.300   2.699  0.5299 -1.6179 -0.8588
15245TIP3    H267227   4.285   2.223   2.695 -0.9491  0.7939 -2.4467
15246TIP3   OH267228   6.445   0.598   4.679 -0.1496  0.5268  0.2372
15246TIP3    H167229   6.446   0.613   4.773  1.1483 -0.4158  0.4012
15246TIP3    H267230   6.509   0.528   4.665 -0.6362  0.3492 -1.2952
15247TIP3   OH267231   0.314   2.710   1.357 -0.1879 -0.6828  0.0071
15247TIP3    H167232   0.310   2.789   1.303  1.3697 -0.6088 -0.0431
15247TIP3    H267233   0.317   2.638   1.294  2.4596 -0.5626 -0.1189
15248TIP3   OH267234   1.978   6.516  15.372  0.5070 -0.1705 -0.4447
15248TIP3    H167235   1.965   6.610  15.360 -1.6574 -0.4278 -0.4914
15248TIP3    H267236   2.045   6.509  15.440  1.3612  1.3751 -1.0880
15249TIP3   OH267237   3.814   4.533   0.355  0.0984  0.2564 -0.5355
15249TIP3    H167238   3.862   4.609   0.386  0.6226 -0.2277 -0.1572
15249TIP3    H267239   3.815   4.541   0.259 -0.0263  0.8250 -0.4917
15250TIP3   OH267240   6.190   2.943  14.831 -0.3602  0.4425 -0.3905
15250TIP3    H167241   6.204   2.966  14.739  0.6259 -0.6186 -0.5187
15250TIP3    H267242   6.243   3.006  14.879  0.1107  0.2076 -0.6021
15251TIP3   OH267243   2.098   1.814   4.748 -0.0453 -0.3994  0.0366
15251TIP3    H167244   2.126   1.882   4.809  0.6483  0.4103 -1.1236
15251TIP3    H267245   2.037   1.858   4.689  0.2762 -0.8055 -0.6226
15252TIP3   OH267246   2.971   1.454   3.932 -0.0084  0.2160 -0.4584
15252TIP3    H167247   3.023   1.525   3.895  1.1078  0.3562  1.2957
15252TIP3    H267248   2.926   1.492   4.007  0.6725 -0.8943  0.5663
15253TIP3   OH267249   1.378   1.617  16.119  0.2373  0.5594 -0.3533
15253TIP3    H167250   1.303   1.558  16.125  1.0002 -0.4626 -0.6483
15253TIP3    H267251   1.419   1.595  16.036  1.1470  0.7651  0.0318
15254TIP3   OH267252   4.162   5.622  16.998  0.0276 -0.0280 -0.3402
15254TIP3    H167253   4.177   5.671  16.917 -2.2110  0.4995 -0.4875
15254TIP3    H267254   4.140   5.688  17.063 -1.1100 -0.6695 -0.0502
15255TIP3   OH267255   1.056   5.460  13.926  0.2708  0.6981  0.1439
15255TIP3    H167256   1.043   5.497  13.839  0.4977  2.6899  0.9116
15255TIP3    H267257   1.122   5.391  13.913  0.0209  0.7047 -1.3037
15256TIP3   OH267258   0.708   1.967   2.017 -0.4233  0.3445  0.3135
15256TIP3    H167259   0.672   2.035   1.961 -0.5562 -0.6031 -0.7963
15256TIP3    H267260   0.638   1.901   2.024 -0.5900  0.6493  2.0085
15257TIP3   OH267261   4.497   5.183   3.693  0.1912 -0.3017 -0.4474
15257TIP3    H167262   4.500   5.148   3.604 -2.9544  1.8264 -1.5930
15257TIP3    H267263   4.552   5.261   3.690  0.7661 -0.6975 -0.2631
15258TIP3   OH267264   3.141   5.266   5.687  0.4366 -0.1229 -0.2837
15258TIP3    H167265   3.064   5.294   5.637 -0.5431  0.1514  1.3064
15258TIP3    H267266   3.128   5.173   5.701 -0.1546  0.1098  0.8442
15259TIP3   OH267267   3.843   2.420   6.172  0.1330  0.0557  0.3654
15259TIP3    H167268   3.801   2.449   6.253 -0.1633  0.2553  0.1417
15259TIP3    H267269   3.937   2.427   6.190  0.0903  2.0795  0.0066
15260TIP3   OH267270   0.671   6.441   3.693  0.3605  0.3634 -0.5151
15260TIP3    H167271   0.720   6.484   3.622  2.1049 -0.3442  0.2031
15260TIP3    H267272   0.582   6.433   3.659  1.4660 -1.4392 -3.3603
15261TIP3   OH267273   0.838   0.451   0.251  0.1603  0.1740  0.3879
15261TIP3    H167274   0.921   0.452   0.203  0.7244 -0.6056  1.3264
15261TIP3    H267275   0.784   0.389   0.203  0.2765  0.3202  0.0586
15262TIP3   OH267276   2.876   1.904  13.920 -0.3835  0.3207  0.2983
15262TIP3    H167277   2.833   1.989  13.926  0.5571  0.7906  0.4182
15262TIP3    H267278   2.864   1.878  13.828 -3.8492 -1.1325  0.9861
15263TIP3   OH267279   6.473   2.041   0.997 -0.4623  0.2040  0.7871
15263TIP3    H167280   6.490   2.078   0.910 -0.0511  0.1486  0.8428
15263TIP3    H267281   6.476   2.117   1.056 -1.2860  0.3210  0.6828
15264TIP3   OH267282   2.889   1.803   6.545 -0.2741 -0.3505 -0.0560
15264TIP3    H167283   2.981   1.828   6.550 -0.7014  2.1946 -2.2790
15264TIP3    H267284   2.855   1.817   6.633  1.2381 -0.2330  0.5212
15265TIP3   OH267285   4.122   3.313  14.064  0.2698 -0.0988 -0.4472
15265TIP3    H167286   4.153   3.257  14.135 -0.1655 -0.0347 -0.1983
15265TIP3    H267287   4.057   3.260  14.018 -0.3593  0.2946 -0.0310
15266TIP3   OH267288   4.055   4.285   6.127  0.1804  0.0263  0.1236
15266TIP3    H167289   3.992   4.295   6.199  0.3871  1.2425  0.1621
15266TIP3    H267290   4.130   4.241   6.166  0.0056  0.0461  0.4855
15267TIP3   OH267291   1.697   6.663  16.626  0.1639 -0.3242  0.1124
15267TIP3    H167292   1.680   6.576  16.590 -0.2912 -0.0426 -0.3879
15267TIP3    H267293   1.744   6.709  16.556 -0.0680 -0.0062  0.1580
15268TIP3   OH267294   4.565   2.956  12.941 -0.3243  0.3178 -0.1004
15268TIP3    H167295   4.473   2.941  12.921  0.0732 -0.1686 -1.6774
15268TIP3    H267296   4.573   2.934  13.034 -1.7046 -0.0464 -0.0449
15269TIP3   OH267297   0.559   4.678   5.487  0.3045 -0.0675 -0.4038
15269TIP3    H167298   0.603   4.608   5.536 -0.5303 -0.0959  0.3344
15269TIP3    H267299   0.474   4.688   5.530 -0.3324  0.1346 -1.6655
15270TIP3   OH267300   5.838   5.690  12.158 -0.0368  0.6718  0.1694
15270TIP3    H167301   5.891   5.759  12.120 -0.3302  0.1437 -1.2583
15270TIP3    H267302   5.804   5.727  12.239  0.6744  1.8071 -0.0390
15271TIP3   OH267303   6.366   4.406   6.192 -0.0467  0.2343 -0.1684
15271TIP3    H167304   6.289   4.377   6.241  0.0433  0.7230  0.2763
15271TIP3    H267305   6.353   4.500   6.179  0.0664  0.1627 -0.8446
15272TIP3   OH267306   5.682   2.219  11.115  0.2239 -0.5432  0.1616
15272TIP3    H167307   5.673   2.207  11.020 -0.7842  1.4383 -0.0576
15272TIP3    H267308   5.593   2.239  11.145  0.8833  1.1221  1.1193
15273TIP3   OH267309   1.437   1.431  13.858  0.0633  0.0193 -0.1345
15273TIP3    H167310   1.511   1.490  13.847 -1.3716  2.2222  1.2480
15273TIP3    H267311   1.477   1.344  13.864  2.5772  1.1463  0.9063
15274TIP3   OH267312   0.356   6.485   1.547 -0.3814  0.1843 -0.4837
15274TIP3    H167313   0.348   6.453   1.458 -0.8066  0.0752 -0.4105
15274TIP3    H267314   0.450   6.490   1.563 -0.3084 -0.4771 -0.6935
15275TIP3   OH267315   6.055   6.502  16.891 -0.7480 -0.7735 -0.7648
15275TIP3    H167316   6.006   6.421  16.880  0.4655 -1.8192  0.9121
15275TIP3    H267317   6.054   6.518  16.986  1.8505 -0.7423 -0.6577
15276TIP3   OH267318   6.267   5.166   5.618  0.0618  0.2428 -0.0037
15276TIP3    H167319   6.275   5.153   5.523  0.3128 -2.0590  0.2853
15276TIP3    H267320   6.173   5.154   5.635  0.0484  0.4560  0.0743
15277TIP3   OH267321   6.386   5.509   1.592  0.2883  0.5703 -0.0920
15277TIP3    H167322   6.404   5.591   1.547 -0.3595  0.3045 -0.8478
15277TIP3    H267323   6.292   5.496   1.583  0.4943 -0.6572 -0.6883
15278TIP3   OH267324   1.487   5.765   1.482  0.4595 -0.2401 -0.4332
15278TIP3    H167325   1.579   5.768   1.508  0.6027  0.1587 -0.9647
15278TIP3    H267326   1.459   5.675   1.502  0.3787  0.1889  1.6216
15279TIP3   OH267327   0.521   5.741   2.113 -0.4399 -0.1679  0.9228
15279TIP3    H167328   0.495   5.833   2.111  0.3126  0.1566  3.1488
15279TIP3    H267329   0.616   5.742   2.104 -0.4932 -0.7945  0.1753
15280TIP3   OH267330   4.529   6.637   4.238 -0.1257 -0.0561  0.2575
15280TIP3    H167331   4.504   6.613   4.149  0.9168  1.3362 -0.4395
15280TIP3    H267332   4.588   6.566   4.265 -1.8536 -1.4530  0.5794
15281TIP3   OH267333   4.827   4.834   5.129  1.1440  0.8218  0.1814
15281TIP3    H167334   4.862   4.767   5.188  2.9870  0.5663 -1.1018
15281TIP3    H267335   4.832   4.793   5.042  0.0954  1.7999 -0.3690
15282TIP3   OH267336   3.837   2.259  14.449  0.1445  0.1931 -0.4249
15282TIP3    H167337   3.793   2.243  14.366 -2.1969  0.9868  0.5708
15282TIP3    H267338   3.885   2.178  14.467  0.1102 -0.2544 -2.1797
15283TIP3   OH267339   6.733   2.120  15.714  0.1865 -0.1872 -0.4167
15283TIP3    H167340   6.792   2.179  15.761 -0.1882  0.7537 -1.1240
15283TIP3    H267341   6.736   2.149  15.623 -0.7901 -0.6059 -0.5954
15284TIP3   OH267342   4.083   2.776   3.871  0.3950 -0.3645  0.0617
15284TIP3    H167343   4.074   2.711   3.941  2.7025  0.2299  1.0011
15284TIP3    H267344   4.033   2.852   3.902 -0.8023 -1.0336 -0.1983
15285TIP3   OH267345   6.719   0.668  16.686  0.3778  0.2125 -0.8712
15285TIP3    H167346   6.634   0.677  16.643  0.5303 -1.5071 -1.6095
15285TIP3    H267347   6.721   0.577  16.717  1.0034  0.9070  1.2468
15286TIP3   OH267348   2.489   1.216  16.199  0.2215 -0.0310  0.1192
15286TIP3    H167349   2.580   1.235  16.179 -0.2770  0.3345 -2.0473
15286TIP3    H267350   2.471   1.266  16.279  2.4410 -1.8224  1.8623
15287TIP3   OH267351   0.058   6.016   0.228 -0.4895 -0.3956  0.0592
15287TIP3    H167352   0.086   6.066   0.151  0.4558 -0.1357  0.5508
15287TIP3    H267353   0.004   5.946   0.193  0.4882 -0.6857 -0.9135
15288TIP3   OH267354   4.459   2.208   1.515 -0.3584  0.1765 -0.5659
15288TIP3    H167355   4.465   2.300   1.539  0.8292  0.6645 -2.5253
15288TIP3    H267356   4.373   2.200   1.473  0.5355  1.0455 -2.6944
15289TIP3   OH267357   6.000   2.095  15.314 -0.2988 -0.0694  0.2279
15289TIP3    H167358   6.029   2.011  15.349  0.8797  0.1562 -0.1601
15289TIP3    H267359   5.985   2.149  15.391  1.3728  0.1295  0.4539
15290TIP3   OH267360   4.216   2.097   3.863  0.0122 -0.2469 -0.2657
15290TIP3    H167361   4.124   2.084   3.841  0.2038  2.0849 -3.1066
15290TIP3    H267362   4.220   2.183   3.904  0.8717 -0.6493  0.5479
15291TIP3   OH267363   6.206   1.763   3.734  0.5932  0.5786  0.2089
15291TIP3    H167364   6.268   1.698   3.700  0.3927 -0.8044  2.3225
15291TIP3    H267365   6.164   1.720   3.809 -2.3312  1.7824 -0.6012
15292TIP3   OH267366   6.221   0.382  14.023  0.4554 -0.6404  0.0853
15292TIP3    H167367   6.211   0.402  13.930 -0.4893 -0.0886  0.2893
15292TIP3    H267368   6.140   0.415  14.063  0.1946 -2.1705  0.8921
15293TIP3   OH267369   3.286   3.987  12.569 -0.0668 -0.0324 -0.4504
15293TIP3    H167370   3.379   4.004  12.556  0.3815 -2.1423 -0.3610
15293TIP3    H267371   3.262   4.043  12.643  0.9645  0.9951 -0.8609
15294TIP3   OH267372   2.944   4.588  12.801 -0.6941  0.1672  0.5227
15294TIP3    H167373   2.909   4.656  12.859 -0.7698  0.3062  0.3171
15294TIP3    H267374   3.037   4.608  12.794 -1.1085  1.7818 -1.5278
15295TIP3   OH267375   1.363   2.940  14.643 -0.6991 -0.3891  0.3209
15295TIP3    H167376   1.336   2.976  14.727  0.2734 -1.0998  0.9648
15295TIP3    H267377   1.282   2.911  14.601 -1.4217  1.7772  0.1114
15296TIP3   OH267378   5.776   5.494   4.067 -0.3349  0.1420  0.4387
15296TIP3    H167379   5.684   5.515   4.084 -0.2797  3.0586 -2.0702
15296TIP3    H267380   5.824   5.530   4.141 -1.1270 -1.2358  1.6732
15297TIP3   OH267381   4.259   1.730   5.324  0.3555  0.3439 -0.9528
15297TIP3    H167382   4.174   1.711   5.284  0.5717 -1.1106 -0.7610
15297TIP3    H267383   4.242   1.805   5.381 -0.5118  0.8509 -1.8495
15298TIP3   OH267384   2.475   0.527   3.909  0.2113 -0.1848  0.8459
15298TIP3    H167385   2.416   0.452   3.912  0.2062 -0.1697  1.1085
15298TIP3    H267386   2.562   0.488   3.899  0.1494 -0.2029  0.3226
15299TIP3   OH267387   0.025   5.658  14.936 -0.2885 -0.1899 -0.1214
15299TIP3    H167388   0.120   5.665  14.925 -0.3773 -0.2808 -1.0427
15299TIP3    H267389  -0.004   5.748  14.950 -0.2073  0.0147 -1.1806
15300TIP3   OH267390   1.235   3.780   4.678 -0.3457 -0.1698  0.1726
15300TIP3    H167391   1.285   3.859   4.659  0.1796 -0.6952 -0.7113
15300TIP3    H267392   1.299   3.721   4.719 -0.5899 -0.3498  0.2953
15301TIP3   OH267393   1.414   5.334   3.165 -0.1703  0.3023 -0.1780
15301TIP3    H167394   1.323   5.364   3.170 -0.0795  0.7329 -1.0133
15301TIP3    H267395   1.418   5.262   3.227 -1.5801 -0.9782 -1.5044
15302TIP3   OH267396   3.410   5.270   5.646  0.3776  0.4709 -0.0881
15302TIP3    H167397   3.386   5.183   5.679  0.5900 -0.2795 -1.7690
15302TIP3    H267398   3.335   5.325   5.666  0.2996 -0.0652  1.1462
15303TIP3   OH267399   0.003   2.415   5.490  0.2175  0.1290  0.0924
15303TIP3    H167400   0.001   2.361   5.569  0.2782 -0.3221 -0.2097
15303TIP3    H267401   0.025   2.354   5.420  0.0267  0.4988 -0.2950
15304TIP3   OH267402   1.346   4.247   1.189 -0.2217  0.2005  0.2771
15304TIP3    H167403   1.422   4.205   1.150 -0.6170 -0.8754  0.6251
15304TIP3    H267404   1.272   4.195   1.158 -0.8118  1.1075  0.1080
15305TIP3   OH267405   5.054   1.071  11.577 -0.0283 -0.3652  0.0791
15305TIP3    H167406   5.038   0.981  11.545 -1.6350 -0.4043  0.8983
15305TIP3    H267407   5.073   1.121  11.497  2.4581 -1.6924 -0.2560
15306TIP3   OH267408   4.548   4.701  13.728 -0.1405  0.1475  0.2831
15306TIP3    H167409   4.465   4.665  13.697 -0.1928  0.7728 -0.3475
15306TIP3    H267410   4.584   4.747  13.652 -0.8928  2.8870  1.4572
15307TIP3   OH267411   4.498   6.112   3.466  0.0785  0.2378  0.2864
15307TIP3    H167412   4.540   6.043   3.416 -1.8323 -0.7881  0.0123
15307TIP3    H267413   4.433   6.149   3.407  1.4783  2.7701  0.1951
15308TIP3   OH267414   2.415   6.670  11.157  0.1912  0.1834 -0.1850
15308TIP3    H167415   2.477   6.711  11.097 -0.7680  0.0454 -1.3321
15308TIP3    H267416   2.349   6.737  11.173  1.3373  0.8315  2.1973
15309TIP3   OH267417   0.688   3.893  12.978 -0.3556  0.1307  0.2328
15309TIP3    H167418   0.648   3.914  13.062 -1.1020 -0.0453 -0.0748
15309TIP3    H267419   0.780   3.920  12.987 -0.7323  1.3038  0.6534
15310TIP3   OH267420   5.525   1.296   1.817 -0.0968 -0.1193  0.1143
15310TIP3    H167421   5.497   1.356   1.747 -0.9800  0.3610  0.8571
15310TIP3    H267422   5.445   1.250   1.843  0.2534 -0.4092  0.6998
15311TIP3   OH267423   2.833   5.046   2.221  0.1573  0.4387  0.7174
15311TIP3    H167424   2.785   5.036   2.303 -0.9944  0.5131  0.0783
15311TIP3    H267425   2.809   5.133   2.190 -0.0707  0.0939 -0.0934
15312TIP3   OH267426   0.206   1.367  13.645 -0.1564  0.3335 -0.6002
15312TIP3    H167427   0.170   1.363  13.734  0.0759  2.2341 -0.3762
15312TIP3    H267428   0.143   1.419  13.596  1.0685  1.6662 -0.8150
15313TIP3   OH267429   4.722   1.304  16.674  0.4835  0.2513  0.2869
15313TIP3    H167430   4.736   1.280  16.766 -0.4730  0.6024  0.5449
15313TIP3    H267431   4.706   1.221  16.630 -1.0912  0.2066  0.8489
15314TIP3   OH267432   1.646   1.354  11.308  0.4898 -0.3026 -0.1716
15314TIP3    H167433   1.682   1.395  11.387 -0.3308 -0.2688  0.1922
15314TIP3    H267434   1.690   1.399  11.236 -1.1724  2.0219  0.1619
15315TIP3   OH267435   6.077   4.032   2.930  0.0578 -0.2975  0.8760
15315TIP3    H167436   6.025   3.968   2.882  0.0128  0.4668 -0.1107
15315TIP3    H267437   6.057   4.015   3.022  0.2737 -1.8905  0.6497
15316TIP3   OH267438   6.437   4.407   4.519 -0.2608 -0.2764  0.2825
15316TIP3    H167439   6.511   4.372   4.470  0.2726  0.0088  0.8731
15316TIP3    H267440   6.392   4.464   4.457  1.0714  1.0069  0.4515
15317TIP3   OH267441   0.180   1.956  10.628 -0.3037  0.0489 -0.0298
15317TIP3    H167442   0.272   1.931  10.624  0.0374  0.3563  2.9729
15317TIP3    H267443   0.172   2.031  10.570  1.4762  0.2860 -0.0093
15318TIP3   OH267444   1.720   5.637  14.001 -0.3944 -0.6835 -0.4759
15318TIP3    H167445   1.684   5.714  14.046  1.1491  0.1463 -0.5915
15318TIP3    H267446   1.691   5.647  13.910 -2.2885 -1.5974 -0.0401
15319TIP3   OH267447   5.228   5.897   2.926  0.2935  0.1077  0.3867
15319TIP3    H167448   5.242   5.923   2.835  0.6858  1.9840  0.9218
15319TIP3    H267449   5.316   5.885   2.961  0.2840  1.8597  1.1229
15320TIP3   OH267450   4.097   1.500  10.372 -0.5405 -0.4657 -0.1463
15320TIP3    H167451   4.049   1.551  10.438  0.8323 -1.1152  1.4479
15320TIP3    H267452   4.188   1.503  10.402 -0.0498 -1.7391 -1.4122
15321TIP3   OH267453   0.106   0.410   1.801 -0.3188  0.3610 -0.0505
15321TIP3    H167454   0.174   0.477   1.808  0.1279 -0.1940  1.1989
15321TIP3    H267455   0.071   0.401   1.890  0.2683 -1.6930  0.0368
15322TIP3   OH267456   0.302   2.832   1.626  0.1080 -0.0191  0.4531
15322TIP3    H167457   0.208   2.842   1.609  0.4365  1.4391 -0.6774
15322TIP3    H267458   0.339   2.808   1.542  0.7407 -0.8300  0.9495
15323TIP3   OH267459   2.849   0.204  11.584  0.3707  0.7404 -0.1068
15323TIP3    H167460   2.784   0.247  11.528 -2.6493 -4.1859 -0.9702
15323TIP3    H267461   2.902   0.152  11.523  1.1219  0.0275  1.1218
15324TIP3   OH267462   3.466   3.334  10.867  0.0067  0.2642 -0.4903
15324TIP3    H167463   3.446   3.424  10.840  0.2892 -0.2386 -2.5671
15324TIP3    H267464   3.407   3.280  10.815 -4.0350 -0.7449  4.4103
15325TIP3   OH267465   2.510   1.043  14.282  0.0397 -0.2627 -0.5506
15325TIP3    H167466   2.599   1.010  14.292 -0.0566 -0.3496  0.0597
15325TIP3    H267467   2.468   0.983  14.221  1.0269  0.9998 -2.5626
15326TIP3   OH267468   6.788   2.987  16.191  0.1406 -0.5552  0.1014
15326TIP3    H167469   6.855   3.055  16.188  0.1902 -0.6441 -1.2165
15326TIP3    H267470   6.742   3.002  16.274  1.6813 -0.4015  0.9723
15327TIP3   OH267471   1.771   6.580   2.669  0.1185  0.1398 -0.1780
15327TIP3    H167472   1.684   6.594   2.631 -0.2296 -1.6596 -0.1073
15327TIP3    H267473   1.798   6.494   2.636  2.5907  1.3169 -1.5317
15328TIP3   OH267474   2.682   3.039   5.675  0.2386  0.4962 -0.2473
15328TIP3    H167475   2.647   2.953   5.698  2.0127 -0.2436 -0.1478
15328TIP3    H267476   2.621   3.102   5.714 -0.1530 -0.7244  1.1716
15329TIP3   OH267477   4.305   6.186  13.638 -0.1263  0.0619 -0.6363
15329TIP3    H167478   4.240   6.229  13.581 -0.7614  0.4690  0.3669
15329TIP3    H267479   4.276   6.207  13.727  1.3432  0.1630 -0.1612
15330TIP3   OH267480   3.596   3.858  13.824 -0.0410  0.4840 -0.0295
15330TIP3    H167481   3.562   3.940  13.861  0.7919  0.0496  1.8208
15330TIP3    H267482   3.548   3.789  13.870 -1.7384 -0.1456 -2.5550
15331TIP3   OH267483   5.738   2.655   4.062 -0.2565 -0.0172  0.1834
15331TIP3    H167484   5.820   2.690   4.027  1.0894  0.3377  3.3482
15331TIP3    H267485   5.695   2.615   3.986  0.2933  4.2362 -2.7730
15332TIP3   OH267486   0.328   0.630   3.616  0.1648 -0.0958 -0.4418
15332TIP3    H167487   0.271   0.599   3.686  0.1168  1.4423  0.2472
15332TIP3    H267488   0.309   0.573   3.542 -0.7032 -0.9608  0.4202
15333TIP3   OH267489   4.121   4.762  16.396 -0.4148  0.0763 -0.1347
15333TIP3    H167490   4.204   4.732  16.359  0.9337  1.4688  1.5685
15333TIP3    H267491   4.059   4.691  16.378  2.3176 -3.4777  2.9114
15334TIP3   OH267492   6.138   4.011  14.600 -0.5303 -0.2052  0.5765
15334TIP3    H167493   6.210   4.070  14.576 -2.5968  1.7033 -1.3306
15334TIP3    H267494   6.120   3.961  14.520 -0.7321 -1.3706  1.3238
15335TIP3   OH267495   0.890   1.594  16.583 -0.2667 -0.5576  0.0080
15335TIP3    H167496   0.806   1.621  16.546 -1.0707  1.0252  2.7044
15335TIP3    H267497   0.927   1.674  16.621  1.7329 -1.5340  0.2810
15336TIP3   OH267498   1.416   6.623   2.937  0.0715  0.2905  0.6598
15336TIP3    H167499   1.404   6.666   2.853 -0.5764  0.8230  1.0134
15336TIP3    H267500   1.507   6.642   2.962  0.7751 -1.1574 -0.6101
15337TIP3   OH267501   2.505   5.416  15.607  0.4850 -0.0528  0.0729
15337TIP3    H167502   2.471   5.474  15.675  1.6166  1.1244 -0.3280
15337TIP3    H267503   2.495   5.328  15.643 -2.2425  0.2592  0.2749
15338TIP3   OH267504   0.775   4.735   6.004  0.2152  0.7650 -0.3427
15338TIP3    H167505   0.827   4.664   5.965  0.8230 -0.0755  1.8075
15338TIP3    H267506   0.834   4.810   6.005  0.1526  0.8240 -1.1280
15339TIP3   OH267507   5.736   6.704   6.598  0.5530 -0.1627 -0.6318
15339TIP3    H167508   5.676   6.719   6.671 -0.2722  0.2006 -1.3486
15339TIP3    H267509   5.723   6.780   6.541  2.8058  0.6796 -0.1045
15340TIP3   OH267510   3.045   4.005  13.175 -0.1909 -0.1809 -0.2663
15340TIP3    H167511   3.041   3.995  13.270  2.2564  0.4951 -0.0357
15340TIP3    H267512   3.035   3.916  13.141  4.2637 -1.3980  0.9722
15341TIP3   OH267513   1.698   1.945  15.214  0.2585  0.2733  0.4366
15341TIP3    H167514   1.734   2.032  15.196  1.2192 -0.0257  0.8856
15341TIP3    H267515   1.707   1.898  15.131  0.5965  0.3038  0.4569
15342TIP3   OH267516   2.893   4.791  16.176  0.3330 -0.0259 -0.0511
15342TIP3    H167517   2.821   4.836  16.131  1.0159 -0.3582 -1.5591
15342TIP3    H267518   2.972   4.828  16.137  0.9338 -1.1238  0.0852
15343TIP3   OH267519   0.509   0.667   0.282  0.1179  0.1725 -0.4487
15343TIP3    H167520   0.532   0.604   0.213 -1.9751 -1.6495  0.3897
15343TIP3    H267521   0.416   0.685   0.267 -0.4394 -0.4064  1.9368
15344TIP3   OH267522   3.762   3.174   4.341  0.3597 -0.2902 -0.1751
15344TIP3    H167523   3.685   3.217   4.303 -0.0585 -2.1988 -1.6567
15344TIP3    H267524   3.726   3.098   4.388  1.1729  0.1339  1.1947
15345TIP3   OH267525   6.352   4.246  15.548  0.3445 -0.2645 -0.2581
15345TIP3    H167526   6.260   4.234  15.524  0.6097 -1.4287 -0.7262
15345TIP3    H267527   6.380   4.161  15.581  1.6136 -0.2888 -1.3298
15346TIP3   OH267528   1.446   5.361  14.839 -0.3097 -0.2954 -0.3356
15346TIP3    H167529   1.446   5.340  14.746 -1.4735 -0.0548 -0.4068
15346TIP3    H267530   1.375   5.424  14.850 -0.1344 -0.2491  0.7037
15347TIP3   OH267531   5.259   2.855  15.808  0.5015  0.5567 -0.2025
15347TIP3    H167532   5.249   2.878  15.900  1.2125  0.2882 -0.0557
15347TIP3    H267533   5.174   2.820  15.783  0.9531 -1.5345  0.9725
15348TIP3   OH267534   0.046   5.409   5.955  0.3627 -0.4526  0.0692
15348TIP3    H167535  -0.029   5.467   5.937 -0.7205 -1.7198  0.3289
15348TIP3    H267536   0.100   5.415   5.877  0.3652  1.0315  0.1576
15349TIP3   OH267537   1.845   1.434  12.365 -0.1162 -0.2244  0.4470
15349TIP3    H167538   1.784   1.485  12.419 -0.7479 -0.0960 -0.3516
15349TIP3    H267539   1.923   1.424  12.419  0.0376  1.6073  0.6344
15350TIP3   OH267540   4.154   1.945  17.001  0.2348  0.2134  0.6640
15350TIP3    H167541   4.157   1.988  17.086 -0.7412  1.8137 -0.0568
15350TIP3    H267542   4.227   1.982  16.952 -0.5122  0.9803  0.0927
15351TIP3   OH267543   5.058   0.801   2.694 -0.6774 -0.4360 -0.3081
15351TIP3    H167544   5.103   0.875   2.736 -0.4344 -0.8851  0.2239
15351TIP3    H267545   5.125   0.759   2.641 -0.5823 -0.8298  0.1212
15352TIP3   OH267546   3.485   3.989  15.193  0.5978 -0.0018 -0.4058
15352TIP3    H167547   3.400   3.950  15.211  0.0107  1.4123  0.0454
15352TIP3    H267548   3.525   3.931  15.128 -0.6052 -0.8127 -0.4571
15353TIP3   OH267549   1.632   3.108   2.796  0.1640 -0.9549  0.3606
15353TIP3    H167550   1.612   3.059   2.875  1.2121 -1.1370  0.5264
15353TIP3    H267551   1.702   3.167   2.821 -0.9961  0.5933  0.1358
15354TIP3   OH267552   2.182   1.494  10.100  0.1403  0.2818  0.1385
15354TIP3    H167553   2.160   1.452  10.183 -1.3131  0.5232 -0.0894
15354TIP3    H267554   2.232   1.428  10.052 -1.5169 -0.9683  0.0554
15355TIP3   OH267555   4.455   4.296   1.141  0.4556  0.1960 -0.2959
15355TIP3    H167556   4.463   4.368   1.204  0.3041  0.0910 -0.1565
15355TIP3    H267557   4.392   4.328   1.076  0.3871  0.1890 -0.2332
15356TIP3   OH267558   2.942   4.097  14.870 -0.9335 -0.0513 -0.8111
15356TIP3    H167559   2.867   4.119  14.924 -1.1023 -1.1648 -0.5679
15356TIP3    H267560   2.991   4.031  14.921 -0.2083  0.0962 -1.2911
15357TIP3   OH267561   5.010   4.201   3.029  0.0785 -0.0416 -0.0752
15357TIP3    H167562   5.058   4.283   3.039  0.0802  0.1023 -1.2123
15357TIP3    H267563   5.025   4.155   3.112 -1.6446  1.9894  1.4803
15358TIP3   OH267564   5.364   1.664  14.210  0.0495  0.0952  0.3289
15358TIP3    H167565   5.434   1.604  14.183  1.2525  2.2133 -1.6431
15358TIP3    H267566   5.355   1.650  14.305  1.8513 -1.5470  0.3144
15359TIP3   OH267567   2.411   2.091  11.597  0.0921 -0.4220 -0.0150
15359TIP3    H167568   2.465   2.067  11.673 -0.5530 -0.5127  0.4291
15359TIP3    H267569   2.459   2.162  11.555  1.3794 -1.5992 -0.5966
15360TIP3   OH267570   3.363   1.719   4.611 -0.1730 -0.1175  0.3944
15360TIP3    H167571   3.427   1.790   4.612 -1.4220  1.0767  2.5894
15360TIP3    H267572   3.281   1.761   4.584 -0.2436 -1.4851 -1.7448
15361TIP3   OH267573   2.344   4.182  13.942  0.4665 -0.2110  0.3828
15361TIP3    H167574   2.421   4.126  13.933  1.0460  0.0453  2.8827
15361TIP3    H267575   2.270   4.121  13.952  0.7184 -0.4997  0.4897
15362TIP3   OH267576   1.312   2.600  13.066 -0.0200  0.1498 -0.1938
15362TIP3    H167577   1.368   2.674  13.088 -0.0630 -0.1283  0.8983
15362TIP3    H267578   1.314   2.544  13.143 -0.4326 -0.7200 -0.7939
15363TIP3   OH267579   1.840   0.431  13.701  0.0219  0.2765  0.5885
15363TIP3    H167580   1.868   0.468  13.785  0.2596  0.2195  0.5349
15363TIP3    H267581   1.916   0.379  13.672 -0.0394  0.3463  0.3109
15364TIP3   OH267582   5.918   3.958   4.352 -0.4958 -0.0044 -0.0625
15364TIP3    H167583   6.009   3.930   4.355 -1.0838 -2.3683 -1.4477
15364TIP3    H267584   5.879   3.923   4.432 -0.5313 -0.5539 -0.3087
15365TIP3   OH267585   2.323   2.725  13.580  0.2280  0.2366  0.0819
15365TIP3    H167586   2.390   2.759  13.520  0.5833 -0.3172  0.1567
15365TIP3    H267587   2.309   2.635  13.551 -0.4368  0.3258  0.1159
15366TIP3   OH267588   6.000   0.295   4.069 -0.0850 -0.2168  0.0245
15366TIP3    H167589   5.938   0.333   4.132  1.1571  2.1401 -0.0809
15366TIP3    H267590   6.017   0.207   4.102  0.0647  0.7276  2.6776
15367TIP3   OH267591   1.170   4.259   4.773  0.1833 -0.1472  0.0128
15367TIP3    H167592   1.233   4.237   4.704 -0.7082  1.3893 -1.3435
15367TIP3    H267593   1.163   4.354   4.770 -1.5728 -0.2249  0.7052
15368TIP3   OH267594   2.709   3.251   4.809 -0.6313  0.1488  0.2709
15368TIP3    H167595   2.654   3.267   4.886 -1.1454 -0.9343  0.1523
15368TIP3    H267596   2.795   3.285   4.834 -0.8695  0.1060  1.2137
15369TIP3   OH267597   5.309   2.638   3.398 -1.1394  0.9532 -0.2797
15369TIP3    H167598   5.384   2.621   3.342 -1.0363  0.5508 -0.0281
15369TIP3    H267599   5.272   2.551   3.415 -0.6451  0.9617  0.9890
15370TIP3   OH267600   6.785   5.487  10.754  0.1632 -0.5235 -0.0520
15370TIP3    H167601   6.735   5.417  10.797  1.3866 -0.9772  0.6635
15370TIP3    H267602   6.720   5.555  10.737 -1.0709 -1.8148 -0.7752
15371TIP3   OH267603   3.584   3.456   6.064 -0.4272  0.3200 -0.0208
15371TIP3    H167604   3.566   3.398   6.139 -0.1895 -0.1055 -0.2862
15371TIP3    H267605   3.548   3.541   6.090  0.9657  0.5748  1.1962
15372TIP3   OH267606   1.339   2.817   0.154  0.1188 -0.0532  0.5002
15372TIP3    H167607   1.306   2.818   0.244  0.1156 -0.9855  0.5189
15372TIP3    H267608   1.277   2.762   0.106  1.7005 -1.9851  0.5649
15373TIP3   OH267609   5.953   1.782   4.162 -0.4068 -0.0487  0.9808
15373TIP3    H167610   6.034   1.791   4.212 -0.2984 -0.4749  0.8874
15373TIP3    H267611   5.969   1.707   4.104 -0.6326  0.2598  0.5095
15374TIP3   OH267612   0.593   5.735  11.450 -0.0861  0.1187 -0.2178
15374TIP3    H167613   0.680   5.708  11.422  0.1412  1.4175 -0.8278
15374TIP3    H267614   0.603   5.761  11.541  0.2793  0.7461 -0.4346
15375TIP3   OH267615   4.851   4.662   4.172 -0.5100 -0.1741  0.5003
15375TIP3    H167616   4.800   4.743   4.177 -2.1048 -1.0677 -0.4684
15375TIP3    H267617   4.831   4.616   4.254 -0.5497 -0.1272  0.5169
15376TIP3   OH267618   1.386   5.243  13.129  0.2475 -0.2329  0.7039
15376TIP3    H167619   1.328   5.203  13.064 -0.0721  0.6406  0.4411
15376TIP3    H267620   1.369   5.194  13.210 -0.9845  0.1235  0.6730
15377TIP3   OH267621   4.813   0.581   5.589 -0.4061  0.1631  0.2133
15377TIP3    H167622   4.825   0.674   5.609 -0.4172 -0.0948  1.5249
15377TIP3    H267623   4.757   0.580   5.512 -0.7762  1.2400  0.4470
15378TIP3   OH267624   6.274   5.340  13.369  0.3039  0.4130 -0.7559
15378TIP3    H167625   6.223   5.321  13.290  0.9400 -0.3782 -0.9818
15378TIP3    H267626   6.253   5.268  13.429 -1.8006  2.0430  0.6504
15379TIP3   OH267627   3.763   0.765  13.888  0.1995 -0.6184 -0.0960
15379TIP3    H167628   3.821   0.822  13.939 -0.4028  1.3939 -1.5543
15379TIP3    H267629   3.801   0.766  13.800 -1.1322 -0.5819 -0.6869
15380TIP3   OH267630   1.717   5.934   1.959  0.0986 -0.5848 -0.5382
15380TIP3    H167631   1.767   5.855   1.979  2.6998  1.0155 -0.3103
15380TIP3    H267632   1.660   5.945   2.035  1.2753 -1.0929  0.4611
15381TIP3   OH267633   0.325   3.177   5.619 -1.1179 -0.1534 -0.2179
15381TIP3    H167634   0.331   3.186   5.715 -0.7985 -2.5029  0.0460
15381TIP3    H267635   0.416   3.162   5.592 -1.1907  0.6411 -0.9281
15382TIP3   OH267636   4.959   2.809  13.697 -0.1360  0.0819  0.1179
15382TIP3    H167637   4.992   2.723  13.721 -0.2415  0.3950  1.4532
15382TIP3    H267638   4.999   2.869  13.761  0.1872  1.0680 -0.9774
15383TIP3   OH267639   1.173   2.420  12.917 -0.4897 -0.1150 -0.1292
15383TIP3    H167640   1.097   2.404  12.974 -0.3103  0.8921  0.4082
15383TIP3    H267641   1.219   2.492  12.958  0.5539 -0.4534 -0.6812
15384TIP3   OH267642   0.939   2.376   0.523 -0.0650  0.1939  0.4501
15384TIP3    H167643   0.963   2.334   0.605 -0.1991  0.1980  0.4921
15384TIP3    H267644   0.916   2.466   0.547  0.9396  0.5102  0.2577
15385TIP3   OH267645   2.666   4.029   5.003  0.2573 -0.1058  0.5203
15385TIP3    H167646   2.657   4.052   5.096  0.2939  0.5649  0.3569
15385TIP3    H267647   2.649   4.110   4.956 -1.1825 -0.7675 -0.1335
15386TIP3   OH267648   5.887   5.201  15.078  0.1383  0.5053 -0.1466
15386TIP3    H167649   5.792   5.186  15.081  0.0619  1.1434  1.1120
15386TIP3    H267650   5.911   5.221  15.168  1.8223 -1.6531 -0.0262
15387TIP3   OH267651   2.018   1.021   2.808  0.2014 -0.2890 -0.0471
15387TIP3    H167652   2.074   0.960   2.857 -0.4362  0.1203  1.2321
15387TIP3    H267653   2.047   1.108   2.837  0.6509  0.0261 -1.3553
15388TIP3   OH267654   4.131   6.509  14.201  0.2975 -0.0195 -0.6061
15388TIP3    H167655   4.167   6.463  14.276 -1.1089  0.0947  0.1788
15388TIP3    H267656   4.188   6.585  14.189  0.8813 -0.3627 -0.0309
15389TIP3   OH267657   1.663   0.245  16.925  0.0648 -0.1392 -0.1811
15389TIP3    H167658   1.659   0.184  16.851 -2.5936 -0.6325  0.2775
15389TIP3    H267659   1.590   0.305  16.911  1.5359  1.8839  0.3541
15390TIP3   OH267660   0.016   5.015   3.621  0.0460 -0.5154  0.2155
15390TIP3    H167661  -0.055   4.951   3.631  0.4515 -1.1325 -0.7359
15390TIP3    H267662   0.091   4.963   3.592  0.2253  0.4645 -1.1376
15391TIP3   OH267663   1.199   5.226  12.567  0.0334 -0.7546 -0.2838
15391TIP3    H167664   1.174   5.188  12.483  0.7426  0.2197 -0.9485
15391TIP3    H267665   1.141   5.184  12.630 -0.6982 -1.2948 -1.2905
15392TIP3   OH267666   4.902   2.029   3.344 -0.0716 -0.1915 -0.0806
15392TIP3    H167667   4.950   2.103   3.306  0.9578 -0.9912 -0.3875
15392TIP3    H267668   4.852   1.992   3.271  0.0541 -0.2893 -0.1180
15393TIP3   OH267669   6.696   2.721   2.277  0.2141 -0.7476 -0.6677
15393TIP3    H167670   6.727   2.795   2.331 -1.4282  0.8809 -1.8262
15393TIP3    H267671   6.606   2.706   2.307 -0.3102 -0.6139 -2.1158
15394TIP3   OH267672   3.856   4.746  15.129  0.2325  0.0940  0.0358
15394TIP3    H167673   3.838   4.684  15.059  0.4920 -2.2531  1.9190
15394TIP3    H267674   3.945   4.776  15.112  0.0311  0.1421 -1.0065
15395TIP3   OH267675   6.835   4.672  12.039  0.3097  0.2918 -0.2553
15395TIP3    H167676   6.863   4.605  12.101  0.9296  1.4228  0.7240
15395TIP3    H267677   6.751   4.703  12.073  0.0749  0.0991 -0.6480
15396TIP3   OH267678   3.871   3.194  12.908  0.1005  0.2313  0.2928
15396TIP3    H167679   3.827   3.275  12.932  0.1092  0.0612  0.8919
15396TIP3    H267680   3.937   3.181  12.976  0.1381 -0.2502  0.1686
15397TIP3   OH267681   3.709   2.657  14.751 -0.6572  0.2854  0.3302
15397TIP3    H167682   3.794   2.619  14.728 -0.6678  0.6421 -0.3106
15397TIP3    H267683   3.674   2.597  14.817  0.6211  0.7805  1.5207
15398TIP3   OH267684   3.259   4.894  12.610 -0.5169  0.4089  0.2646
15398TIP3    H167685   3.330   4.943  12.652  1.8502 -0.7505 -2.0781
15398TIP3    H267686   3.244   4.819  12.668 -0.0138  0.8015  0.9238
15399TIP3   OH267687   0.973   4.271  15.675 -0.3148  0.2544  0.3062
15399TIP3    H167688   1.066   4.251  15.662 -0.6333 -0.4015 -1.1086
15399TIP3    H267689   0.932   4.251  15.591 -1.8675 -0.2266  1.1470
15400TIP3   OH267690   3.907   0.392   0.454 -0.4263 -0.1913  0.1608
15400TIP3    H167691   3.815   0.415   0.455 -0.7857 -1.4067 -1.3434
15400TIP3    H267692   3.916   0.328   0.383  1.4881 -0.4397  0.5498
15401TIP3   OH267693   6.459   2.666  11.872 -0.2806 -0.1370 -0.7325
15401TIP3    H167694   6.539   2.627  11.837  0.3783  1.4235 -1.0368
15401TIP3    H267695   6.410   2.592  11.906  1.0512 -1.1979 -1.0157
15402TIP3   OH267696   1.594   6.260  16.322  0.0992 -0.3376  0.4839
15402TIP3    H167697   1.668   6.264  16.262  0.7414 -0.2480  1.2625
15402TIP3    H267698   1.545   6.183  16.294 -1.1942  1.2417 -1.9108
15403TIP3   OH267699   4.053   5.192   1.448  0.6687  0.3168 -0.6827
15403TIP3    H167700   4.014   5.106   1.432 -1.4441  1.2118 -0.6571
15403TIP3    H267701   4.048   5.203   1.543  0.3313  0.7389 -0.7495
15404TIP3   OH267702   5.217   0.166   4.096 -0.3343 -0.4822  0.4997
15404TIP3    H167703   5.205   0.071   4.096 -1.3377 -0.3713  1.1889
15404TIP3    H267704   5.224   0.190   4.188  1.1710 -0.0076  0.2936
15405TIP3   OH267705   2.606   2.510   1.498  0.0270  0.0329 -0.0793
15405TIP3    H167706   2.637   2.493   1.409  0.2138 -0.3389  0.0562
15405TIP3    H267707   2.535   2.447   1.511 -0.6242  0.7135 -0.2995
15406TIP3   OH267708   1.985   1.093  17.070 -0.2469 -0.1386  0.7785
15406TIP3    H167709   1.926   1.049  17.132 -0.7287 -0.1950  0.2882
15406TIP3    H267710   2.072   1.085  17.110 -0.4356 -0.8875  1.0551
15407TIP3   OH267711   3.087   1.963  14.169  0.3481  0.9319 -0.0220
15407TIP3    H167712   3.031   2.039  14.159 -0.1036  0.5677 -0.2819
15407TIP3    H267713   3.053   1.899  14.106  0.6697  0.4871  0.2470
15408TIP3   OH267714   2.359   2.310   2.739 -0.0415 -0.1137 -0.0146
15408TIP3    H167715   2.394   2.304   2.828  0.2570  1.0969 -0.0285
15408TIP3    H267716   2.325   2.223   2.721  0.1642 -0.4661  1.1734
15409TIP3   OH267717   1.279   6.818  15.552 -0.9748  0.0517  0.1476
15409TIP3    H167718   1.356   6.799  15.499  0.2654  1.7015  1.2437
15409TIP3    H267719   1.207   6.773  15.508  0.3309 -0.2314 -1.8068
15410TIP3   OH267720   6.188   2.520  12.737 -0.1929 -0.2352  0.0547
15410TIP3    H167721   6.118   2.535  12.800  1.5255  2.5737  1.5515
15410TIP3    H267722   6.253   2.469  12.786 -0.7619 -2.0920 -1.0427
15411TIP3   OH267723   2.736   1.967   6.347 -0.0256  0.1895  0.5402
15411TIP3    H167724   2.790   1.896   6.383 -1.2760 -1.2701 -0.3409
15411TIP3    H267725   2.783   2.047   6.370  2.9993 -1.0176 -0.9787
15412TIP3   OH267726   5.464   0.508  14.339 -0.4343 -0.8214  0.9209
15412TIP3    H167727   5.452   0.413  14.346  1.1192 -1.4541 -2.6822
15412TIP3    H267728   5.385   0.540  14.296 -0.3940 -0.6743  0.9552
15413TIP3   OH267729   6.846   0.358  15.584  0.0800  0.2556 -0.3338
15413TIP3    H167730   6.774   0.418  15.562  0.2272  0.3194 -0.6533
15413TIP3    H267731   6.898   0.354  15.504 -1.1335 -2.0270 -1.1133
15414TIP3   OH267732   4.828   1.259   4.224  0.2647 -0.0792  0.0083
15414TIP3    H167733   4.886   1.293   4.292 -0.5835  1.0648  0.1729
15414TIP3    H267734   4.740   1.278   4.255 -0.1583 -0.1024 -1.1204
15415TIP3   OH267735   3.871   2.513   4.667 -0.4752  0.3005  0.0621
15415TIP3    H167736   3.790   2.488   4.623 -0.3667 -2.0846  1.0803
15415TIP3    H267737   3.848   2.520   4.759  0.5108 -0.6350  0.3954
15416TIP3   OH267738   5.385   4.502  14.959  0.4606  0.2495  0.4302
15416TIP3    H167739   5.392   4.406  14.959 -0.2590  0.1839 -0.1180
15416TIP3    H267740   5.439   4.530  15.033  0.6069 -0.5874  0.6552
15417TIP3   OH267741   2.614   6.259   0.171 -0.3650 -0.3522  0.0764
15417TIP3    H167742   2.649   6.193   0.232 -0.0517 -0.8185 -0.6011
15417TIP3    H267743   2.626   6.220   0.085 -0.0760  0.6387 -0.3390
15418TIP3   OH267744   2.701   0.764  14.881 -0.8246  0.0736  0.0001
15418TIP3    H167745   2.608   0.780  14.871 -0.8505 -0.5284 -0.8673
15418TIP3    H267746   2.740   0.851  14.891 -1.2463  0.5087 -1.8305
15419TIP3   OH267747   0.519   3.815   4.580 -0.2389  0.4395  0.3028
15419TIP3    H167748   0.557   3.863   4.507  0.0625 -0.1841  0.0481
15419TIP3    H267749   0.472   3.882   4.630 -0.1361  0.9348 -0.2498
15420TIP3   OH267750   5.137   2.251  16.746 -0.4025  0.2844 -0.4016
15420TIP3    H167751   5.227   2.265  16.774  0.7441 -1.6638 -2.8150
15420TIP3    H267752   5.108   2.337  16.716  0.6419  0.9191  0.3325
15421TIP3   OH267753   5.753   4.404  15.388  0.2045  0.1972 -0.1509
15421TIP3    H167754   5.733   4.486  15.434  2.1797  1.5162 -1.4652
15421TIP3    H267755   5.843   4.415  15.359  0.5278 -2.5013 -0.3605
15422TIP3   OH267756   2.706   1.380  16.614 -0.1273 -0.2585 -0.0273
15422TIP3    H167757   2.767   1.321  16.658  0.5942 -0.1570 -0.8615
15422TIP3    H267758   2.735   1.381  16.523 -0.3735  1.0888 -0.1106
15423TIP3   OH267759   6.049   5.903  13.166 -0.0902 -0.2681  0.3769
15423TIP3    H167760   6.031   5.839  13.097 -0.7121 -0.3881  0.6428
15423TIP3    H267761   6.134   5.940  13.143 -1.0697  0.9819 -1.4520
15424TIP3   OH267762   0.550   2.363  12.667  0.0633  0.2998 -0.6267
15424TIP3    H167763   0.593   2.334  12.748  0.2662  0.7887 -0.5555
15424TIP3    H267764   0.460   2.332  12.674  0.1504  0.1138 -0.3317
15425TIP3   OH267765   1.823   6.732   4.180 -0.2524  0.0433 -0.3421
15425TIP3    H167766   1.855   6.803   4.126 -0.3048  1.0982  0.9622
15425TIP3    H267767   1.728   6.742   4.182 -0.2924 -0.2861 -0.4520
15426TIP3   OH267768   3.886   1.894   1.193 -0.0581  0.0476  0.0658
15426TIP3    H167769   3.794   1.918   1.198 -0.6073 -1.8805  0.2146
15426TIP3    H267770   3.910   1.909   1.102 -0.7531 -0.1413 -0.1569
15427TIP3   OH267771   6.136   0.142  12.831 -0.4309  0.1392 -0.6077
15427TIP3    H167772   6.043   0.164  12.835 -0.1201  1.3931  2.6331
15427TIP3    H267773   6.138   0.046  12.835 -1.5586  0.0930 -0.8585
15428TIP3   OH267774   4.944   1.166  14.684  0.3360 -0.2816 -0.1162
15428TIP3    H167775   4.947   1.104  14.611 -1.2171 -0.5240 -0.0231
15428TIP3    H267776   4.915   1.114  14.758 -1.6576  0.6237 -0.1835
15429TIP3   OH267777   2.770   5.394  13.141 -0.0012 -0.2732  0.3968
15429TIP3    H167778   2.803   5.346  13.217  1.8990  0.6366  0.2112
15429TIP3    H267779   2.832   5.374  13.071  0.7220  2.1535  0.2436
15430TIP3   OH267780   0.538   2.416  10.919 -0.4034 -0.2159  0.8097
15430TIP3    H167781   0.492   2.492  10.884 -1.7895 -1.2065  0.3884
15430TIP3    H267782   0.501   2.342  10.871  1.4217 -1.1091  0.6926
15431TIP3   OH267783   5.267   1.521  16.840 -0.3705  0.0345  0.6460
15431TIP3    H167784   5.248   1.484  16.927  0.6288 -0.8808  0.5105
15431TIP3    H267785   5.284   1.444  16.786 -0.3138  0.6324 -0.1931
15432TIP3   OH267786   2.723   2.174  13.038 -0.1003  0.6901  0.1354
15432TIP3    H167787   2.768   2.135  13.112 -1.1083 -1.5081 -0.3196
15432TIP3    H267788   2.651   2.114  13.019 -1.2959  2.4042 -1.1564
15433TIP3   OH267789   0.053   3.035  12.314 -0.8994 -0.3138 -0.4043
15433TIP3    H167790   0.009   3.045  12.229  0.1445  2.1551 -0.7441
15433TIP3    H267791  -0.018   3.043  12.378 -1.4261 -0.0612 -0.9989
15434TIP3   OH267792   5.194   5.752   6.744  0.2145  0.0758  0.5576
15434TIP3    H167793   5.163   5.667   6.711  1.2117  0.1328 -0.5885
15434TIP3    H267794   5.123   5.782   6.801 -0.2866 -1.3847  0.7599
15435TIP3   OH267795   4.079   4.542   3.559 -0.6303  0.1606 -0.1657
15435TIP3    H167796   4.040   4.623   3.592 -0.7476 -0.1178  0.3923
15435TIP3    H267797   4.013   4.507   3.499 -2.0386 -1.1499  1.9969
15436TIP3   OH267798   6.634   4.322  16.053 -0.4411 -0.1904 -0.4555
15436TIP3    H167799   6.668   4.363  15.974  0.5620  1.0619  0.5746
15436TIP3    H267800   6.563   4.379  16.082  0.4865  0.4876  0.5879
15437TIP3   OH267801   5.201   2.653   4.804  0.5014  0.2751  0.1408
15437TIP3    H167802   5.254   2.685   4.877  1.6147 -1.1224 -0.0313
15437TIP3    H267803   5.118   2.700   4.814  0.2599 -0.5517  2.8647
15438TIP3   OH267804   1.108   1.128  10.734  0.4404  0.1604 -0.3083
15438TIP3    H167805   1.130   1.038  10.712 -0.3240  0.1814 -1.1821
15438TIP3    H267806   1.186   1.161  10.781 -0.1272 -1.6315  2.0945
15439TIP3   OH267807   3.067   3.008   6.003 -0.3407  0.3280  0.2975
15439TIP3    H167808   3.138   2.982   6.062 -1.5418 -0.2444  1.5538
15439TIP3    H267809   3.104   3.079   5.951  0.9039  0.5889  1.4687
15440TIP3   OH267810   0.447   2.691   2.752 -0.6313  0.2845  0.1740
15440TIP3    H167811   0.358   2.668   2.778 -0.2998 -1.4296 -0.0899
15440TIP3    H267812   0.450   2.674   2.658 -0.2640  1.1813  0.0096
15441TIP3   OH267813   2.800   1.024  12.266 -0.2655  0.1736  0.0768
15441TIP3    H167814   2.788   0.970  12.188 -1.0439 -1.6534  1.3797
15441TIP3    H267815   2.886   0.999  12.300 -0.4662  0.0185  0.4805
15442TIP3   OH267816   2.712   2.382   1.239 -0.6534 -0.1974 -0.3719
15442TIP3    H167817   2.777   2.411   1.176  1.3310 -0.6025  1.3817
15442TIP3    H267818   2.741   2.295   1.265 -2.5412 -0.8623 -0.3409
15443TIP3   OH267819   5.673   6.413   5.004 -0.1904 -0.5504  0.3973
15443TIP3    H167820   5.649   6.504   4.987 -0.6255 -0.6163  0.6365
15443TIP3    H267821   5.688   6.375   4.918  0.1052 -0.2206  0.3027
15444TIP3   OH267822   5.444   6.468   3.225 -0.5385  0.1292 -0.0350
15444TIP3    H167823   5.501   6.531   3.181  1.4969 -0.4574  1.6117
15444TIP3    H267824   5.360   6.514   3.235 -0.0808  1.3895 -1.6431
15445TIP3   OH267825   2.005   5.923   5.194 -0.2618 -0.1593 -0.6398
15445TIP3    H167826   2.078   5.873   5.230  0.5153  0.2163 -1.6577
15445TIP3    H267827   1.936   5.858   5.180  0.1988 -0.6797 -0.5193
15446TIP3   OH267828   2.733   0.338  11.825 -0.1165 -0.9214 -0.3637
15446TIP3    H167829   2.794   0.269  11.852 -0.3683 -1.6668 -1.6188
15446TIP3    H267830   2.711   0.316  11.734  0.4400  1.2571 -1.0983
15447TIP3   OH267831   6.324   5.698  11.216 -0.2209 -0.1522 -0.1711
15447TIP3    H167832   6.326   5.613  11.260  0.9001  0.1912  0.4791
15447TIP3    H267833   6.258   5.748  11.263  0.4947 -0.0157  0.7122
15448TIP3   OH267834   5.954   5.853  11.672 -0.5103 -0.3182  0.4914
15448TIP3    H167835   5.895   5.828  11.743  0.3104  1.1914  1.7462
15448TIP3    H267836   5.928   5.942  11.650 -0.2666 -0.5112 -0.6304
15449TIP3   OH267837   2.319   6.394  15.303  0.4288  0.0673 -1.2295
15449TIP3    H167838   2.337   6.442  15.384 -0.8774 -0.2894 -0.7056
15449TIP3    H267839   2.386   6.424  15.242  1.6574  0.0755  0.0864
15450TIP3   OH267840   3.029   5.975   3.555  0.2831  0.4655  0.3142
15450TIP3    H167841   2.957   5.964   3.617  0.0910  1.8113  0.3615
15450TIP3    H267842   2.986   5.990   3.470  0.5425 -1.1498 -0.1397
15451TIP3   OH267843   0.352   3.158   1.303  0.1988  0.0174 -0.0411
15451TIP3    H167844   0.434   3.164   1.254  0.5153  0.8746  0.5691
15451TIP3    H267845   0.321   3.068   1.288  1.2077 -0.2877 -0.3305
15452TIP3   OH267846   3.836   4.886  16.162  0.3310 -0.2965 -0.8654
15452TIP3    H167847   3.913   4.934  16.131  1.5640 -2.1294 -0.8076
15452TIP3    H267848   3.797   4.943  16.228  2.9188 -0.1832  0.7266
15453TIP3   OH267849   0.138   6.005  12.981  0.0492 -0.6948  0.2241
15453TIP3    H167850   0.185   5.944  12.923  1.4530 -0.1290  0.7184
15453TIP3    H267851   0.130   6.085  12.929  1.2164 -0.2212  0.7349
15454TIP3   OH267852   5.163   3.872  11.437  0.2254 -0.1938 -0.4948
15454TIP3    H167853   5.159   3.966  11.417  0.4688  0.1346  0.8836
15454TIP3    H267854   5.100   3.861  11.508  1.7960 -0.6408  0.8790
15455TIP3   OH267855   5.902   2.930  14.479 -0.0335  0.1101 -0.3349
15455TIP3    H167856   5.968   2.930  14.409  0.1299 -0.6620 -0.1872
15455TIP3    H267857   5.888   3.023  14.498 -0.4465  0.3618 -1.7287
15456TIP3   OH267858   6.098   2.843  12.422  0.2942 -0.1657  0.9477
15456TIP3    H167859   6.158   2.887  12.361  0.0266  0.1440  0.9015
15456TIP3    H267860   6.028   2.907  12.436 -0.0999 -0.5793  0.8843
15457TIP3   OH267861   1.156   1.258  16.355 -0.2563 -0.1597 -0.3896
15457TIP3    H167862   1.219   1.206  16.306 -0.0650 -0.2349 -0.0664
15457TIP3    H267863   1.139   1.207  16.435  1.6270  1.2585  1.0161
15458TIP3   OH267864   2.322   5.215   4.539  0.2414 -0.1736  0.4204
15458TIP3    H167865   2.336   5.307   4.563  0.7706  0.2949 -1.5068
15458TIP3    H267866   2.404   5.172   4.562  0.2932  0.0128  0.5891
15459TIP3   OH267867   3.318   6.396  12.147 -0.3228  0.2549 -0.7671
15459TIP3    H167868   3.284   6.483  12.169  0.2971  0.6576 -1.3504
15459TIP3    H267869   3.316   6.348  12.230 -0.6813  0.8206 -0.4397
15460TIP3   OH267870   0.788   3.669   0.959 -0.6649 -0.7836  0.3430
15460TIP3    H167871   0.725   3.737   0.984 -1.6114 -1.1442 -0.9419
15460TIP3    H267872   0.741   3.615   0.896  0.4722 -1.9360  0.4433
15461TIP3   OH267873   6.086   6.543  12.486  1.0684 -0.0548 -0.0451
15461TIP3    H167874   6.161   6.497  12.524  1.1565  0.0571 -0.0811
15461TIP3    H267875   6.045   6.478  12.429  0.8555 -0.2661  0.3440
15462TIP3   OH267876   0.965   5.941   1.587 -0.2119  0.5405  0.3182
15462TIP3    H167877   1.017   6.002   1.535 -0.9741 -0.0626 -1.2084
15462TIP3    H267878   1.020   5.862   1.592  0.4169  1.0237  1.5881
15463TIP3   OH267879   4.438   2.137  14.600  0.1817 -0.0937 -0.8150
15463TIP3    H167880   4.450   2.186  14.518 -2.9232  2.9175  0.3010
15463TIP3    H267881   4.343   2.138  14.614  0.5071 -1.6785  2.1805
15464TIP3   OH267882   1.777   0.034   1.240 -0.0434  0.5704  0.3782
15464TIP3    H167883   1.697   0.048   1.291  0.1267  1.5920  0.3896
15464TIP3    H267884   1.804   0.122   1.214 -0.5010  0.0674 -2.0761
15465TIP3   OH267885   3.020   2.181  17.047  0.4254  0.1487 -0.4995
15465TIP3    H167886   3.031   2.091  17.017 -0.0049 -0.0435 -0.1011
15465TIP3    H267887   2.927   2.187  17.070  0.0935  1.1488 -1.9562
15466TIP3   OH267888   0.167   0.069  12.094 -0.8487  0.1026  0.1080
15466TIP3    H167889   0.223   0.040  12.022  0.7733  0.4941  1.1559
15466TIP3    H267890   0.223   0.065  12.172 -1.7159  2.2316  0.9378
15467TIP3   OH267891   3.418   0.912   2.738 -0.2738 -0.0672  0.2457
15467TIP3    H167892   3.501   0.894   2.693 -0.9310  0.9228 -1.4535
15467TIP3    H267893   3.371   0.828   2.733 -0.4438  0.0860 -1.2203
15468TIP3   OH267894   6.378   4.323   4.809  0.1789 -0.0924 -0.0946
15468TIP3    H167895   6.305   4.383   4.824 -0.5579 -0.8520 -0.5614
15468TIP3    H267896   6.406   4.343   4.720  0.2130 -0.1599 -0.0984
15469TIP3   OH267897   3.128   2.868  13.844 -0.5892  0.5758 -0.4292
15469TIP3    H167898   3.170   2.926  13.908 -2.6486  2.3182 -0.5397
15469TIP3    H267899   3.133   2.917  13.762 -2.3587  0.6461 -0.5274
15470TIP3   OH267900   1.367   4.623  15.946  0.1732 -0.5122 -0.0124
15470TIP3    H167901   1.389   4.622  15.853 -0.9504  0.2739 -0.3052
15470TIP3    H267902   1.348   4.532  15.968 -0.1177 -0.6159 -0.6886
15471TIP3   OH267903   5.400   5.314  14.996 -0.0583 -0.0862 -0.0300
15471TIP3    H167904   5.493   5.329  14.978 -0.1696 -0.1728 -0.7024
15471TIP3    H267905   5.380   5.232  14.952 -0.5659  0.1735 -0.2993
15472TIP3   OH267906   3.131   3.468   1.608  0.0627 -0.8956  0.1187
15472TIP3    H167907   3.125   3.501   1.519  0.4715 -0.9183  0.0805
15472TIP3    H267908   3.130   3.547   1.663  0.2512 -0.8591  0.0702
15473TIP3   OH267909   1.478   6.642   4.729  0.2935 -0.4298 -0.0715
15473TIP3    H167910   1.398   6.614   4.773 -0.2702 -1.7296 -1.8059
15473TIP3    H267911   1.547   6.631   4.794 -0.7635 -0.4568  1.0652
15474TIP3   OH267912   3.646   4.999  15.872 -0.3673  0.4116  0.3625
15474TIP3    H167913   3.572   4.946  15.842 -0.6360  1.1523 -0.3113
15474TIP3    H267914   3.609   5.054  15.942 -0.2990  0.3116  0.4764
15475TIP3   OH267915   0.106   5.822   4.741  0.3875  0.4611 -0.1331
15475TIP3    H167916   0.059   5.891   4.695  0.0172  1.7607  2.0635
15475TIP3    H267917   0.054   5.805   4.819  1.4790 -0.9644  0.3420
15476TIP3   OH267918   5.033   5.327   0.053 -0.4626  0.0189 -0.0009
15476TIP3    H167919   5.101   5.262   0.072 -0.3978 -0.2537 -1.1001
15476TIP3    H267920   5.070   5.382  -0.016 -0.1985  1.7704  1.4648
15477TIP3   OH267921   0.834   3.258   5.756 -0.7371 -0.0084 -0.2580
15477TIP3    H167922   0.815   3.208   5.836  3.0824 -1.2654  0.0739
15477TIP3    H267923   0.852   3.346   5.787  0.6973 -0.4821  0.3286
15478TIP3   OH267924   0.728   2.563   3.525 -0.1124  0.5517 -0.4479
15478TIP3    H167925   0.760   2.477   3.554  0.4416  0.5914 -0.9343
15478TIP3    H267926   0.760   2.624   3.591 -1.1166  0.3107  0.3004
15479TIP3   OH267927   6.250   6.500  10.957  0.1859 -0.1265 -0.2004
15479TIP3    H167928   6.298   6.542  11.029 -1.2472  1.3303 -0.0237
15479TIP3    H267929   6.256   6.563  10.885 -0.0520 -0.6866 -0.7139
15480TIP3   OH267930   4.554   6.702  12.569  0.0164 -0.4992 -0.2418
15480TIP3    H167931   4.520   6.782  12.609 -0.5673 -1.1917  0.6767
15480TIP3    H267932   4.524   6.708  12.478 -0.7818 -0.0853  0.0286
15481TIP3   OH267933   2.799   2.241   5.579  0.9435 -0.0641 -0.0299
15481TIP3    H167934   2.844   2.318   5.543  1.5460 -0.5897 -0.4218
15481TIP3    H267935   2.870   2.181   5.603  0.4542 -0.9139 -0.6729
15482TIP3   OH267936   3.747   4.246   2.863 -0.1807  0.3289 -0.7653
15482TIP3    H167937   3.804   4.305   2.913  0.5898  0.3152 -1.6022
15482TIP3    H267938   3.666   4.295   2.851 -0.1205  0.5975 -0.1002
15483TIP3   OH267939   6.108   3.257  11.417  0.1042 -0.1160  0.1090
15483TIP3    H167940   6.191   3.294  11.449  0.5484 -0.2955 -0.8162
15483TIP3    H267941   6.042   3.293  11.477  0.8971 -0.3691  1.1779
15484TIP3   OH267942   3.484   5.686   3.035  0.3275 -0.2903 -0.1015
15484TIP3    H167943   3.413   5.746   3.058  0.1080 -0.4736 -0.3013
15484TIP3    H267944   3.540   5.686   3.112  0.9381  1.0460 -0.5201
15485TIP3   OH267945   0.265   5.947  14.001  0.1085 -0.2618  0.1345
15485TIP3    H167946   0.202   5.893  13.954  0.6516 -0.4827 -0.3615
15485TIP3    H267947   0.235   6.037  13.987 -0.1091 -0.3660 -0.0764
15486TIP3   OH267948   2.878   6.429   4.610  0.2608  0.1657 -0.8938
15486TIP3    H167949   2.879   6.510   4.660 -0.6278  0.8417 -1.9142
15486TIP3    H267950   2.805   6.379   4.646 -0.9224  1.0189 -2.0158
15487TIP3   OH267951   5.502   4.377   4.758  0.7314 -0.1184  0.2939
15487TIP3    H167952   5.472   4.451   4.811  0.0835 -1.0597  1.2849
15487TIP3    H267953   5.596   4.372   4.776  0.3700 -1.0601  2.2673
15488TIP3   OH267954   1.418   4.177   3.118 -0.2246 -0.6026  0.0802
15488TIP3    H167955   1.477   4.195   3.192  0.2492 -3.0049  0.3722
15488TIP3    H267956   1.468   4.117   3.062 -0.7799  0.7478 -1.9697
15489TIP3   OH267957   6.111   2.901   4.460 -0.5357  0.0268  0.7842
15489TIP3    H167958   6.033   2.845   4.456  0.7809 -2.0226  1.8707
15489TIP3    H267959   6.142   2.905   4.370 -0.5914 -1.1573  0.6919
15490TIP3   OH267960   4.256   1.326  16.558 -0.1042 -0.1238 -0.4836
15490TIP3    H167961   4.256   1.356  16.649 -2.4431 -0.6128 -0.2525
15490TIP3    H267962   4.278   1.233  16.564  0.2660 -0.0408 -0.4941
15491TIP3   OH267963   1.951   3.398  13.223 -0.2757 -0.0485 -0.3660
15491TIP3    H167964   1.980   3.309  13.202  1.6035 -0.0768  1.8681
15491TIP3    H267965   1.993   3.453  13.157  1.2992 -0.5669  0.1501
15492TIP3   OH267966   0.807   6.728  11.497  0.5241  0.2657  0.5142
15492TIP3    H167967   0.856   6.746  11.416  0.6900  1.4553  0.8653
15492TIP3    H267968   0.811   6.633  11.506  1.7735  0.2320 -0.1008
15493TIP3   OH267969   3.426   5.708   2.747  0.0123 -0.3515  0.0316
15493TIP3    H167970   3.426   5.623   2.704  3.0911  0.0294 -0.9809
15493TIP3    H267971   3.470   5.693   2.831  2.1233  0.4406 -0.8617
15494TIP3   OH267972   6.826   1.264  11.600 -0.1906  0.4175 -0.3237
15494TIP3    H167973   6.829   1.281  11.506 -0.2938  1.6356 -0.1261
15494TIP3    H267974   6.917   1.275  11.629 -0.4038  1.5157 -0.0531
15495TIP3   OH267975   5.380   5.538   6.577  0.2723  0.5675  0.0247
15495TIP3    H167976   5.434   5.614   6.554  1.5106 -0.7813 -1.7366
15495TIP3    H267977   5.291   5.563   6.552  0.4178  1.9416  0.7830
15496TIP3   OH267978   6.818   5.048   2.481 -0.3912 -0.6247 -0.0741
15496TIP3    H167979   6.866   5.121   2.520 -0.8644 -0.3209 -0.0554
15496TIP3    H267980   6.860   4.970   2.516  0.4664 -0.3714 -0.5087
15497TIP3   OH267981   2.228   4.715  16.069 -0.0875 -0.6621  0.0097
15497TIP3    H167982   2.172   4.723  16.146  1.2713  2.6186  0.8328
15497TIP3    H267983   2.185   4.771  16.003  0.4768 -0.8019 -0.4900
15498TIP3   OH267984   2.151   3.379   2.723  0.2775  0.0253 -0.8048
15498TIP3    H167985   2.072   3.326   2.711  0.5702 -0.3326 -1.1874
15498TIP3    H267986   2.118   3.467   2.742 -0.2426 -0.5227  1.0971
15499TIP3   OH267987   2.732   5.932  12.926  0.2871 -0.2694  0.1782
15499TIP3    H167988   2.697   5.978  12.850  2.0213  0.5290 -0.1967
15499TIP3    H267989   2.658   5.923  12.986 -0.7534  0.4263 -0.9705
15500TIP3   OH267990   4.085   3.684  11.580 -0.1111  0.2149  0.2242
15500TIP3    H167991   4.061   3.720  11.494 -4.2880  1.8883  1.8212
15500TIP3    H267992   4.143   3.750  11.618 -0.4975  0.8802 -0.3151
15501TIP3   OH267993   0.906   2.779  14.892 -0.0073  0.5034 -0.0004
15501TIP3    H167994   0.974   2.818  14.948 -1.9883  0.7042  2.4643
15501TIP3    H267995   0.902   2.688  14.921 -0.1748  0.2523 -0.8018
15502TIP3   OH267996   2.777   1.781   2.835 -0.1572 -0.4075 -0.0862
15502TIP3    H167997   2.854   1.724   2.828  0.9553  1.1030 -0.5515
15502TIP3    H267998   2.749   1.771   2.926  1.7396  0.4192  0.6388
15503TIP3   OH267999   5.488   0.172  13.845  0.0131  0.2638 -0.2501
15503TIP3    H168000   5.536   0.094  13.818  1.1603  0.8395  0.0636
15503TIP3    H268001   5.486   0.227  13.766  0.0582  0.3306 -0.2055
15504TIP3   OH268002   4.525   0.441   2.687  0.1454  0.4717  0.5793
15504TIP3    H168003   4.483   0.407   2.766 -2.0389  0.5136 -0.4977
15504TIP3    H268004   4.536   0.534   2.704 -0.0859  0.4377  0.9317
15505TIP3   OH268005   5.023   1.186  12.111  0.5362  0.0798 -0.2343
15505TIP3    H168006   5.004   1.092  12.106 -0.1821  0.2176 -0.2119
15505TIP3    H268007   4.954   1.221  12.166  1.2881  0.5002  0.4577
15506TIP3   OH268008   2.058   6.024   3.034 -0.6171 -0.2262  0.1148
15506TIP3    H168009   2.050   6.053   3.125 -0.3659 -1.1651  0.4469
15506TIP3    H268010   2.078   6.104   2.985  3.7281 -0.2574  1.4536
15507TIP3   OH268011   3.530   4.941   3.416  0.4139  0.5809  0.3776
15507TIP3    H168012   3.624   4.929   3.407  0.4380  1.5034 -0.8593
15507TIP3    H268013   3.496   4.852   3.431  1.5314  0.3309  1.6792
15508TIP3   OH268014   2.632   6.367  14.759  0.1011  0.0100  0.1242
15508TIP3    H168015   2.625   6.289  14.704 -1.7924 -0.1772  0.5388
15508TIP3    H268016   2.660   6.437  14.699 -0.9042 -0.4136 -0.8906
15509TIP3   OH268017   4.694   5.218  14.351 -0.3295 -0.0251 -0.0915
15509TIP3    H168018   4.671   5.270  14.428 -0.6789 -1.4599  0.8303
15509TIP3    H268019   4.777   5.254  14.321 -0.2679  0.6728  0.8649
15510TIP3   OH268020   0.876   2.177  15.358  0.2240 -0.0529 -0.0365
15510TIP3    H168021   0.800   2.232  15.339 -0.2865  0.0551  2.0690
15510TIP3    H268022   0.842   2.108  15.416  1.4422 -0.8581 -0.2410
15511TIP3   OH268023   5.582   1.680   4.784  0.3412 -0.1908 -0.1497
15511TIP3    H168024   5.597   1.774   4.771  1.1269 -0.2124  0.5283
15511TIP3    H268025   5.611   1.640   4.702  0.0434  0.1508 -0.4265
15512TIP3   OH268026   6.248   6.682   6.045 -0.5526 -0.0221  0.2925
15512TIP3    H168027   6.169   6.717   6.003 -1.2020 -0.1832  1.3367
15512TIP3    H268028   6.260   6.739   6.122 -0.1695 -0.5553  0.6288
15513TIP3   OH268029   5.926   5.422  11.326  0.6994 -0.4372 -0.0325
15513TIP3    H168030   5.920   5.477  11.404  3.4142  0.7600 -0.5487
15513TIP3    H268031   5.861   5.457  11.266 -1.7111 -1.6136  1.7138
15514TIP3   OH268032   4.244   0.080   1.418  0.2702  0.4117  0.1742
15514TIP3    H168033   4.224   0.162   1.464 -2.0727 -0.1722  0.2832
15514TIP3    H268034   4.164   0.059   1.370  1.5615 -0.7021 -1.6439
15515TIP3   OH268035   5.884   6.182  12.347  0.4673  0.0901 -0.5918
15515TIP3    H168036   5.938   6.254  12.313  0.1746  0.3275 -0.5625
15515TIP3    H268037   5.824   6.224  12.408 -0.2240 -0.0562 -1.1558
15516TIP3   OH268038   5.951   4.207   2.111  0.2603  0.3301  0.1207
15516TIP3    H168039   5.863   4.235   2.136  1.4833  0.6471  4.8509
15516TIP3    H268040   6.002   4.288   2.108  0.7590 -0.0043 -1.1476
15517TIP3   OH268041   0.004   6.075   2.069  0.3665 -0.5107 -0.0969
15517TIP3    H168042  -0.003   6.152   2.013  1.2232  0.5180  1.1577
15517TIP3    H268043  -0.085   6.058   2.099  0.1988  0.0774 -0.2577
15518TIP3   OH268044   6.854   0.898  15.395  0.0581 -0.0970  0.5887
15518TIP3    H168045   6.941   0.877  15.430 -0.9578 -0.7551  2.9490
15518TIP3    H268046   6.871   0.932  15.307  2.8276  1.4251  1.5899
15519TIP3   OH268047   3.319   5.704   0.074 -0.0974  0.1644 -0.0477
15519TIP3    H168048   3.394   5.761   0.092 -0.2423 -0.2112  1.9500
15519TIP3    H268049   3.357   5.626   0.034  0.3691  0.6897 -0.6428
15520TIP3   OH268050   0.955   2.608   5.863  0.5681  0.2648 -0.3834
15520TIP3    H168051   1.028   2.615   5.925 -0.0721 -1.4165  0.6354
15520TIP3    H268052   0.995   2.574   5.783  0.9584 -0.4392  0.0958
15521TIP3   OH268053   5.977   2.036  11.481  0.3412 -0.0226 -0.3407
15521TIP3    H168054   5.972   2.022  11.387 -0.4598  1.2057 -0.4994
15521TIP3    H268055   5.910   2.102  11.500  0.7777  0.0716  1.0212
15522TIP3   OH268056   1.287   2.411   5.948  0.1817  0.1005 -0.0049
15522TIP3    H168057   1.305   2.371   6.033  1.0251  1.6703  0.5983
15522TIP3    H268058   1.335   2.494   5.950  0.7796 -0.1267 -2.2908
15523TIP3   OH268059   2.476   1.913  13.340 -0.1559 -0.2973 -0.2475
15523TIP3    H168060   2.510   1.993  13.299  1.7564 -0.7943  0.2825
15523TIP3    H268061   2.407   1.944  13.399  0.7774  1.0244  0.1968
15524TIP3   OH268062   3.919   1.911  10.448  0.1423 -0.3941 -0.2524
15524TIP3    H168063   4.013   1.913  10.464  0.1906 -0.2946 -0.5441
15524TIP3    H268064   3.908   1.849  10.376 -0.1851 -1.7552  0.9275
15525TIP3   OH268065   4.782   1.050  15.580 -0.1975 -0.1737  0.0942
15525TIP3    H168066   4.765   1.048  15.675  1.1484 -0.1051  0.3600
15525TIP3    H268067   4.754   1.138  15.553 -0.0912  0.0056  0.5410
15526TIP3   OH268068   2.690   3.530   5.261 -0.0410 -0.8084 -0.1070
15526TIP3    H168069   2.641   3.539   5.179  1.3148 -0.4687 -0.9153
15526TIP3    H268070   2.715   3.620   5.283  1.2715 -1.0705 -0.4076
15527TIP3   OH268071   2.318   2.423   3.663 -0.1726  0.4119  0.6317
15527TIP3    H168072   2.291   2.450   3.751 -2.0423  1.7285 -0.2728
15527TIP3    H268073   2.237   2.393   3.622  0.8096 -0.9402 -0.4126
15528TIP3   OH268074   4.581   6.114   5.725 -0.3151  0.7475  0.7844
15528TIP3    H168075   4.583   6.059   5.804  0.4171 -0.7924 -0.2590
15528TIP3    H268076   4.496   6.095   5.685 -1.6895  3.1884  2.2343
15529TIP3   OH268077   4.503   3.789  11.816  0.2898  0.6929  0.3121
15529TIP3    H168078   4.534   3.738  11.741 -1.4001  0.3499 -0.2074
15529TIP3    H268079   4.568   3.773  11.884  0.1233 -1.7310 -0.0043
15530TIP3   OH268080   2.811   1.873  14.843  0.1946  0.1482  0.5997
15530TIP3    H168081   2.821   1.965  14.821 -0.0787  0.7954  2.9357
15530TIP3    H268082   2.900   1.841  14.855  0.2998  0.0242 -0.4161
15531TIP3   OH268083   4.644   1.149   1.632 -0.1423 -0.1260  0.3571
15531TIP3    H168084   4.589   1.203   1.689 -0.4144 -1.3028  1.2576
15531TIP3    H268085   4.582   1.096   1.582  0.1121  0.5913 -0.7310
15532TIP3   OH268086   5.497   2.373   2.565 -0.1919 -0.7360  0.1163
15532TIP3    H168087   5.452   2.352   2.484 -0.4268  0.7019 -0.1560
15532TIP3    H268088   5.510   2.288   2.608  0.6654 -1.6173 -1.7701
15533TIP3   OH268089   1.885   3.883  10.820 -0.2788 -0.4314  0.0659
15533TIP3    H168090   1.900   3.975  10.798  1.9348 -1.1472 -1.8289
15533TIP3    H268091   1.793   3.880  10.848 -0.6138  2.2310 -0.4505
15534TIP3   OH268092   6.312   0.324  12.915 -0.1761 -0.1839  0.7112
15534TIP3    H168093   6.269   0.243  12.886  0.0770  0.3150 -1.2152
15534TIP3    H268094   6.404   0.313  12.889 -0.2451  0.9298 -0.0743
15535TIP3   OH268095   5.775   4.725  11.705 -0.2400 -0.0098 -0.2187
15535TIP3    H168096   5.702   4.766  11.658  0.1036  0.6999 -0.1480
15535TIP3    H268097   5.733   4.661  11.763 -0.6764 -0.9816 -1.5321
15536TIP3   OH268098   3.371   0.245  15.462  0.3629 -0.3709  0.2292
15536TIP3    H168099   3.350   0.334  15.489  0.1603 -0.0680 -0.9099
15536TIP3    H268100   3.373   0.247  15.366  0.3669 -1.5871  0.1774
15537TIP3   OH268101   0.939   2.023  15.773 -0.4067  0.4284 -0.1159
15537TIP3    H168102   0.993   1.948  15.747 -0.1049 -0.1694  2.0018
15537TIP3    H268103   0.849   1.989  15.774 -0.4736  0.5734 -0.7231
15538TIP3   OH268104   1.213   2.524   1.468  0.2468 -0.1798 -0.3542
15538TIP3    H168105   1.260   2.498   1.388 -0.7372 -0.0189 -1.0044
15538TIP3    H268106   1.196   2.441   1.513  0.6792 -0.2877 -0.3860
15539TIP3   OH268107   4.622   4.772   0.604  0.0816  0.0942  0.4238
15539TIP3    H168108   4.701   4.824   0.585  0.7256 -1.4041 -1.2862
15539TIP3    H268109   4.656   4.686   0.630 -0.9918 -0.2303  0.7934
15540TIP3   OH268110   1.679   6.430   0.497 -0.2480  0.3196  0.2238
15540TIP3    H168111   1.758   6.386   0.528 -0.5955 -0.9728 -0.6470
15540TIP3    H268112   1.706   6.520   0.481  1.4684 -0.4533 -1.5288
15541TIP3   OH268113   4.738   0.678  16.537  0.2044  0.0547  0.5347
15541TIP3    H168114   4.766   0.690  16.628  1.1051  0.2296  0.2440
15541TIP3    H268115   4.691   0.594  16.538  0.8197 -0.2997  1.0338
15542TIP3   OH268116   2.892   2.960  12.590 -0.4291 -0.0074  1.1624
15542TIP3    H168117   2.940   2.953  12.507 -2.3696  0.0770 -0.0362
15542TIP3    H268118   2.875   3.054  12.600 -1.0536 -0.1059  1.1053
15543TIP3   OH268119   3.946   2.094  13.683 -0.3986  0.3629  0.0505
15543TIP3    H168120   3.888   2.073  13.756  0.1292  0.8483  0.6138
15543TIP3    H268121   4.033   2.070  13.714  0.2965  3.4520  0.8170
15544TIP3   OH268122   2.935   3.676   3.769 -0.4471 -0.4303 -0.3595
15544TIP3    H168123   2.906   3.677   3.678  1.6836 -1.5465 -1.1026
15544TIP3    H268124   2.899   3.757   3.806 -0.3127  0.7048 -2.5272
15545TIP3   OH268125   0.527   5.627   4.732  0.2303 -0.1118  0.3455
15545TIP3    H168126   0.527   5.550   4.789 -1.5305 -0.0637  0.4532
15545TIP3    H268127   0.579   5.600   4.656  0.2960 -1.1263  0.7326
15546TIP3   OH268128   5.479   2.387   6.789  0.4836 -0.5567  0.4006
15546TIP3    H168129   5.388   2.362   6.798  0.1768  0.2137 -0.4418
15546TIP3    H268130   5.477   2.479   6.763  1.5128 -0.3758  0.8847
15547TIP3   OH268131   6.715   1.301   0.944  0.3366  0.2730  0.2703
15547TIP3    H168132   6.649   1.319   1.011 -0.7993  1.8016 -1.1888
15547TIP3    H268133   6.757   1.219   0.973 -1.0233  0.1731  2.1143
15548TIP3   OH268134   3.787   5.122  11.097  0.0331  0.1772  0.4656
15548TIP3    H168135   3.806   5.189  11.031  1.6905 -0.8368 -0.1582
15548TIP3    H268136   3.839   5.149  11.173  0.4295 -0.1848  0.3310
15549TIP3   OH268137   2.155   2.088  10.942  0.0263  0.1150  0.3927
15549TIP3    H168138   2.182   2.141  10.867 -0.4381 -0.3081 -0.0779
15549TIP3    H268139   2.189   2.135  11.018  2.3014 -0.4663 -0.1611
15550TIP3   OH268140   1.754   3.539  11.121 -0.0654 -0.3195  0.3934
15550TIP3    H168141   1.742   3.445  11.139 -1.9215 -0.5315 -1.5382
15550TIP3    H268142   1.849   3.552  11.126  0.3840 -2.6323 -0.6948
15551TIP3   OH268143   1.036   2.438   5.108 -0.2595  0.1808 -0.3050
15551TIP3    H168144   0.945   2.420   5.132 -0.0782  1.2043  1.3241
15551TIP3    H268145   1.037   2.531   5.088  0.4912  0.2677  0.1036
15552TIP3   OH268146   6.342   1.787   3.371  0.3692 -0.5314  0.1538
15552TIP3    H168147   6.301   1.705   3.399  0.7826 -0.1274  2.1005
15552TIP3    H268148   6.280   1.825   3.309 -1.9035 -0.3027  2.4230
15553TIP3   OH268149   3.466   2.155   3.388  0.2616 -0.0475 -0.7253
15553TIP3    H168150   3.430   2.179   3.303 -2.1136  0.8920  0.4309
15553TIP3    H268151   3.394   2.172   3.449  0.9651 -3.1729  1.1795
15554TIP3   OH268152   2.490   5.688  15.963 -0.1215 -0.2696  0.3147
15554TIP3    H168153   2.524   5.773  15.991 -1.6365  0.0297  1.3695
15554TIP3    H268154   2.553   5.625  15.997  2.2808  0.4404 -2.3965
15555TIP3   OH268155   1.106   1.580   4.883 -0.6872 -0.0655 -0.1314
15555TIP3    H168156   1.040   1.559   4.949 -0.1769  0.4247  0.5474
15555TIP3    H268157   1.189   1.558   4.925 -0.3565  0.2393 -0.6154
15556TIP3   OH268158   2.786   5.734   0.911  0.0434 -0.5654  0.5254
15556TIP3    H168159   2.710   5.681   0.887 -0.0940 -0.5376  0.8849
15556TIP3    H268160   2.861   5.679   0.891 -0.0677 -0.5346  0.0276
15557TIP3   OH268161   2.173   0.300  12.831  0.3202 -0.1964 -0.3016
15557TIP3    H168162   2.208   0.365  12.892 -0.4265 -0.6664  0.6446
15557TIP3    H268163   2.104   0.345  12.783  0.5198  0.0055 -0.3996
15558TIP3   OH268164   2.008   2.314  16.028 -0.0097  0.0285 -0.1288
15558TIP3    H168165   2.098   2.346  16.029  1.0744 -2.6679 -1.6465
15558TIP3    H268166   2.004   2.252  16.101 -0.1736 -0.9321 -0.9391
15559TIP3   OH268167   0.611   1.834  10.982  0.1047 -0.2993 -0.1012
15559TIP3    H168168   0.601   1.846  10.887 -1.7295 -3.0088 -0.3700
15559TIP3    H268169   0.658   1.751  10.990  0.8442  0.2333  1.3978
15560TIP3   OH268170   4.924   5.154  12.924  0.0397  0.1032  0.2903
15560TIP3    H168171   4.906   5.201  12.843  2.2306  1.4995  0.5248
15560TIP3    H268172   4.977   5.079  12.898 -0.2235 -0.1022  0.3333
15561TIP3   OH268173   0.201   5.454   5.407  0.2838  0.5130 -0.1048
15561TIP3    H168174   0.202   5.550   5.402 -0.4672  0.4737 -1.4110
15561TIP3    H268175   0.293   5.430   5.423  0.4817  1.4518  0.2230
15562TIP3   OH268176   6.113   4.863   3.026 -0.8448 -0.2221 -0.2528
15562TIP3    H168177   6.140   4.952   3.004 -1.2343 -0.0614 -0.0966
15562TIP3    H268178   6.053   4.839   2.955  1.3334 -1.3972 -1.8115
15563TIP3   OH268179   0.985   1.568   2.382 -0.0091 -0.2038  0.0347
15563TIP3    H168180   1.063   1.584   2.329  1.2498 -1.7589  1.2986
15563TIP3    H268181   0.931   1.511   2.327 -0.5122  1.2135 -1.0141
15564TIP3   OH268182   3.663   3.895  14.797  0.0834  0.1718 -0.0832
15564TIP3    H168183   3.699   3.833  14.861 -1.4395  0.8431  1.4859
15564TIP3    H268184   3.581   3.925  14.836 -0.0894  1.8512 -1.6237
15565TIP3   OH268185   0.197   2.528  15.194  1.1661  0.1324 -0.1433
15565TIP3    H168186   0.255   2.578  15.136  1.7455  0.0955  0.3843
15565TIP3    H268187   0.181   2.586  15.268  2.1317 -0.5719  0.6428
15566TIP3   OH268188   2.251   6.781   0.749 -0.8487  0.1650 -0.1604
15566TIP3    H168189   2.218   6.741   0.829  1.1907  0.3967  0.8575
15566TIP3    H268190   2.193   6.856   0.734 -1.1886  0.1846  1.1591
15567TIP3   OH268191   3.714   1.377  13.872 -0.8793 -0.3422 -0.3053
15567TIP3    H168192   3.683   1.336  13.953  0.4747 -0.8620 -0.0317
15567TIP3    H268193   3.724   1.305  13.811  1.0467 -0.4103  0.0265
15568TIP3   OH268194   3.734   6.136  14.932 -0.2723 -0.3778 -0.0991
15568TIP3    H168195   3.759   6.207  14.991 -1.5509  0.9208 -1.0399
15568TIP3    H268196   3.774   6.159  14.848 -1.1618 -0.4559 -0.5578
15569TIP3   OH268197   6.088   4.996  16.714  0.5626  0.3220  0.6478
15569TIP3    H168198   6.175   5.002  16.753  0.3779 -0.5725  1.2454
15569TIP3    H268199   6.030   5.037  16.778  0.7104  2.3951 -0.4767
15570TIP3   OH268200   5.000   2.112   1.224  0.7594  0.6222 -0.2113
15570TIP3    H168201   5.048   2.072   1.151 -0.6626  1.2527 -1.5522
15570TIP3    H268202   4.987   2.203   1.197  1.3877  1.2582  1.4736
15571TIP3   OH268203   4.020   3.148  15.448  0.3407 -0.5825 -0.3815
15571TIP3    H168204   3.946   3.208  15.438  1.2316  0.6317  0.1370
15571TIP3    H268205   3.979   3.062  15.464 -1.0014  0.3399  1.5932
15572TIP3   OH268206   3.743   1.104  11.940  0.1830 -0.0000 -0.3187
15572TIP3    H168207   3.663   1.053  11.950  0.3111  0.0736  1.4816
15572TIP3    H268208   3.714   1.195  11.943  0.1789  0.0312 -1.2614
15573TIP3   OH268209   0.188   6.776   3.396 -0.3141  0.1570 -0.5301
15573TIP3    H168210   0.259   6.816   3.448 -0.9392  1.1114 -0.3792
15573TIP3    H268211   0.225   6.764   3.309  0.6532 -1.1726  0.0301
15574TIP3   OH268212   0.920   3.645   0.192  0.7866 -0.6467  0.0433
15574TIP3    H168213   0.972   3.682   0.264  0.5322  0.0927 -0.1408
15574TIP3    H268214   0.885   3.721   0.146  1.1366 -1.1022 -1.0139
15575TIP3   OH268215   3.247   6.529  14.360  0.3589  0.7841 -0.2205
15575TIP3    H168216   3.222   6.449  14.313 -0.0320  0.4484  0.5444
15575TIP3    H268217   3.165   6.577  14.369 -0.2762 -0.6592  2.9593
15576TIP3   OH268218   6.156   0.442  14.815 -1.1758 -0.1918 -0.0589
15576TIP3    H168219   6.147   0.495  14.894 -1.9252  1.0404 -0.9239
15576TIP3    H268220   6.070   0.402  14.804 -1.5379  0.7818 -0.9918
15577TIP3   OH268221   3.832   2.386   0.993 -0.1866 -0.4048  0.2492
15577TIP3    H168222   3.768   2.426   1.053  1.2814  0.4261  1.3185
15577TIP3    H268223   3.906   2.362   1.049 -0.4666 -3.5601 -0.5552
15578TIP3   OH268224   5.274   3.573   5.997  0.1891 -0.1106  0.3855
15578TIP3    H168225   5.331   3.502   5.967 -1.2801 -0.6620 -1.2812
15578TIP3    H268226   5.228   3.601   5.918 -2.2599 -0.0806  1.7260
15579TIP3   OH268227   0.415   5.975   0.596 -0.3298  0.1101 -0.0273
15579TIP3    H168228   0.335   5.922   0.599 -0.9873  1.0678  2.3420
15579TIP3    H268229   0.394   6.047   0.537 -1.1402  0.2110  0.3713
15580TIP3   OH268230   0.360   3.282   3.287  0.4036 -0.6057 -0.2404
15580TIP3    H168231   0.269   3.269   3.314  0.6859 -1.0624  0.5380
15580TIP3    H268232   0.411   3.236   3.353  1.2583  0.6497  0.0150
15581TIP3   OH268233   1.944   1.660  16.609  0.0407  0.0748  0.3138
15581TIP3    H168234   1.948   1.634  16.701 -0.1399 -0.0480  0.2878
15581TIP3    H268235   1.857   1.698  16.598 -0.3709 -0.9356 -0.0679
15582TIP3   OH268236   4.785   0.211  13.944 -0.8581  0.2976 -0.5922
15582TIP3    H168237   4.691   0.233  13.946 -0.9227 -0.0219  0.6546
15582TIP3    H268238   4.824   0.279  13.890 -1.8516  0.2639 -1.3936
15583TIP3   OH268239   3.621   4.462   3.965 -0.2953 -0.5218  0.1631
15583TIP3    H168240   3.536   4.507   3.966  0.3404  0.7199  1.2049
15583TIP3    H268241   3.599   4.370   3.983 -1.3885 -0.1313  0.9643
15584TIP3   OH268242   6.451   4.520  16.150  0.1503 -0.8215 -0.1037
15584TIP3    H168243   6.436   4.431  16.182  1.6055 -1.7644 -1.7775
15584TIP3    H268244   6.367   4.547  16.113 -0.5416 -1.1356  1.2019
15585TIP3   OH268245   0.991   6.526   5.317  0.3264  0.4577 -0.1397
15585TIP3    H168246   0.945   6.544   5.235  0.1733  0.3246 -0.0830
15585TIP3    H268247   1.042   6.447   5.299 -1.9494 -1.3158  0.7618
15586TIP3   OH268248   5.099   0.749   0.808  0.4704  0.6982  1.2727
15586TIP3    H168249   5.137   0.837   0.804  2.8726 -0.2103  2.1149
15586TIP3    H268250   5.021   0.759   0.862  0.0477  2.4911  0.4114
15587TIP3   OH268251   2.456   0.410   5.840  0.5857  0.5557 -0.2979
15587TIP3    H168252   2.433   0.317   5.833 -0.8621  0.8285  0.4984
15587TIP3    H268253   2.438   0.445   5.753 -1.0341  0.5218 -0.0103
15588TIP3   OH268254   0.800   3.987  15.462 -0.2370 -0.4317  0.4191
15588TIP3    H168255   0.714   4.013  15.431  0.2429  0.8118  0.0766
15588TIP3    H268256   0.783   3.911  15.518 -1.6871  0.4811  1.2897
15589TIP3   OH268257   5.462   0.368   0.998  0.0282 -0.3935  0.0435
15589TIP3    H168258   5.447   0.421   1.076  0.7448 -0.4686  0.2376
15589TIP3    H268259   5.374   0.341   0.970 -0.2097 -0.7506  1.0856
15590TIP3   OH268260   1.957   2.695   2.786  0.0160  0.0174 -0.3860
15590TIP3    H168261   2.011   2.616   2.785  0.0559  0.0520 -1.0430
15590TIP3    H268262   1.868   2.663   2.799  0.1220 -0.0785  0.1324
15591TIP3   OH268263   2.886   3.601   0.308  0.4665  0.3066  0.2978
15591TIP3    H168264   2.837   3.673   0.347 -0.2791  0.4854 -0.9123
15591TIP3    H268265   2.903   3.630   0.218 -0.1337 -1.1611 -0.3049
15592TIP3   OH268266   2.907   5.056  12.225 -0.1904 -0.7432  0.0643
15592TIP3    H168267   2.919   5.056  12.320 -0.1470 -0.2220  0.0587
15592TIP3    H268268   2.813   5.067  12.213 -0.0007  1.3226  0.0367
15593TIP3   OH268269   1.123   1.815  13.308  0.4737 -0.1517 -0.2286
15593TIP3    H168270   1.033   1.791  13.288  0.4674 -0.7546  0.4830
15593TIP3    H268271   1.128   1.908  13.286 -0.6323  0.1567  0.7176
15594TIP3   OH268272   6.334   1.606   2.079 -0.4218  0.1720  0.0237
15594TIP3    H168273   6.367   1.640   2.162  0.9344 -1.4289  0.1800
15594TIP3    H268274   6.412   1.592   2.025 -1.2381  0.7071 -1.3621
15595TIP3   OH268275   6.505   1.054   2.078  0.2215  0.4700 -0.1826
15595TIP3    H168276   6.475   1.017   1.995  2.4248 -0.6470 -0.5563
15595TIP3    H268277   6.467   1.142   2.080 -1.0501  0.0023 -1.6689
15596TIP3   OH268278   3.415   2.388   6.334 -0.1912 -0.0917  0.1643
15596TIP3    H168279   3.442   2.327   6.265 -0.9335  0.5511 -0.7290
15596TIP3    H268280   3.409   2.334   6.413  0.3637 -0.9141 -0.3347
15597TIP3   OH268281   2.007   1.836  15.400  0.5599  0.4651  0.0303
15597TIP3    H168282   2.062   1.886  15.339  1.3450 -0.6999 -0.2399
15597TIP3    H268283   1.969   1.767  15.347  2.4735 -1.5306  1.1028
15598TIP3   OH268284   5.195   1.722   0.135 -0.3106  0.0001  0.6129
15598TIP3    H168285   5.241   1.716   0.051 -1.1222 -0.3873  0.1755
15598TIP3    H268286   5.258   1.690   0.199  0.1535 -0.1691  0.0841
15599TIP3   OH268287   3.951   5.905   4.922 -1.1863  0.9913 -0.2319
15599TIP3    H168288   3.936   5.948   5.006 -1.0156  1.8308 -0.6223
15599TIP3    H268289   4.017   5.959   4.879 -2.4988  1.5466 -1.6239
15600TIP3   OH268290   3.147   1.194   2.130  0.0976  0.2829  0.0328
15600TIP3    H168291   3.086   1.212   2.201  2.2894  2.8781  1.4515
15600TIP3    H268292   3.111   1.239   2.054 -0.5355  0.4110  0.4062
15601TIP3   OH268293   0.634   4.214   4.627 -0.0967  0.0095 -0.2726
15601TIP3    H168294   0.717   4.220   4.579  0.2136 -0.2016  0.2244
15601TIP3    H268295   0.581   4.153   4.575 -0.9061  2.0003 -1.9326
15602TIP3   OH268296   5.593   0.474  12.536 -0.3075 -0.2711 -0.1735
15602TIP3    H168297   5.645   0.447  12.612  0.3783 -0.0950 -0.5779
15602TIP3    H268298   5.655   0.517  12.478 -0.7930 -0.5650 -0.9246
15603TIP3   OH268299   2.883   2.701   4.223  0.6757  0.9251 -0.3423
15603TIP3    H168300   2.823   2.709   4.298  1.2546  2.6765 -0.0129
15603TIP3    H268301   2.840   2.639   4.165  0.0102 -0.1861  1.2481
15604TIP3   OH268302   2.054   3.440  16.333 -0.2481  0.7307  0.4720
15604TIP3    H168303   2.063   3.536  16.335  1.1799  0.6076  3.0360
15604TIP3    H268304   1.967   3.424  16.370 -0.3982  0.9936  0.2461
15605TIP3   OH268305   6.039   1.900  16.443  0.3136  0.0041 -0.2847
15605TIP3    H168306   6.033   1.910  16.348  0.2590  0.5603 -0.2277
15605TIP3    H268307   6.075   1.984  16.473  0.7034 -0.3130  0.1475
15606TIP3   OH268308   1.334   2.649  15.050 -0.2576 -0.0654  0.4360
15606TIP3    H168309   1.306   2.658  15.141 -0.7956  1.1757  0.1719
15606TIP3    H268310   1.376   2.733  15.029  0.0696 -0.4216 -0.3851
15607TIP3   OH268311   4.502   6.850   6.084  0.0425  0.7410 -0.0943
15607TIP3    H168312   4.440   6.921   6.070 -0.0624  0.2529 -2.7463
15607TIP3    H268313   4.582   6.880   6.041  0.2879 -0.3320 -0.4273
15608TIP3   OH268314   0.286   0.300  16.672 -0.4989  0.5330 -0.0690
15608TIP3    H168315   0.215   0.286  16.608 -0.8563  1.0326  0.2103
15608TIP3    H268316   0.321   0.387  16.650 -0.0237  0.3243 -0.1504
15609TIP3   OH268317   0.894   2.842   5.314 -0.3883 -0.4099 -0.1634
15609TIP3    H168318   0.941   2.887   5.244 -1.4489 -1.7972 -1.8262
15609TIP3    H268319   0.943   2.864   5.393 -0.1654  2.6272 -1.0376
15610TIP3   OH268320   5.793   1.968  11.847  0.2287 -0.4051  0.6811
15610TIP3    H168321   5.866   1.909  11.865  1.8086  1.5924  1.1251
15610TIP3    H268322   5.829   2.056  11.857 -1.6875  0.7129 -1.2189
15611TIP3   OH268323   2.182   6.408   1.583  0.6481  0.1421  0.2800
15611TIP3    H168324   2.255   6.410   1.521  2.1142 -2.1817  1.8082
15611TIP3    H268325   2.138   6.325   1.566  0.4017 -0.0108  1.5931
15612TIP3   OH268326   4.860   5.576   3.531  0.0217 -0.5302  0.4214
15612TIP3    H168327   4.889   5.667   3.518  0.3783 -0.8242 -1.0520
15612TIP3    H268328   4.916   5.543   3.601  0.7134  0.0422  0.1601
15613TIP3   OH268329   6.637   0.503  14.290  0.5477 -0.1567 -0.1150
15613TIP3    H168330   6.616   0.484  14.199 -0.8035 -1.3269  0.3995
15613TIP3    H268331   6.712   0.448  14.310 -0.3800 -1.4403 -0.0017
15614TIP3   OH268332   3.857   1.926  13.441 -0.0703  0.0870 -0.3944
15614TIP3    H168333   3.850   1.988  13.369  0.1988  1.4356  0.6980
15614TIP3    H268334   3.945   1.940  13.476 -0.7562  0.6201  1.1928
15615TIP3   OH268335   1.430   3.501  10.713 -0.3218  0.5826  0.6544
15615TIP3    H168336   1.338   3.517  10.694 -0.2237  0.3563 -0.0671
15615TIP3    H268337   1.446   3.412  10.683 -0.0841  0.2784  1.6354
15616TIP3   OH268338   1.756   2.537  13.019 -0.1018 -0.5814  0.2779
15616TIP3    H168339   1.715   2.574  12.941 -0.1247  0.6026  0.8285
15616TIP3    H268340   1.826   2.598  13.041 -0.0088 -0.9643  1.0985
15617TIP3   OH268341   0.456   4.186   1.504 -0.6922 -0.4667 -0.0991
15617TIP3    H168342   0.502   4.106   1.480  0.1499  0.0805 -0.3534
15617TIP3    H268343   0.366   4.171   1.476 -1.0470 -2.1331  1.7275
15618TIP3   OH268344   0.175   3.915  11.612 -0.1016 -0.4836  0.4546
15618TIP3    H168345   0.089   3.906  11.653  0.3312 -0.8239  1.3018
15618TIP3    H268346   0.236   3.874  11.673  0.7731  0.4329  0.2267
15619TIP3   OH268347   6.607   6.377  11.518  0.4285  0.0241 -0.2834
15619TIP3    H168348   6.602   6.438  11.592 -0.3112 -1.5213  1.0018
15619TIP3    H268349   6.609   6.290  11.559  0.7078 -0.8522 -2.0722
15620TIP3   OH268350   1.990   5.199   0.189  0.0511  0.2305 -0.1814
15620TIP3    H168351   2.041   5.257   0.246  0.4084 -0.3335  0.0850
15620TIP3    H268352   1.952   5.134   0.249 -0.4469  0.2558 -0.4604
15621TIP3   OH268353   0.490   3.591   5.150  0.1475  0.4015  0.1968
15621TIP3    H168354   0.483   3.558   5.060 -0.4284  0.8122  0.0875
15621TIP3    H268355   0.505   3.685   5.141 -1.2356  0.6776  0.5300
15622TIP3   OH268356   1.003   2.807   2.179  0.0813  0.2573  0.6607
15622TIP3    H168357   0.913   2.808   2.210 -0.0443  1.2871  0.3023
15622TIP3    H268358   1.000   2.853   2.095  0.5868 -1.5083 -0.3834
15623TIP3   OH268359   5.983   3.432   1.527  0.4673 -0.3494  0.9372
15623TIP3    H168360   5.934   3.497   1.577 -0.8294 -0.2135 -0.4369
15623TIP3    H268361   5.916   3.382   1.479  1.6347 -0.3289 -0.8128
15624TIP3   OH268362   3.678   5.346  12.902  0.4993 -0.5582  0.1754
15624TIP3    H168363   3.716   5.368  12.987  0.1417  0.0125  0.1893
15624TIP3    H268364   3.699   5.253  12.890  0.9178 -0.5334  0.6923
15625TIP3   OH268365   0.539   1.570   5.572  0.1616  0.6087 -0.8170
15625TIP3    H168366   0.452   1.582   5.535 -1.0922 -1.1957  1.3077
15625TIP3    H268367   0.538   1.620   5.653  1.1575  0.6565 -0.8164
15626TIP3   OH268368   5.985   1.828  16.148  0.1122 -0.2513 -0.7031
15626TIP3    H168369   5.890   1.841  16.150  0.1860  0.3235 -0.4662
15626TIP3    H268370   6.016   1.895  16.087  0.4584  0.2960  0.0462
15627TIP3   OH268371   6.034   5.946   1.047 -0.3604  0.2418  0.4236
15627TIP3    H168372   6.034   5.892   0.968 -2.3887  1.5397 -0.5354
15627TIP3    H268373   5.954   5.922   1.092  0.3012  0.2199  1.6265
15628TIP3   OH268374   1.457   6.592  17.042 -0.0064 -0.3012  0.3496
15628TIP3    H168375   1.456   6.563  16.951 -1.5821 -0.5430  0.4110
15628TIP3    H268376   1.507   6.673  17.041 -1.0099  0.3456 -0.9665
15629TIP3   OH268377   3.356   2.699   1.993  0.3547 -0.1847  0.3703
15629TIP3    H168378   3.397   2.637   2.053  0.1579 -0.0918  0.6029
15629TIP3    H268379   3.422   2.768   1.982  0.6663 -0.5444 -0.0737
15630TIP3   OH268380   5.239   5.104  14.700 -0.2790 -0.3340  0.1132
15630TIP3    H168381   5.299   5.032  14.718 -0.8051 -0.8377 -0.1400
15630TIP3    H268382   5.296   5.179  14.681  0.3317 -0.1203  2.3957
15631TIP3   OH268383   1.986   2.859  12.657 -0.0409  0.1652 -0.2142
15631TIP3    H168384   1.981   2.765  12.675  0.1040 -0.1649 -1.7166
15631TIP3    H268385   2.064   2.869  12.602 -0.5882  1.0011 -0.8759
15632TIP3   OH268386   2.008   4.257  11.055 -0.6640 -0.5519  0.0436
15632TIP3    H168387   2.031   4.268  10.963  0.2340 -0.2380  0.2910
15632TIP3    H268388   1.942   4.324  11.071  0.5863  0.7183  0.0888
15633TIP3   OH268389   4.932   5.841   3.487  0.5234  0.2467  0.3927
15633TIP3    H168390   4.934   5.924   3.536  1.0839  0.2003  0.4646
15633TIP3    H268391   5.006   5.849   3.426 -0.2759  0.3741 -0.5708
15634TIP3   OH268392   5.787   0.812  13.503 -0.0952 -0.5221  0.0314
15634TIP3    H168393   5.784   0.764  13.420 -0.2426  0.0322 -0.2925
15634TIP3    H268394   5.861   0.872  13.493 -0.8439  0.3843 -0.1780
15635TIP3   OH268395   2.695   3.309  10.688 -0.0962 -0.3556 -0.4600
15635TIP3    H168396   2.699   3.360  10.608 -0.0656 -1.0674 -0.9243
15635TIP3    H268397   2.732   3.224  10.664  0.9998 -0.2066  0.6059
15636TIP3   OH268398   6.812   3.917   2.878 -0.0818 -0.0129 -0.8172
15636TIP3    H168399   6.790   3.832   2.918  0.9500 -0.0834 -0.3699
15636TIP3    H268400   6.801   3.902   2.784 -2.1193  0.0246 -0.6432
15637TIP3   OH268401   1.851   1.769  13.616  0.2996 -0.6395 -0.5806
15637TIP3    H168402   1.841   1.821  13.537  0.7015 -1.2983 -1.0805
15637TIP3    H268403   1.867   1.833  13.685  1.8765 -0.1450 -1.3606
15638TIP3   OH268404   0.281   2.710   0.664  0.0899  0.6458  0.0558
15638TIP3    H168405   0.258   2.624   0.628  1.4898 -0.2474  1.2096
15638TIP3    H268406   0.276   2.698   0.759  0.4462  1.8125  0.2357
15639TIP3   OH268407   1.516   1.384  16.668  0.2390  0.2253  0.4600
15639TIP3    H168408   1.466   1.370  16.749  1.3707 -1.6268  0.8980
15639TIP3    H268409   1.451   1.413  16.604 -0.7914  1.1193  1.8469
15640TIP3   OH268410   3.422   1.533  11.924 -0.4679 -0.1935  0.6105
15640TIP3    H168411   3.345   1.577  11.887 -0.0989  1.1402  1.3414
15640TIP3    H268412   3.420   1.445  11.887 -0.4958  0.8387 -2.0599
15641TIP3   OH268413   0.902   5.968  15.398  0.5206  0.4640 -0.0134
15641TIP3    H168414   0.929   5.884  15.362  0.1698  1.2306 -2.2016
15641TIP3    H268415   0.819   5.951  15.441  0.5622 -0.3474 -0.2423
15642TIP3   OH268416   5.183   4.392  16.556 -0.3662  0.2092  0.7701
15642TIP3    H168417   5.180   4.385  16.651 -1.1939 -2.2018  0.6310
15642TIP3    H268418   5.264   4.347  16.531 -0.5337  0.1638  0.2959
15643TIP3   OH268419   1.313   2.551   0.406 -0.1668 -0.4400 -0.6181
15643TIP3    H168420   1.231   2.528   0.363 -0.2700  0.1465 -0.7519
15643TIP3    H268421   1.287   2.593   0.488  0.0234 -1.2099 -0.1592
15644TIP3   OH268422   0.630   1.308  14.816  0.0128 -0.4636  0.4330
15644TIP3    H168423   0.698   1.283  14.754  0.8665 -0.8346  1.4804
15644TIP3    H268424   0.556   1.335  14.762  1.3167  0.8883 -0.7526
15645TIP3   OH268425   6.239   5.797  11.918 -0.2817 -0.5696 -0.7295
15645TIP3    H168426   6.298   5.863  11.953 -1.0468 -0.4847  0.4727
15645TIP3    H268427   6.268   5.783  11.828  2.6788 -1.7963  0.2972
15646TIP3   OH268428   1.100   5.170  12.311 -0.2753  0.2624 -0.2491
15646TIP3    H168429   1.010   5.167  12.277  0.4233 -0.8390 -2.1303
15646TIP3    H268430   1.148   5.224  12.249  0.8860 -1.2302 -0.7116
15647TIP3   OH268431   5.635   1.572  15.057  0.0303  0.6901  0.1766
15647TIP3    H168432   5.686   1.649  15.034  0.2675  2.4728  5.4046
15647TIP3    H268433   5.546   1.592  15.027  0.7187  1.3924 -1.4936
15648TIP3   OH268434   3.393   2.548   4.537  0.3021  0.1087  0.6345
15648TIP3    H168435   3.377   2.587   4.623 -1.7122  0.2644  0.2368
15648TIP3    H268436   3.399   2.622   4.477 -0.8634 -0.0627  0.2806
15649TIP3   OH268437   2.823   3.728   0.794  0.1019 -0.1164 -0.6606
15649TIP3    H168438   2.768   3.805   0.808 -0.8124 -0.6046 -1.4760
15649TIP3    H268439   2.820   3.680   0.876 -2.2285 -1.0870 -1.2535
15650TIP3   OH268440   5.491   3.108   0.064 -0.2646 -0.3850  0.2941
15650TIP3    H168441   5.500   3.169   0.137 -1.1070 -0.8060  0.7677
15650TIP3    H268442   5.403   3.071   0.075  0.5531 -2.3508  0.5493
15651TIP3   OH268443   6.082   1.061  14.732  0.4978  0.5845  0.2243
15651TIP3    H168444   6.022   0.987  14.726  0.4696  0.6664 -0.5504
15651TIP3    H268445   6.169   1.023  14.720  0.4069  0.8133 -1.4186
15652TIP3   OH268446   3.526   2.437   5.035 -0.1225  0.2582 -0.5871
15652TIP3    H168447   3.540   2.343   5.036  0.3231  0.3292  0.6616
15652TIP3    H268448   3.528   2.464   5.127  0.8466  1.6396 -0.9746
15653TIP3   OH268449   5.167   3.789   4.328  0.4022  0.4598 -0.1522
15653TIP3    H168450   5.115   3.785   4.247  1.2732  0.5854 -0.7271
15653TIP3    H268451   5.257   3.779   4.299  0.7408  0.6848  0.7976
15654TIP3   OH268452   3.236   4.940   4.879 -0.2767 -0.0389  0.0781
15654TIP3    H168453   3.193   4.990   4.947 -0.1935  0.3321 -0.1399
15654TIP3    H268454   3.185   4.957   4.800 -2.2654 -2.8690  0.5853
15655TIP3   OH268455   0.962   3.165  17.063  0.2918 -0.2153  0.0661
15655TIP3    H168456   0.984   3.258  17.057  3.3179 -0.7333  1.4313
15655TIP3    H268457   0.925   3.155  17.150  0.4477 -0.3652  0.1148
15656TIP3   OH268458   2.896   6.466   1.369 -0.0660  0.5258  0.4927
15656TIP3    H168459   2.859   6.401   1.310 -0.6172 -0.4011  1.8090
15656TIP3    H268460   2.848   6.546   1.350 -0.7381  0.0583  0.1964
15657TIP3   OH268461   0.576   4.798  16.397 -0.4022  0.3164 -0.5231
15657TIP3    H168462   0.516   4.729  16.427 -1.0010  1.0594  0.0113
15657TIP3    H268463   0.518   4.868  16.367  0.1765  1.5371  1.1162
15658TIP3   OH268464   6.255   4.142  14.205 -0.0840 -0.3715  0.2192
15658TIP3    H168465   6.248   4.056  14.164 -0.6775  0.0755 -0.6333
15658TIP3    H268466   6.303   4.195  14.142  1.7519 -0.4881  1.4269
15659TIP3   OH268467   2.680   5.656  13.770  0.3773 -0.6589  0.0897
15659TIP3    H168468   2.765   5.668  13.814 -0.5079 -1.5867  2.2033
15659TIP3    H268469   2.669   5.561  13.766 -1.3037 -0.5622  1.4555
15660TIP3   OH268470   0.631   1.453   3.689 -0.0998 -0.2577  0.0780
15660TIP3    H168471   0.591   1.504   3.759 -3.2476 -1.4077 -0.7068
15660TIP3    H268472   0.700   1.403   3.732 -1.0818  0.0384  2.0950
15661TIP3   OH268473   4.381   1.263   4.338 -0.0868 -0.4360 -0.1014
15661TIP3    H168474   4.404   1.226   4.253  2.2231  1.0579 -0.2144
15661TIP3    H268475   4.298   1.222   4.361 -0.7705 -0.8998 -3.0553
15662TIP3   OH268476   5.596   2.478  16.854 -0.6713  0.3573 -0.1721
15662TIP3    H168477   5.553   2.394  16.868 -2.2657  1.3004  0.7624
15662TIP3    H268478   5.585   2.495  16.760  0.5168 -0.8921 -0.5698
15663TIP3   OH268479   4.686   0.567   4.358  0.2576  0.2791  0.0367
15663TIP3    H168480   4.624   0.601   4.423  1.0468 -0.8337  1.4322
15663TIP3    H268481   4.718   0.645   4.312  1.5102  1.4236  2.6519
15664TIP3   OH268482   1.813   6.513   6.265  0.2119 -0.1709  0.3081
15664TIP3    H168483   1.832   6.454   6.338  0.1370 -1.2156 -0.4847
15664TIP3    H268484   1.883   6.577   6.267 -0.0558  0.1169  1.5864
15665TIP3   OH268485   6.495   6.074  14.378 -0.4092  0.4655 -0.3865
15665TIP3    H168486   6.536   6.160  14.364 -0.1037  0.1376 -1.6781
15665TIP3    H268487   6.476   6.042  14.290 -1.1137 -0.5219  0.1008
15666TIP3   OH268488   3.098   4.412  15.138 -0.2913  1.3155 -0.0842
15666TIP3    H168489   3.145   4.342  15.093  0.7663  1.4209  0.8159
15666TIP3    H268490   3.026   4.435  15.079  0.5205  0.8319 -1.2900
15667TIP3   OH268491   4.675   1.536  13.594  0.5056  0.2317 -0.5478
15667TIP3    H168492   4.726   1.503  13.519  0.3146  0.9029 -0.9782
15667TIP3    H268493   4.602   1.583  13.554 -0.6606 -0.9955  0.0673
15668TIP3   OH268494   0.104   6.252  11.003 -0.0281  0.8056 -0.7798
15668TIP3    H168495   0.064   6.315  11.063  0.2333  2.1188 -1.9427
15668TIP3    H268496   0.161   6.200  11.059 -1.7022  0.2760  0.5530
15669TIP3   OH268497   4.098   2.844  13.272  0.1726  0.1336 -0.3434
15669TIP3    H168498   4.093   2.865  13.365 -3.0874 -0.8273 -0.1700
15669TIP3    H268499   4.192   2.832  13.255  0.9933  1.6785  2.4421
15670TIP3   OH268500   5.007   5.509  11.846  0.1559 -0.5053 -0.1343
15670TIP3    H168501   4.953   5.430  11.842 -0.6058  0.0211 -0.5767
15670TIP3    H268502   4.944   5.580  11.857  0.8336  0.0383  0.2949
15671TIP3   OH268503   5.778   3.375   1.939 -0.0786 -0.1076 -0.2771
15671TIP3    H168504   5.792   3.434   1.865  0.8789  0.6000  0.4433
15671TIP3    H268505   5.859   3.325   1.946 -0.3698 -0.5590 -0.0372
15672TIP3   OH268506   6.080   1.741  10.448  0.5052 -0.0373  0.8098
15672TIP3    H168507   6.067   1.698  10.364  2.4598  0.4933  0.1968
15672TIP3    H268508   6.030   1.823  10.441  1.4883  0.4923 -0.2491
15673TIP3   OH268509   0.653   2.222   3.291 -0.6236  0.1508 -0.4014
15673TIP3    H168510   0.741   2.226   3.254 -0.5274  0.0172 -0.1913
15673TIP3    H268511   0.624   2.313   3.294 -0.6798  0.1487 -0.9168
15674TIP3   OH268512   1.919   4.181   1.561  0.1500 -0.4502 -0.0860
15674TIP3    H168513   1.928   4.209   1.470 -0.5401 -1.1874 -0.3986
15674TIP3    H268514   1.942   4.088   1.560  2.2155  0.0045  0.8981
15675TIP3   OH268515   6.248   1.467  12.752  0.7889  0.0455 -0.3159
15675TIP3    H168516   6.277   1.549  12.792  0.8139  0.0171 -0.2758
15675TIP3    H268517   6.155   1.479  12.736  0.5281 -0.3817  0.8093
15676TIP3   OH268518   5.198   5.372   0.662  0.1381  0.4656 -0.1661
15676TIP3    H168519   5.110   5.340   0.642 -0.4313  2.4980 -1.1441
15676TIP3    H268520   5.237   5.391   0.577  0.8742  1.2090  0.3237
15677TIP3   OH268521   4.465   3.103  14.869  0.3556 -0.3993 -0.2207
15677TIP3    H168522   4.410   3.181  14.866  1.0601  0.0997 -0.5184
15677TIP3    H268523   4.443   3.056  14.789  1.3349  0.4924 -1.0418
15678TIP3   OH268524   2.800   4.400   5.264 -0.3040 -0.7042 -0.2390
15678TIP3    H168525   2.773   4.385   5.354  1.1197  2.0988  0.7706
15678TIP3    H268526   2.893   4.423   5.271 -0.5016  0.9762 -2.2240
15679TIP3   OH268527   4.182   0.844  16.755 -0.5262 -0.0334 -0.6782
15679TIP3    H168528   4.204   0.927  16.797 -1.6789  0.4230 -0.9443
15679TIP3    H268529   4.256   0.787  16.776  0.0802  0.9170 -0.1206
15680TIP3   OH268530   1.417   0.687  14.061  0.1449  0.4212  0.8133
15680TIP3    H168531   1.484   0.643  14.115 -0.1016 -0.4455  0.4261
15680TIP3    H268532   1.348   0.622  14.050 -0.8245  1.3427  1.2862
15681TIP3   OH268533   4.924   1.197   0.168  0.3589  0.1132  0.1625
15681TIP3    H168534   4.937   1.289   0.147 -1.2095  0.2529 -0.2520
15681TIP3    H268535   5.007   1.155   0.144  0.4144  1.0965 -1.4515
15682TIP3   OH268536   5.482   5.348   3.821 -0.1345  0.3310  0.4692
15682TIP3    H168537   5.451   5.295   3.748  0.4868  2.5599 -1.5395
15682TIP3    H268538   5.447   5.305   3.899 -1.3565 -1.7939 -1.1545
15683TIP3   OH268539   1.841   4.325   0.372 -0.0944  0.3483  0.3241
15683TIP3    H168540   1.885   4.357   0.293  1.2060 -0.2773  0.7642
15683TIP3    H268541   1.767   4.275   0.339 -0.5144  1.4391 -0.4475
15684TIP3   OH268542   4.621   1.337   4.916 -0.5992  0.2433 -0.5079
15684TIP3    H168543   4.685   1.353   4.985 -0.6479 -0.6166 -0.2514
15684TIP3    H268544   4.658   1.380   4.839  1.0843 -1.5161 -0.7688
15685TIP3   OH268545   0.026   5.848   3.202  0.3146 -0.0670 -0.6414
15685TIP3    H168546   0.120   5.868   3.193 -0.2264  2.1178 -2.3861
15685TIP3    H268547   0.002   5.887   3.287  0.3294  2.6342 -1.7817
15686TIP3   OH268548   5.903   2.260   0.400 -0.3038  0.0355  0.0681
15686TIP3    H168549   5.887   2.286   0.309 -2.5192  1.1487  0.7203
15686TIP3    H268550   5.961   2.329   0.434 -1.4071  0.9549  0.1401
15687TIP3   OH268551   0.022   2.619  12.671 -0.7457 -0.2069  0.4064
15687TIP3    H168552   0.077   2.625  12.749 -0.8504 -0.4185  0.4991
15687TIP3    H268553   0.080   2.585  12.603 -0.2030  1.5755 -0.0687
15688TIP3   OH268554   1.921   4.701  13.198 -0.0893 -0.6689  0.7676
15688TIP3    H168555   1.878   4.617  13.210 -3.1332  0.7523  0.8556
15688TIP3    H268556   1.984   4.687  13.127 -0.8202 -2.8685  0.4887
15689TIP3   OH268557   1.697   0.305   3.435  0.1955  0.4253 -0.4188
15689TIP3    H168558   1.698   0.337   3.344 -4.6233  0.2037 -0.8036
15689TIP3    H268559   1.704   0.385   3.488 -1.2377  1.0976 -1.1659
15690TIP3   OH268560   3.030   6.558  12.869 -0.4598  0.2430 -0.9197
15690TIP3    H168561   3.059   6.626  12.807  0.2977  0.8416  0.0622
15690TIP3    H268562   2.936   6.551  12.855 -0.1544 -0.4602 -2.9492
15691TIP3   OH268563   5.025   1.647  10.802 -0.3720  0.4351  1.1651
15691TIP3    H168564   4.996   1.728  10.759 -0.2989  0.0336  0.3422
15691TIP3    H268565   4.954   1.585  10.785 -0.5511  0.3953  2.0232
15692TIP3   OH268566   4.002   4.222   4.563  0.3449 -0.2260  0.5933
15692TIP3    H168567   3.975   4.211   4.654 -0.2714 -1.0802  0.3174
15692TIP3    H268568   4.092   4.191   4.561  0.8544  1.1191  1.1846
15693TIP3   OH268569   5.233   1.314  17.000  0.0675 -0.3495  0.4571
15693TIP3    H168570   5.291   1.279  17.067  1.1176 -0.4199 -0.4685
15693TIP3    H268571   5.240   1.252  16.927  1.2883  1.2555 -0.8784
15694TIP3   OH268572   6.746   6.613  13.570  0.1802  0.0169 -0.4205
15694TIP3    H168573   6.807   6.667  13.520 -1.4442  1.7141 -0.6653
15694TIP3    H268574   6.659   6.638  13.538 -0.8119 -0.3163  1.8007
15695TIP3   OH268575   0.301   6.239   4.014 -0.4095 -0.1731 -0.0562
15695TIP3    H168576   0.348   6.189   3.947 -1.3440  1.0420 -1.6887
15695TIP3    H268577   0.285   6.324   3.973 -0.5204  0.8197  1.9440
15696TIP3   OH268578   4.500   5.132   5.071 -0.3374 -0.1828 -0.2363
15696TIP3    H168579   4.481   5.077   4.995  1.4542 -3.7037  1.5839
15696TIP3    H268580   4.415   5.149   5.111 -1.1385  0.2401 -2.0502
15697TIP3   OH268581   5.028   1.533   4.069 -0.2157  0.0702  0.2519
15697TIP3    H168582   4.990   1.508   3.984  0.7658 -1.7005  0.2875
15697TIP3    H268583   4.952   1.549   4.125 -0.9168 -1.0394 -0.3394
15698TIP3   OH268584   4.228   6.211   1.368 -0.0944 -0.4596 -0.4662
15698TIP3    H168585   4.145   6.241   1.406  0.0100 -0.1215 -0.4969
15698TIP3    H268586   4.206   6.190   1.277 -0.1376 -0.3215 -0.4884
15699TIP3   OH268587   1.133   5.537  16.207  0.0091  0.5129  0.2771
15699TIP3    H168588   1.167   5.617  16.167 -1.3292  0.5928 -0.8067
15699TIP3    H268589   1.107   5.563  16.295  1.2938  0.8076  0.5787
15700TIP3   OH268590   0.996   3.813  11.692 -1.2548 -0.2083  0.4785
15700TIP3    H168591   0.975   3.780  11.604 -0.9035  1.3144 -0.1980
15700TIP3    H268592   1.001   3.908  11.682 -2.2220  0.0908  2.3836
15701TIP3   OH268593   6.049   5.343  15.816  0.0533  0.1531 -0.1682
15701TIP3    H168594   6.024   5.333  15.907  1.0703 -1.8103 -0.0684
15701TIP3    H268595   6.143   5.357  15.818  0.6102 -2.7715 -0.9767
15702TIP3   OH268596   6.636   5.848   4.393 -0.2890  0.3035  0.2408
15702TIP3    H168597   6.701   5.780   4.408  0.2722  0.7895  0.0571
15702TIP3    H268598   6.624   5.890   4.478  0.6803  1.1168 -0.0050
15703TIP3   OH268599   2.228   1.346  11.541 -0.2186 -0.2411 -0.2398
15703TIP3    H168600   2.283   1.329  11.618 -0.1968 -0.4237 -0.2939
15703TIP3    H268601   2.217   1.441  11.539  0.4069 -0.1722 -0.4426
15704TIP3   OH268602   6.550   2.108  14.106 -0.4812 -0.0753 -0.2581
15704TIP3    H168603   6.581   2.181  14.052  2.6955 -0.2933  1.0469
15704TIP3    H268604   6.511   2.150  14.183  1.4857  0.3755  0.5702
15705TIP3   OH268605   5.534   1.842  10.514 -0.5652  0.0474 -0.0549
15705TIP3    H168606   5.514   1.751  10.493 -2.9934  0.4338  0.3474
15705TIP3    H268607   5.628   1.850  10.495  0.2540 -3.0720  1.9342
15706TIP3   OH268608   5.977   3.727  15.847  0.2256  0.0924 -0.5559
15706TIP3    H168609   5.959   3.758  15.935  0.9839  0.4154 -0.5069
15706TIP3    H268610   6.036   3.792  15.809 -2.1938  1.4344 -2.2884
15707TIP3   OH268611   3.149   4.876   0.276 -0.4285  0.2164 -0.2313
15707TIP3    H168612   3.145   4.961   0.318  0.6181 -0.7195  1.9191
15707TIP3    H268613   3.165   4.895   0.183 -2.0725  2.3468 -0.1436
15708TIP3   OH268614   4.794   0.573  15.323 -0.3740  0.2663  0.0123
15708TIP3    H168615   4.834   0.487  15.337 -0.7178 -0.0693 -0.9711
15708TIP3    H268616   4.825   0.599  15.236 -0.1156  1.2358  0.3779
15709TIP3   OH268617   5.898   0.772  12.404  0.4454  0.3374  0.3919
15709TIP3    H168618   5.880   0.752  12.496 -3.4500 -1.1509 -0.5183
15709TIP3    H268619   5.851   0.854  12.387  0.5613  0.2408 -0.4374
15710TIP3   OH268620   0.929   5.851   3.802 -0.5130  0.7803 -0.5704
15710TIP3    H168621   0.876   5.927   3.779  0.7482  1.9101  0.0826
15710TIP3    H268622   0.947   5.862   3.896 -1.2187 -0.9356 -0.1879
15711TIP3   OH268623   6.749   2.765  15.203  0.1587 -0.0067 -0.3528
15711TIP3    H168624   6.804   2.697  15.243  1.3430  1.8189  1.3110
15711TIP3    H268625   6.670   2.719  15.177  1.2349 -2.1811 -0.0703
15712TIP3   OH268626   5.196   0.339  11.521  0.1668  0.2506 -0.3190
15712TIP3    H168627   5.289   0.355  11.506  0.1331 -0.0374 -0.8483
15712TIP3    H268628   5.152   0.417  11.486  0.2478  0.7175  0.5871
15713TIP3   OH268629   2.701   5.242  12.489 -0.2595  0.2025 -0.1606
15713TIP3    H168630   2.755   5.278  12.418  1.0712  0.3086  0.8768
15713TIP3    H268631   2.759   5.240  12.565 -1.3031 -1.0240  0.6486
15714TIP3   OH268632   3.907   4.884  11.087  0.1917  0.2987  0.3109
15714TIP3    H168633   3.877   4.974  11.074  0.3510  0.4173  0.7689
15714TIP3    H268634   3.906   4.871  11.182 -0.3595 -0.3595  0.2309
15715TIP3   OH268635   4.309   6.723  11.948  0.3277 -0.5628  0.2707
15715TIP3    H168636   4.224   6.747  11.911  1.0264  0.8960 -0.4696
15715TIP3    H268637   4.361   6.803  11.942  2.8116 -2.1786 -2.2291
15716TIP3   OH268638   2.389   5.549  13.256 -0.3862 -0.0866  0.2607
15716TIP3    H168639   2.411   5.587  13.341 -1.5322  0.9075  0.1378
15716TIP3    H268640   2.347   5.465  13.278 -0.5462  0.0956  0.6751
15717TIP3   OH268641   4.985   0.240  12.349  0.1693  0.2459  0.5195
15717TIP3    H168642   4.933   0.203  12.277  2.5027 -1.2543 -0.5206
15717TIP3    H268643   4.934   0.315  12.379 -2.0848 -0.5449 -1.0555
15718TIP3   OH268644   2.527   3.904   2.236 -0.5180 -0.0993 -0.6325
15718TIP3    H168645   2.451   3.856   2.270  0.1921  0.0014  1.1888
15718TIP3    H268646   2.600   3.875   2.291  0.5210  0.7664 -1.5190
15719TIP3   OH268647   2.739   6.811   2.224 -0.1510 -1.0821  0.3438
15719TIP3    H168648   2.700   6.863   2.154  2.6294 -0.6744 -1.0049
15719TIP3    H268649   2.722   6.861   2.304 -1.9656 -0.7500 -0.2025
15720TIP3   OH268650   2.379   4.375   5.355 -0.0282  0.1143  0.3576
15720TIP3    H168651   2.284   4.381   5.356 -0.0586 -0.1003 -0.4466
15720TIP3    H268652   2.400   4.299   5.409 -0.3380 -0.0978  0.1780
15721TIP3   OH268653   1.845   5.339   1.271  0.4034  0.4465  0.2960
15721TIP3    H168654   1.909   5.295   1.328  0.5425  0.1353 -0.1013
15721TIP3    H268655   1.764   5.340   1.322 -0.0092 -1.5686 -0.2470
15722TIP3   OH268656   2.425   3.083   0.435  0.3162 -0.0567  0.9869
15722TIP3    H168657   2.363   3.038   0.378  0.6573  0.2106  0.4012
15722TIP3    H268658   2.394   3.064   0.524 -1.5769  1.4031  0.6939
15723TIP3   OH268659   2.968   4.924   1.683  0.0989 -0.2660 -0.1614
15723TIP3    H168660   3.013   4.881   1.756  0.7631  1.4772  0.5255
15723TIP3    H268661   2.888   4.960   1.722 -0.1822 -0.4159 -0.5917
15724TIP3   OH268662   6.073   5.477   0.455 -0.0434  0.0953  0.4765
15724TIP3    H168663   6.163   5.481   0.423  0.9143 -3.2344  2.2749
15724TIP3    H268664   6.022   5.444   0.382  0.1611  1.7032 -0.4552
15725TIP3   OH268665   0.074   6.107   1.327  0.0694 -0.2160 -0.3179
15725TIP3    H168666   0.163   6.097   1.294  1.2545  0.1210  2.4277
15725TIP3    H268667   0.029   6.026   1.301  1.3020 -0.5874 -1.3930
15726TIP3   OH268668   0.250   1.669  16.629  0.1361  0.0103  0.2899
15726TIP3    H168669   0.251   1.597  16.566  2.0261  1.0152 -0.9428
15726TIP3    H268670   0.165   1.663  16.671 -0.7724 -1.3834 -1.5858
15727TIP3   OH268671   4.401   5.666  16.846 -0.0504  0.0639 -0.4188
15727TIP3    H168672   4.389   5.572  16.841  1.3822 -0.1561 -0.1091
15727TIP3    H268673   4.442   5.681  16.931  0.6842  0.8347 -0.8848
15728TIP3   OH268674   5.892   5.461   1.272 -0.2917  0.5580  0.1002
15728TIP3    H168675   5.972   5.414   1.246 -0.6696  0.1994 -0.4435
15728TIP3    H268676   5.924   5.545   1.306  0.3334  0.3172  0.1346
15729TIP3   OH268677   3.059   6.153   1.726 -0.4691 -0.3213  0.1258
15729TIP3    H168678   3.046   6.237   1.681  1.7224 -0.7501 -1.4371
15729TIP3    H268679   3.106   6.176   1.806 -0.9540  0.0505  0.3116
15730TIP3   OH268680   2.764   3.057  11.756  0.3595  0.4361 -0.4845
15730TIP3    H168681   2.789   3.059  11.664  0.5953  0.1549 -0.4278
15730TIP3    H268682   2.823   2.992  11.796 -0.9964 -0.8555 -0.5089
15731TIP3   OH268683   2.248   5.672  14.511 -0.2555  0.0731  0.1175
15731TIP3    H168684   2.259   5.672  14.416 -1.1285  1.9765 -0.0392
15731TIP3    H268685   2.220   5.583  14.532  0.1172 -0.4331 -1.3799
15732TIP3   OH268686   2.771   2.589  10.955 -0.3616  0.4380  0.3952
15732TIP3    H168687   2.846   2.621  10.905 -1.6164 -0.0406 -1.9493
15732TIP3    H268688   2.729   2.526  10.897 -2.0365 -0.0247  2.0204
15733TIP3   OH268689   0.715   0.585  13.377 -0.1132 -0.1249  0.3824
15733TIP3    H168690   0.634   0.605  13.330 -1.2173 -3.0144  0.8352
15733TIP3    H268691   0.689   0.576  13.468  0.9722  0.1629  0.7381
15734TIP3   OH268692   4.465   4.493  12.794  0.7151 -0.3999 -0.0092
15734TIP3    H168693   4.443   4.499  12.700  1.7160  2.6578 -0.1471
15734TIP3    H268694   4.560   4.486  12.796  0.7935  0.6766  0.7683
15735TIP3   OH268695   6.572   3.846  12.520 -0.9135 -1.2934 -0.5296
15735TIP3    H168696   6.531   3.901  12.587  0.3411 -0.4183 -0.4580
15735TIP3    H268697   6.547   3.886  12.437 -1.1335 -1.4281 -0.5291
15736TIP3   OH268698   2.097   4.916  12.514  0.2281  0.0898 -0.0518
15736TIP3    H168699   2.131   5.001  12.541  0.2437 -0.1687  0.7845
15736TIP3    H268700   2.007   4.934  12.487  0.5500  0.5320 -0.8570
15737TIP3   OH268701   1.379   2.940  15.047  0.1611  0.1729 -0.8347
15737TIP3    H168702   1.468   2.925  15.077 -0.3145  2.4037  2.1192
15737TIP3    H268703   1.385   3.017  14.991  0.2772 -0.7767 -2.1807
15738TIP3   OH268704   6.101   6.697  10.436 -0.2805  0.4696 -0.0509
15738TIP3    H168705   6.177   6.651  10.401 -0.4481  0.4651 -0.4140
15738TIP3    H268706   6.131   6.787  10.450  0.1067  0.2056  0.8553
15739TIP3   OH268707   5.442   2.225   1.254 -0.2572  0.0984  0.0312
15739TIP3    H168708   5.475   2.166   1.187  0.5640  0.4799  0.0794
15739TIP3    H268709   5.385   2.171   1.308  0.2939 -0.5964 -0.0649
15740TIP3   OH268710   2.586   0.163  13.099 -0.4239 -0.4031 -0.3020
15740TIP3    H168711   2.567   0.119  13.182 -0.1563  0.3360  0.1633
15740TIP3    H268712   2.527   0.239  13.098 -2.5899 -1.9923 -2.1895
15741TIP3   OH268713   5.302   0.525   3.060  0.1532 -0.2967  0.1046
15741TIP3    H168714   5.309   0.430   3.046 -1.0979 -0.2051 -1.4324
15741TIP3    H268715   5.243   0.533   3.135  0.1228 -0.7410  0.1341
15742TIP3   OH268716   2.774   2.051  11.486 -0.6522  0.1019  0.6976
15742TIP3    H168717   2.705   2.117  11.481 -1.6361 -0.9318 -0.1010
15742TIP3    H268718   2.746   1.992  11.557 -1.1428 -0.8776 -0.2730
15743TIP3   OH268719   2.303   5.461  12.448  0.1950  0.5043 -0.7726
15743TIP3    H168720   2.317   5.555  12.437 -1.2141  0.8220  0.0112
15743TIP3    H268721   2.214   5.446  12.417  0.9800 -0.9089 -2.5868
15744TIP3   OH268722   5.364   2.378   4.148 -0.0550 -0.1782  0.2608
15744TIP3    H168723   5.391   2.322   4.220 -2.0345  0.4228  1.5508
15744TIP3    H268724   5.406   2.340   4.071  2.0538 -0.9020  1.6612
15745TIP3   OH268725   4.487   6.006  14.083 -0.1407  0.3961  0.2563
15745TIP3    H168726   4.515   5.935  14.140 -1.4450 -0.4798 -0.1432
15745TIP3    H268727   4.532   5.988  14.000  0.1266  0.4862  0.3779
15746TIP3   OH268728   1.288   0.454  14.178 -0.2145 -0.1083 -0.0251
15746TIP3    H168729   1.284   0.363  14.207 -1.6405  0.1848  0.7520
15746TIP3    H268730   1.281   0.506  14.258  0.7188  0.7078 -0.4480
15747TIP3   OH268731   3.916   2.157  13.083  0.3430 -0.0030  0.4421
15747TIP3    H168732   3.983   2.136  13.019  0.0126  0.5335 -0.1026
15747TIP3    H268733   3.958   2.144  13.168  1.0892  0.1974  0.1118
15748TIP3   OH268734   4.969   1.257  15.332  0.1435 -0.4461 -0.5060
15748TIP3    H168735   5.039   1.226  15.390  0.7192  0.2087 -0.8316
15748TIP3    H268736   4.991   1.348  15.315 -1.9088  0.4299  1.0309
15749TIP3   OH268737   5.347   3.067   3.027 -0.0624  0.1474 -0.5169
15749TIP3    H168738   5.310   3.145   3.068 -1.9388  0.3154 -2.3473
15749TIP3    H268739   5.312   2.994   3.077  1.1664  0.4220  0.7950
15750TIP3   OH268740   2.249   4.720  13.329  0.3243  0.3521 -0.1241
15750TIP3    H168741   2.322   4.677  13.283  0.3940  0.4059 -0.0650
15750TIP3    H268742   2.237   4.669  13.409  0.5016  0.5257  0.0144
15751TIP3   OH268743   1.377   0.623   4.458 -0.5553  0.0573  0.6224
15751TIP3    H168744   1.291   0.581   4.468 -0.8062  0.6454  1.0002
15751TIP3    H268745   1.406   0.638   4.547  0.8640 -1.9415  0.5509
15752TIP3   OH268746   6.493   6.513  11.733 -0.4836 -0.4474 -0.1011
15752TIP3    H168747   6.528   6.575  11.797 -0.0924  0.5705 -1.2549
15752TIP3    H268748   6.437   6.566  11.676 -1.1479 -1.4082 -0.3690
15753TIP3   OH268749   5.663   1.366  11.587 -0.0585  0.2783 -0.2290
15753TIP3    H168750   5.757   1.374  11.572 -0.4317  0.7251 -2.9028
15753TIP3    H268751   5.642   1.277  11.557 -1.0406  1.5969 -3.9668
15754TIP3   OH268752   1.183   3.913   5.408  0.3647  0.1548  0.3642
15754TIP3    H168753   1.125   3.840   5.388  0.5546 -0.5836  2.3317
15754TIP3    H268754   1.126   3.989   5.418 -0.0235 -0.1112  0.1605
15755TIP3   OH268755   1.153   6.477  11.832  0.2809  0.0705 -0.6747
15755TIP3    H168756   1.237   6.514  11.805  0.2935  0.1405 -0.5355
15755TIP3    H268757   1.153   6.483  11.927  0.7094 -1.1843 -0.5748
15756TIP3   OH268758   4.292   3.184  15.553 -0.3695 -0.0387 -0.2648
15756TIP3    H168759   4.206   3.175  15.511  0.1522  0.1049 -1.3808
15756TIP3    H268760   4.314   3.095  15.581 -1.3726  0.0952  1.0605
15757TIP3   OH268761   6.440   4.138  16.652 -0.4793  0.0135  0.2725
15757TIP3    H168762   6.416   4.073  16.718 -0.8554 -0.1064  0.0177
15757TIP3    H268763   6.375   4.207  16.660 -1.2026 -0.5302 -0.7295
15758TIP3   OH268764   2.773   3.653  11.661  0.3640 -0.3700  0.4239
15758TIP3    H168765   2.825   3.696  11.729 -0.4952 -1.0093  1.5143
15758TIP3    H268766   2.806   3.690  11.579  1.0565  0.8225  1.2072
15759TIP3   OH268767   5.607   5.337   0.721 -0.3952 -0.2879  0.1255
15759TIP3    H168768   5.602   5.350   0.815 -0.2872 -0.1191  0.1085
15759TIP3    H268769   5.589   5.244   0.708 -0.4251 -0.3070  0.3105
15760TIP3   OH268770   1.216   4.128  11.707  0.2258 -0.2612 -0.5124
15760TIP3    H168771   1.262   4.054  11.667  1.3555  0.6054 -0.8785
15760TIP3    H268772   1.135   4.136  11.657  0.7863 -0.3278 -1.4539
15761TIP3   OH268773   2.125   5.087   4.361 -0.8807 -0.1297 -0.2058
15761TIP3    H168774   2.149   5.172   4.398  0.1510 -1.7553  3.2979
15761TIP3    H268775   2.030   5.089   4.356 -0.9055  1.0332  0.4220
15762TIP3   OH268776   0.500   4.116   2.267 -0.1154  0.3414 -0.8580
15762TIP3    H168777   0.413   4.083   2.246 -0.1616 -1.3685  1.6359
15762TIP3    H268778   0.505   4.112   2.362  2.6651  0.4606 -0.9230
15763TIP3   OH268779   3.647   5.462   2.246 -0.4348  0.4495 -0.7598
15763TIP3    H168780   3.559   5.427   2.262  0.8314 -2.5107  0.4315
15763TIP3    H268781   3.654   5.464   2.150 -2.0800  1.6633 -0.8994
15764TIP3   OH268782   2.806   1.307   4.277 -0.1367  0.3412  0.4813
15764TIP3    H168783   2.755   1.372   4.230  1.1042  1.6108  0.8333
15764TIP3    H268784   2.747   1.276   4.346 -0.1281  2.5736  1.5719
15765TIP3   OH268785   6.852   6.212   5.233  0.0459 -0.0317 -0.1063
15765TIP3    H168786   6.843   6.283   5.169  1.5543  0.5481  0.2834
15765TIP3    H268787   6.771   6.215   5.284  0.4220  1.9944  0.4582
15766TIP3   OH268788   1.665   1.304   3.836 -0.9613 -0.6392  0.0856
15766TIP3    H168789   1.719   1.364   3.785 -0.4311 -1.9017 -0.8907
15766TIP3    H268790   1.575   1.328   3.814 -0.7540 -1.2866 -1.6914
15767TIP3   OH268791   4.669   5.227   0.551  0.1276 -0.4807 -0.2521
15767TIP3    H168792   4.580   5.226   0.516 -0.1520 -1.3740  0.4399
15767TIP3    H268793   4.662   5.277   0.633 -0.2909 -2.6310  1.0977
15768TIP3   OH268794   4.689   6.625   3.444  0.4196 -0.2619  0.1417
15768TIP3    H168795   4.618   6.688   3.454 -0.2333 -1.0567  0.5564
15768TIP3    H268796   4.658   6.563   3.378  0.4914 -0.9366  0.7362
15769TIP3   OH268797   2.375   1.826  16.011  0.2320 -0.6683  0.3295
15769TIP3    H168798   2.327   1.744  16.020  0.2536 -0.7930 -0.6175
15769TIP3    H268799   2.411   1.842  16.098 -0.7292 -1.0584  0.8117
15770TIP3   OH268800   0.347   2.099   3.190  0.5434 -0.2238  0.6270
15770TIP3    H168801   0.328   2.055   3.273 -0.0321  2.6834  2.1852
15770TIP3    H268802   0.261   2.119   3.153  0.7866 -1.9554 -1.0415
15771TIP3   OH268803   3.776   4.203   1.479  0.7946  0.0981  0.3569
15771TIP3    H168804   3.768   4.118   1.523 -0.8525 -0.0005 -0.0728
15771TIP3    H268805   3.753   4.185   1.388 -0.6429  1.1815  0.4707
15772TIP3   OH268806   5.470   0.345   1.464  0.0154 -0.6830 -0.5986
15772TIP3    H168807   5.477   0.432   1.505 -2.8356 -0.5970 -0.0877
15772TIP3    H268808   5.438   0.289   1.535  0.6769 -1.9083 -1.2462
15773TIP3   OH268809   3.656   4.349  16.084  0.0424  0.3813 -0.0837
15773TIP3    H168810   3.691   4.436  16.105  0.3657  0.1091  0.5494
15773TIP3    H268811   3.708   4.319  16.009  0.7263  0.2578  0.4296
15774TIP3   OH268812   6.323   1.205  11.425  0.3708 -0.3428  0.3977
15774TIP3    H168813   6.343   1.113  11.407 -0.4406 -0.2923 -0.8652
15774TIP3    H268814   6.406   1.251  11.410  0.3890 -0.6730 -0.5560
15775TIP3   OH268815   3.556   1.155  16.529  0.3036 -0.0743  0.8190
15775TIP3    H168816   3.624   1.110  16.478 -0.0443  2.4835 -2.2644
15775TIP3    H268817   3.597   1.238  16.556 -0.7124  0.2398  1.4450
15776TIP3   OH268818   5.078   1.207   1.982 -0.6371 -0.1789  0.0843
15776TIP3    H168819   5.048   1.205   2.072 -2.5970  2.2332 -0.4404
15776TIP3    H268820   5.002   1.182   1.930  0.6933 -2.4662 -0.9705
15777TIP3   OH268821   2.657   2.372   4.620 -0.3387  0.0329  0.2753
15777TIP3    H168822   2.577   2.326   4.646 -0.4963  0.2897  0.2429
15777TIP3    H268823   2.648   2.460   4.656  0.0635 -0.0261  0.5221
15778TIP3   OH268824   0.975   2.638  12.876  0.7944  0.1689  0.0537
15778TIP3    H168825   0.986   2.544  12.864  1.2907  0.2464 -0.1144
15778TIP3    H268826   1.056   2.676  12.843 -0.1517  0.7933 -1.6477
15779TIP3   OH268827   2.481   3.177  14.631 -0.6526  0.0968  0.2847
15779TIP3    H168828   2.464   3.121  14.556 -0.2880 -0.0013  0.2740
15779TIP3    H268829   2.427   3.255  14.616 -1.1330 -0.2337  0.2867
15780TIP3   OH268830   1.966   5.038  16.684  0.1377 -0.3759 -0.1047
15780TIP3    H168831   1.983   4.985  16.606  0.2335  0.0695 -0.3879
15780TIP3    H268832   1.963   5.128  16.651 -1.6619 -0.3351  0.1092
15781TIP3   OH268833   4.187   2.587  16.863  0.1579  0.4370  0.0576
15781TIP3    H168834   4.117   2.648  16.887  0.4431  1.3497 -1.2961
15781TIP3    H268835   4.142   2.503  16.853 -0.1518  0.2412  2.4916
15782TIP3   OH268836   1.657   2.491   4.023 -0.1203  0.2452 -1.0039
15782TIP3    H168837   1.595   2.545   4.071 -1.8383 -0.9610 -1.7459
15782TIP3    H268838   1.742   2.514   4.059 -0.9059  2.4742 -0.4215
15783TIP3   OH268839   0.283   5.642   3.998 -0.2331 -0.6848 -0.1510
15783TIP3    H168840   0.310   5.648   3.906 -0.2508  0.0932 -0.1102
15783TIP3    H268841   0.193   5.673   3.998  0.4954  1.5983  0.4627
15784TIP3   OH268842   3.992   2.064  16.396  0.5909  0.1846  0.4246
15784TIP3    H168843   3.965   2.146  16.355 -1.8705 -1.4422 -1.5245
15784TIP3    H268844   4.079   2.046  16.360  0.0118  0.6348 -1.2745
15785TIP3   OH268845   0.893   5.917  14.359 -0.0762  0.4444  0.3826
15785TIP3    H168846   0.985   5.915  14.386  0.0053 -1.8005  0.1522
15785TIP3    H268847   0.867   6.009  14.366  2.8920  1.6424 -1.9441
15786TIP3   OH268848   0.560   1.492  11.634  0.0948 -0.0311 -0.2152
15786TIP3    H168849   0.591   1.426  11.572  1.3000  0.9789 -0.7279
15786TIP3    H268850   0.555   1.573  11.582 -0.3723  0.5037  0.6367
15787TIP3   OH268851   3.773   3.394  17.112 -0.2334  0.2791  0.4712
15787TIP3    H168852   3.814   3.347  17.039 -1.3537 -1.3692  0.8366
15787TIP3    H268853   3.745   3.477  17.074  2.5022  1.0821 -0.0115
15788TIP3   OH268854   5.352   1.084  11.423  0.1443 -0.3628  0.3303
15788TIP3    H168855   5.320   0.998  11.396  0.0535  0.1315 -1.2061
15788TIP3    H268856   5.298   1.147  11.375  0.9052  0.5339  0.6119
15789TIP3   OH268857   6.135   5.191  15.538  0.7508  0.7364  0.2913
15789TIP3    H168858   6.086   5.117  15.572 -0.7433  1.2389 -0.6266
15789TIP3    H268859   6.184   5.224  15.613  1.5844 -1.2509  0.6741
15790TIP3   OH268860   4.314   1.988   5.057  0.0260 -0.6233 -0.6008
15790TIP3    H168861   4.394   1.954   5.097 -0.5676 -1.6671 -0.2555
15790TIP3    H268862   4.335   2.078   5.032 -0.2439  1.0925  4.2453
15791TIP3   OH268863   2.962   6.356   0.129  0.0345 -0.4451 -0.5121
15791TIP3    H168864   2.885   6.326   0.080 -1.1583  0.3270  0.8095
15791TIP3    H268865   3.022   6.389   0.062  0.0092 -2.6713 -1.7184
15792TIP3   OH268866   4.376   5.958   2.329  0.2919  0.0603 -0.3464
15792TIP3    H168867   4.423   5.877   2.346  0.5055  0.6617  2.2587
15792TIP3    H268868   4.445   6.024   2.321  0.1043  0.9378  3.4421
15793TIP3   OH268869   1.869   1.963  13.432 -0.3528 -0.5393 -0.0699
15793TIP3    H168870   1.960   1.994  13.434  0.0091 -1.3969 -1.7130
15793TIP3    H268871   1.823   2.026  13.377 -0.6903 -0.3112  0.4629
15794TIP3   OH268872   2.506   4.681   4.347 -0.0547  0.3095  0.0924
15794TIP3    H168873   2.442   4.749   4.327 -0.5364  0.1588  1.0525
15794TIP3    H268874   2.455   4.599   4.348  0.5269 -0.0920 -1.1034
15795TIP3   OH268875   0.596   2.528   1.073  0.2795  0.5337 -0.6115
15795TIP3    H168876   0.675   2.555   1.025  0.0742  0.5716 -0.9313
15795TIP3    H268877   0.557   2.461   1.018  0.6887 -0.2946  0.0934
15796TIP3   OH268878   5.893   3.179  14.869 -0.0895 -0.3498 -0.4115
15796TIP3    H168879   5.913   3.092  14.905 -0.6997 -0.5963 -0.6573
15796TIP3    H268880   5.975   3.208  14.831  0.7678  0.1845  1.6864
15797TIP3   OH268881   2.095   4.627   2.127 -0.1110  0.3872 -0.2676
15797TIP3    H168882   2.143   4.648   2.207  1.8052 -1.1325 -0.9317
15797TIP3    H268883   2.064   4.537   2.140  0.5622 -0.0264 -1.3288
15798TIP3   OH268884   5.485   5.105   3.096  0.5164  0.6188  0.3557
15798TIP3    H168885   5.400   5.122   3.135  0.6869 -3.3196  2.9805
15798TIP3    H268886   5.466   5.077   3.007 -0.8021  0.9885  0.5086
15799TIP3   OH268887   4.043   3.589  14.050  0.1175  0.5538 -0.3302
15799TIP3    H168888   4.024   3.597  13.957  3.5361  0.5927 -1.1713
15799TIP3    H268889   4.062   3.496  14.063 -2.7133  0.0516  0.9829
15800TIP3   OH268890   0.023   6.056   4.006  0.4237  0.6523  0.1802
15800TIP3    H168891  -0.048   6.054   3.943  1.1063 -0.4446 -0.5874
15800TIP3    H268892   0.037   6.149   4.024 -0.5297  0.9234 -0.4079
15801TIP3   OH268893   0.737   0.458  15.175 -0.3336  0.1289 -0.8132
15801TIP3    H168894   0.818   0.413  15.151 -1.1003 -0.4821 -2.3111
15801TIP3    H268895   0.766   0.529  15.233  1.1314 -0.8206 -0.3344
15802TIP3   OH268896   6.548   5.179  16.919  0.3864 -0.5731  0.5609
15802TIP3    H168897   6.633   5.136  16.906 -0.4020 -1.7876 -0.9280
15802TIP3    H268898   6.567   5.272  16.912  1.1306 -0.8269 -3.8666
15803TIP3   OH268899   6.404   2.175  11.951 -0.0921  0.0398  0.3101
15803TIP3    H168900   6.459   2.197  12.027  0.6216  2.6689 -0.8569
15803TIP3    H268901   6.462   2.128  11.892 -0.0532 -0.1405  0.4909
15804TIP3   OH268902   2.973   5.017  16.761 -0.4106 -0.3043 -0.1069
15804TIP3    H168903   3.005   5.100  16.727 -0.4174  0.1324  0.9231
15804TIP3    H268904   2.886   5.007  16.721 -0.7451  0.5757  0.3757
15805TIP3   OH268905   3.784   5.100   3.632 -0.0907  0.1554 -0.5188
15805TIP3    H168906   3.723   5.136   3.567  0.5818 -0.3488 -1.4534
15805TIP3    H268907   3.859   5.160   3.629 -0.7712  1.1297  1.0730
15806TIP3   OH268908   6.137   3.735  15.303  0.0833 -0.4558  0.4451
15806TIP3    H168909   6.050   3.743  15.342  0.0923 -1.3493  0.6795
15806TIP3    H268910   6.121   3.691  15.219 -0.0856  2.4856 -1.2132
15807TIP3   OH268911   2.225   6.586   1.167 -0.0034  0.5824 -0.0452
15807TIP3    H168912   2.204   6.638   1.090  1.7794 -0.8103 -1.5911
15807TIP3    H268913   2.216   6.495   1.137  1.3586  0.0157  1.1602
15808TIP3   OH268914   3.111   6.451   5.588  0.1164  0.2590  0.1168
15808TIP3    H168915   3.133   6.436   5.680 -0.2925  1.1100  0.3633
15808TIP3    H268916   3.162   6.385   5.540 -0.9750 -1.3259  1.0645
15809TIP3   OH268917   4.652   1.504  13.867 -0.4030  0.6565  0.1394
15809TIP3    H168918   4.677   1.415  13.894 -0.5312  0.2705 -0.9699
15809TIP3    H268919   4.659   1.503  13.772  0.0429  1.9824  0.1357
15810TIP3   OH268920   1.599   3.597  12.154 -0.2411 -0.4133  0.3728
15810TIP3    H168921   1.523   3.626  12.205  0.5254  1.0003  0.7758
15810TIP3    H268922   1.622   3.673  12.101  0.6731 -0.9508 -0.0193
15811TIP3   OH268923   3.941   5.962   0.994  0.4634  0.2577 -1.0609
15811TIP3    H168924   3.862   5.955   1.048 -0.1039  1.2490 -1.7611
15811TIP3    H268925   3.942   5.881   0.943  0.8794 -0.5904  0.2294
15812TIP3   OH268926   6.849   0.254  11.214  0.5001  0.8250 -0.3257
15812TIP3    H168927   6.901   0.174  11.214  0.1842  0.6173 -0.0373
15812TIP3    H268928   6.758   0.224  11.218  0.3927  1.2075  0.2088
15813TIP3   OH268929   6.581   1.974  11.142  0.3826 -0.1724  0.8323
15813TIP3    H168930   6.608   1.969  11.050 -2.1203  0.4076 -0.0139
15813TIP3    H268931   6.629   2.050  11.176  0.0929  0.6391 -0.4890
15814TIP3   OH268932   2.101   2.481   3.175  0.4419  0.4143  0.7295
15814TIP3    H168933   2.063   2.427   3.106  0.2050  0.6389  0.6819
15814TIP3    H268934   2.026   2.510   3.228  0.5505  0.7836  0.6880
15815TIP3   OH268935   1.660   3.997  16.728  0.1990  0.6376 -0.1480
15815TIP3    H168936   1.628   4.083  16.758  0.2488  0.7749 -0.4912
15815TIP3    H268937   1.593   3.935  16.759  0.5507  0.7049  0.7740
15816TIP3   OH268938   5.085   6.726   5.215  0.3005  0.1297  0.3573
15816TIP3    H168939   5.109   6.709   5.124 -2.7468  3.4569 -1.2965
15816TIP3    H268940   5.000   6.683   5.226 -1.1300  2.7944  0.3223
15817TIP3   OH268941   5.402   0.820   3.125 -0.1153 -0.2324 -0.0861
15817TIP3    H168942   5.350   0.743   3.099 -1.9238 -0.1573  2.8376
15817TIP3    H268943   5.366   0.845   3.210  3.1606  1.4003  0.9684
15818TIP3   OH268944   2.888   2.411   0.263  0.4849 -0.0834 -0.3654
15818TIP3    H168945   2.896   2.369   0.349 -0.0952  1.4954  0.4973
15818TIP3    H268946   2.875   2.338   0.202  0.1124 -1.1909  0.9874
15819TIP3   OH268947   4.926   0.059   0.269  0.4090 -0.1950 -0.1461
15819TIP3    H168948   4.956  -0.017   0.318  0.2731  0.9659  1.8428
15819TIP3    H268949   4.944   0.133   0.327 -0.9120  1.1255 -1.3583
15820TIP3   OH268950   4.239   5.136   3.184  0.1827 -0.1971 -0.4691
15820TIP3    H168951   4.145   5.121   3.176 -0.1977  0.9601  1.3194
15820TIP3    H268952   4.259   5.199   3.114 -0.4160 -0.2764 -0.7161
15821TIP3   OH268953   1.728   2.263  12.901 -0.8046  0.1314 -0.4770
15821TIP3    H168954   1.726   2.312  12.983  1.5363  0.8211 -0.7531
15821TIP3    H268955   1.713   2.172  12.927 -2.1009  0.5833  0.4334
15822TIP3   OH268956   1.854   3.113   3.339  0.1009 -0.0141  0.0401
15822TIP3    H168957   1.877   3.164   3.416  0.1752  1.0529 -0.6762
15822TIP3    H268958   1.781   3.161   3.299 -0.1654 -0.7419 -0.3679
15823TIP3   OH268959   4.824   0.846  10.936  0.0924 -0.0088  0.3429
15823TIP3    H168960   4.791   0.756  10.933 -1.9321  0.6744 -2.5039
15823TIP3    H268961   4.889   0.850  10.867  0.0885  0.7207  0.3743
15824TIP3   OH268962   2.950   3.902   0.430 -0.3155  0.6152  0.3405
15824TIP3    H168963   2.956   3.904   0.335 -1.0290  1.2080  0.3051
15824TIP3    H268964   2.858   3.883   0.449 -0.2261  0.7257  0.9164
15825TIP3   OH268965   4.888   2.110   2.135  0.2316  0.7036 -0.7050
15825TIP3    H168966   4.796   2.088   2.125  0.9926 -2.7095 -1.1327
15825TIP3    H268967   4.897   2.134   2.227 -0.9651  0.4978 -0.5202
15826TIP3   OH268968   5.207   0.839  11.054  0.3251 -0.1864 -0.6507
15826TIP3    H168969   5.179   0.867  10.966 -2.4159  3.1076  1.0181
15826TIP3    H268970   5.221   0.921  11.102 -1.8379 -1.6695  2.9432
15827TIP3   OH268971   2.870   4.058   3.382 -0.1621  0.2190  0.4856
15827TIP3    H168972   2.810   4.036   3.454  0.4435  3.1923  2.0543
15827TIP3    H268973   2.956   4.025   3.412 -0.1172  0.4336  0.5950
15828TIP3   OH268974   4.950   2.810  12.894 -0.2510 -0.1583 -0.1869
15828TIP3    H168975   5.006   2.811  12.817  0.0566 -0.1575  0.0363
15828TIP3    H268976   4.995   2.753  12.956  0.6855  1.6532  0.8753
15829TIP3   OH268977   3.791   0.040  15.953  0.1355  0.0099  0.1595
15829TIP3    H168978   3.825   0.049  15.864  1.7053 -2.6404  0.3704
15829TIP3    H268979   3.865   0.008  16.005 -1.2559 -0.5422  1.9462
15830TIP3   OH268980   0.435   4.854   4.257 -0.5014  0.2548 -0.1662
15830TIP3    H168981   0.368   4.865   4.324  0.1613  1.5502  0.3408
15830TIP3    H268982   0.518   4.860   4.305 -0.0215 -0.4449 -0.8879
15831TIP3   OH268983   0.842   6.054  15.740  0.2685  0.1456  0.3302
15831TIP3    H168984   0.851   5.976  15.796 -1.2075 -0.1620  0.1799
15831TIP3    H268985   0.835   6.127  15.801  0.0733 -0.0275  0.5177
15832TIP3   OH268986   6.342   5.791  12.701  0.4663 -0.2657  0.5008
15832TIP3    H168987   6.389   5.842  12.635 -0.1652 -0.2664  0.0410
15832TIP3    H268988   6.307   5.716  12.653  2.7515 -2.0826  1.4602
15833TIP3   OH268989   0.617   5.213  13.971  0.0329  0.2190  0.5255
15833TIP3    H168990   0.529   5.252  13.975  0.2896  0.7960  0.6928
15833TIP3    H268991   0.652   5.225  14.059  0.8886  1.4751  0.0409
15834TIP3   OH268992   5.970   1.843   2.116  0.3181  0.2334 -0.0934
15834TIP3    H168993   5.881   1.831   2.149  0.8534  0.9314  1.6786
15834TIP3    H268994   5.994   1.758   2.079  0.1002 -0.9712  2.3903
15835TIP3   OH268995   2.914   2.103   2.493  0.0432 -0.0152 -0.7453
15835TIP3    H168996   2.949   2.076   2.577 -1.2714 -0.5468 -0.3439
15835TIP3    H268997   2.843   2.042   2.475  0.2165  0.1646 -2.1884
15836TIP3   OH268998   1.975   0.876   0.453 -0.2297  0.0742 -0.5212
15836TIP3    H168999   1.908   0.820   0.491 -0.6539  2.1321  2.1113
15836TIP3    H269000   2.045   0.817   0.427 -1.2551 -1.7694  0.7158
15837TIP3   OH269001   3.111   1.794   0.779  0.3128  0.2318 -0.6400
15837TIP3    H169002   3.156   1.857   0.723  0.1041  0.3385 -0.6894
15837TIP3    H269003   3.143   1.813   0.867 -0.8429  1.3963 -0.4429
15838TIP3   OH269004   1.643   1.086  16.629  0.3459  0.1332  0.2056
15838TIP3    H169005   1.701   1.029  16.681  1.5466  0.7801 -0.3723
15838TIP3    H269006   1.651   1.172  16.670 -0.1638  0.2451  0.0715
15839TIP3   OH269007   5.530   1.744   5.274 -0.3116 -0.4941 -0.6923
15839TIP3    H169008   5.559   1.749   5.183  1.3809  0.1139 -0.1624
15839TIP3    H269009   5.595   1.689   5.317 -0.6837 -0.1845  0.3012
15840TIP3   OH269010   0.605   3.514   0.520  0.0844 -0.2328 -0.1531
15840TIP3    H169011   0.565   3.540   0.437 -0.1248 -1.0444 -0.3072
15840TIP3    H269012   0.663   3.442   0.498  1.2049  0.5392  0.1697
15841TIP3   OH269013   1.343   4.651   1.499  0.1821  0.1250 -0.0487
15841TIP3    H169014   1.302   4.735   1.480 -1.8676 -0.6904  0.5247
15841TIP3    H269015   1.420   4.673   1.551  0.4991  1.7136 -1.1178
15842TIP3   OH269016   5.886   4.338   5.699  0.3416  0.5188  0.0518
15842TIP3    H169017   5.829   4.280   5.649 -0.1752  1.3072 -0.3082
15842TIP3    H269018   5.919   4.401   5.634  1.8521 -0.0700  0.1945
15843TIP3   OH269019   4.853   1.276   3.963  0.2890 -0.1422  0.0782
15843TIP3    H169020   4.826   1.266   4.054 -2.9930 -0.9114 -0.8633
15843TIP3    H269021   4.917   1.205   3.949  2.3851  1.1750  2.1678
15844TIP3   OH269022   3.484   0.284  14.352 -0.0465  0.1363 -0.2991
15844TIP3    H169023   3.458   0.203  14.309 -0.2825 -0.5618  1.1024
15844TIP3    H269024   3.413   0.304  14.412  0.4756  0.8307  0.1166
15845TIP3   OH269025   1.991   4.600  11.111  0.4812 -0.1093  0.6318
15845TIP3    H169026   2.052   4.565  11.047  0.3928  0.2821  0.3262
15845TIP3    H269027   1.923   4.533  11.120 -0.6820  0.7183 -1.3315
15846TIP3   OH269028   6.563   2.377  11.008  0.4196 -0.7369 -0.0565
15846TIP3    H169029   6.577   2.432  10.931 -0.2100  0.6371  0.7852
15846TIP3    H269030   6.646   2.380  11.055 -0.0568  0.7624  0.7523
15847TIP3   OH269031   0.290   6.038  16.726 -0.2840  0.1306 -0.0170
15847TIP3    H169032   0.216   5.979  16.710 -0.2061 -0.0354  0.2277
15847TIP3    H269033   0.323   6.058  16.638 -0.9941  0.6940 -0.1657
15848TIP3   OH269034   6.169   0.882   0.001 -0.1620 -0.7015  0.2304
15848TIP3    H169035   6.165   0.967  -0.043 -1.1079 -0.0865  1.4674
15848TIP3    H269036   6.203   0.823  -0.066  0.4589  0.6225 -0.6803
15849TIP3   OH269037   0.342   3.870  14.088 -0.2353 -0.3198 -0.7705
15849TIP3    H169038   0.398   3.944  14.112 -0.5713 -0.3415  0.1344
15849TIP3    H269039   0.392   3.793  14.115 -1.5683 -0.2948  2.1969
15850TIP3   OH269040   1.972   3.902   1.591 -0.0753  0.0502  0.1486
15850TIP3    H169041   2.053   3.938   1.628 -0.3592  2.5911 -1.4228
15850TIP3    H269042   1.904   3.926   1.654  0.1810 -0.9053  0.8127
15851TIP3   OH269043   3.759   3.626   6.310  0.5605  0.2471  0.6747
15851TIP3    H169044   3.697   3.563   6.346  0.6550 -0.7253 -0.7631
15851TIP3    H269045   3.831   3.571   6.276  0.1782  1.0069 -1.5150
15852TIP3   OH269046   4.993   4.666  11.934 -0.1208  0.4981 -0.1646
15852TIP3    H169047   4.923   4.731  11.925 -0.5775 -0.0196 -0.4001
15852TIP3    H269048   4.997   4.649  12.028 -0.1407  0.7217 -0.1230
15853TIP3   OH269049   2.164   5.306  12.782 -0.4681 -0.6631 -0.2772
15853TIP3    H169050   2.189   5.221  12.744  0.3630 -0.6130  0.1400
15853TIP3    H269051   2.241   5.361  12.770 -1.2957  0.3180 -1.3294
15854TIP3   OH269052   0.656   2.854   2.698 -0.1386  0.5595  0.5943
15854TIP3    H169053   0.721   2.791   2.668 -0.9121  1.4692 -3.6130
15854TIP3    H269054   0.578   2.802   2.717  1.0536 -0.3074  3.7890
15855TIP3   OH269055   0.675   3.694  14.823  0.5553 -0.0192 -0.1090
15855TIP3    H169056   0.613   3.767  14.816  1.7282  0.9160 -1.1335
15855TIP3    H269057   0.619   3.617  14.836 -0.7238  1.0199  0.9223
15856TIP3   OH269058   2.363   2.425  10.286 -0.5878 -0.3335 -0.7918
15856TIP3    H169059   2.451   2.390  10.272 -0.6212 -0.6382 -0.2862
15856TIP3    H269060   2.305   2.365  10.239 -0.5210 -0.0961 -1.1792
15857TIP3   OH269061   3.467   4.557   1.939 -0.1485 -0.4941 -0.0855
15857TIP3    H169062   3.384   4.511   1.952  0.2457 -1.0070  0.6587
15857TIP3    H269063   3.496   4.580   2.028  0.0294  0.5500 -0.3951
15858TIP3   OH269064   0.536   6.682  15.540 -0.8680  0.2922 -0.2973
15858TIP3    H169065   0.563   6.774  15.537 -1.6267  0.5173 -0.6067
15858TIP3    H269066   0.560   6.653  15.627 -0.7977  0.8454 -0.1253
15859TIP3   OH269067   3.133   3.202   1.704 -0.6415 -0.6657  0.2854
15859TIP3    H169068   3.039   3.181   1.699 -1.1000  1.1097  0.6902
15859TIP3    H269069   3.141   3.283   1.654  0.5438 -0.3599  0.9541
15860TIP3   OH269070   3.911   0.256   0.216  0.6899  0.3152 -0.3043
15860TIP3    H169071   4.004   0.234   0.223  0.7791  0.6107 -0.5737
15860TIP3    H269072   3.868   0.171   0.206  0.7527  0.0026  1.6219
15861TIP3   OH269073   1.112   1.912  14.906 -0.4132 -0.3463 -0.5504
15861TIP3    H169074   1.097   1.977  14.975  1.2095 -0.7068  0.1831
15861TIP3    H269075   1.202   1.929  14.877 -0.5196 -1.2597 -1.4374
15862TIP3   OH269076   0.040   2.554   2.290  0.2472  0.9649  0.4825
15862TIP3    H169077   0.099   2.602   2.231  1.3972  0.8094  1.4659
15862TIP3    H269078  -0.021   2.621   2.322  1.4238  1.6719  1.3336
15863TIP3   OH269079   3.123   5.865   1.469 -0.1075 -0.3221  0.4730
15863TIP3    H169080   3.183   5.907   1.408 -2.4059  1.4696 -0.7137
15863TIP3    H269081   3.121   5.773   1.442 -0.7684  0.3486 -1.9739
15864TIP3   OH269082   2.896   3.251   0.719  0.2293  0.8200  0.5557
15864TIP3    H169083   2.825   3.305   0.755 -0.0923  0.7258  0.0705
15864TIP3    H269084   2.923   3.296   0.639 -0.6288 -0.1715 -0.3286
15865TIP3   OH269085   1.638   4.148  12.139 -0.0175 -0.2337  0.3920
15865TIP3    H169086   1.588   4.099  12.204 -0.5577  0.8274  0.8004
15865TIP3    H269087   1.701   4.085  12.104 -0.6300 -1.1796  0.9632
15866TIP3   OH269088   0.585   3.062   5.728  0.3447 -0.0490  0.0339
15866TIP3    H169089   0.632   3.136   5.766 -0.3773 -0.6981  2.3355
15866TIP3    H269090   0.642   2.987   5.741 -0.4187 -0.4854  0.9779
15867TIP3   OH269091   1.031   2.866  13.860 -0.3344  0.4268  0.1607
15867TIP3    H169092   1.033   2.785  13.810 -0.8349 -0.3312  1.3336
15867TIP3    H269093   0.947   2.864  13.906  1.1474 -0.2278  3.0988
15868TIP3   OH269094   4.924   4.924   1.874  0.2051 -0.5039  0.2924
15868TIP3    H169095   4.991   4.909   1.807 -0.8382 -0.2587 -0.8338
15868TIP3    H269096   4.919   4.841   1.921  0.1435 -1.0752 -0.6827
15869TIP3   OH269097   5.515   2.426   5.490  0.4533 -0.4334 -0.3930
15869TIP3    H169098   5.421   2.446   5.497  0.3684 -0.7869 -0.4861
15869TIP3    H269099   5.523   2.381   5.405  0.4136 -2.0354  0.4229
15870TIP3   OH269100   2.276   0.276  14.476 -0.2111 -0.3425  0.0041
15870TIP3    H169101   2.306   0.301  14.563 -0.5303 -0.7084  0.2241
15870TIP3    H269102   2.192   0.232  14.491 -1.6050  1.9150 -0.6948
15871TIP3   OH269103   5.260   4.613  14.124  0.3188 -0.0555 -0.0886
15871TIP3    H169104   5.200   4.538  14.128 -0.7702  0.7233 -1.2146
15871TIP3    H269105   5.347   4.573  14.130 -0.2627 -1.1381  2.4573
15872TIP3   OH269106   5.990   3.033   4.169  0.6516  0.0368  0.1146
15872TIP3    H169107   5.898   3.055   4.153  0.9989  1.8554  0.4900
15872TIP3    H269108   6.013   2.975   4.097 -0.1525  1.4046 -1.3051
15873TIP3   OH269109   0.461   4.807  13.480 -0.3604  0.7434  0.0233
15873TIP3    H169110   0.419   4.730  13.518  0.6790  0.4955  0.7028
15873TIP3    H269111   0.554   4.795  13.498  0.2811  0.4073 -2.9391
15874TIP3   OH269112   5.508   3.934  14.363 -0.1171 -0.1816 -0.3949
15874TIP3    H169113   5.548   3.869  14.306  0.3227 -0.7429  0.5254
15874TIP3    H269114   5.568   4.009  14.361  0.6662 -0.7635  0.4573
15875TIP3   OH269115   5.119   6.103   2.385 -0.1468 -0.1047  0.0761
15875TIP3    H169116   5.095   6.184   2.340 -1.0559 -0.6889 -0.5206
15875TIP3    H269117   5.140   6.130   2.474 -3.1483  0.4562  0.7063
15876TIP3   OH269118   5.027   4.501  12.552 -0.7433 -0.2456 -0.5980
15876TIP3    H169119   5.031   4.509  12.648  0.1585  0.7004 -0.6891
15876TIP3    H269120   4.934   4.503  12.532 -0.9170  0.8693  0.1801
15877TIP3   OH269121   5.459   6.041  14.500 -0.7154  0.0856  0.0444
15877TIP3    H169122   5.504   6.088  14.430 -0.0912  0.5494  0.7400
15877TIP3    H269123   5.366   6.063  14.488 -0.3285  2.6623  1.1544
15878TIP3   OH269124   3.977   1.207  16.665 -0.0307  0.1985  0.5758
15878TIP3    H169125   3.919   1.274  16.702  0.2863 -0.3707  2.1566
15878TIP3    H269126   3.945   1.124  16.700 -0.3786 -0.5291 -1.3139
15879TIP3   OH269127   5.836   2.198  13.028  0.2412  0.1425  0.9933
15879TIP3    H169128   5.757   2.250  13.017  1.0385  1.2165  0.0773
15879TIP3    H269129   5.845   2.149  12.946  0.8039  0.4494  0.8615
15880TIP3   OH269130   5.139   6.846   1.749  0.2300  0.0083 -0.0822
15880TIP3    H169131   5.096   6.832   1.833 -2.2938  0.5943 -1.2058
15880TIP3    H269132   5.168   6.759   1.722 -1.0223 -0.5642  0.3413
15881TIP3   OH269133   4.868   6.725   0.500  0.0800 -0.2274 -0.3899
15881TIP3    H169134   4.844   6.656   0.562 -0.1379  0.1654 -0.0388
15881TIP3    H269135   4.903   6.677   0.424 -0.0794 -0.7250 -0.1539
15882TIP3   OH269136   6.503   0.565   3.003 -0.1891 -0.3837 -0.5248
15882TIP3    H169137   6.549   0.490   2.964  1.2250 -0.0622  0.4305
15882TIP3    H269138   6.522   0.638   2.944  1.9551  0.1050  0.6782
15883TIP3   OH269139   0.774   1.833  17.109  0.5939  0.0182 -0.4163
15883TIP3    H169140   0.863   1.813  17.136  0.0053 -1.2872  0.6359
15883TIP3    H269141   0.775   1.928  17.093  2.3157 -0.0739 -1.0993
15884TIP3   OH269142   3.040   0.972  12.381 -0.3933  0.5612 -0.2628
15884TIP3    H169143   3.090   1.054  12.378  0.4370  0.0665 -0.3475
15884TIP3    H269144   3.075   0.920  12.308 -1.9801  0.7178 -1.1830
15885TIP3   OH269145   2.838   0.657  16.953 -0.2839 -0.5011  0.1668
15885TIP3    H169146   2.933   0.647  16.949 -0.3136 -2.1980  2.2272
15885TIP3    H269147   2.806   0.576  16.992 -2.6763 -0.2685 -1.1238
15886TIP3   OH269148   5.238   1.155  11.033 -0.1485 -0.1030 -0.1946
15886TIP3    H169149   5.228   1.245  11.001 -0.6348 -0.7502 -1.9633
15886TIP3    H269150   5.320   1.124  10.993 -1.0202 -1.0988 -1.2671
15887TIP3   OH269151   3.663   2.136  14.971  0.7416 -0.4243 -0.0560
15887TIP3    H169152   3.598   2.139  15.041  1.4982  0.3712  0.6474
15887TIP3    H269153   3.640   2.209  14.914 -0.8804 -2.0743 -1.6106
15888TIP3   OH269154   6.322   0.267   0.069  0.0590 -0.2631 -0.1231
15888TIP3    H169155   6.353   0.290   0.157 -2.1428 -1.0656  0.9626
15888TIP3    H269156   6.399   0.237   0.022  1.3929  0.7186  1.3450
15889TIP3   OH269157   6.260   0.998  14.150 -0.2105 -0.2892  0.1459
15889TIP3    H169158   6.197   0.979  14.220  0.0484 -0.5141  0.3219
15889TIP3    H269159   6.225   0.954  14.073 -0.2482 -0.4492  0.2538
15890TIP3   OH269160   4.753   1.978   3.126  0.0651 -0.5117  0.2893
15890TIP3    H169161   4.659   1.970   3.144 -0.0014  0.8453  0.6681
15890TIP3    H269162   4.775   1.899   3.078 -1.1326 -1.1806  0.7998
15891TIP3   OH269163   6.715   1.663  10.951  0.1161 -0.2871  0.1703
15891TIP3    H169164   6.752   1.714  10.879 -0.0597 -1.3214 -0.6680
15891TIP3    H269165   6.786   1.661  11.016  0.2207  0.7835  0.1199
15892TIP3   OH269166   6.186   3.844  13.512  0.0563 -0.5761  0.0932
15892TIP3    H169167   6.155   3.823  13.424 -0.1775 -1.0873  0.2931
15892TIP3    H269168   6.167   3.766  13.563 -1.7424  0.4498  1.0828
15893TIP3   OH269169   6.121   6.734   2.388 -0.1577 -0.4383 -0.6784
15893TIP3    H169170   6.115   6.827   2.367  2.3814 -0.1798 -0.5730
15893TIP3    H269171   6.138   6.692   2.304  1.7105 -0.3888 -0.3739
15894TIP3   OH269172   3.363   5.361  13.873 -0.2978  0.5506 -0.0170
15894TIP3    H169173   3.369   5.287  13.813  2.5144 -0.0029  0.7604
15894TIP3    H269174   3.445   5.357  13.923 -1.4048  2.4263  2.1411
15895TIP3   OH269175   6.400   4.609  16.798  0.5102 -0.3694  0.1230
15895TIP3    H169176   6.390   4.546  16.869 -1.0857 -0.3076 -0.0039
15895TIP3    H269177   6.494   4.628  16.796  1.0137 -2.5442  0.3032
15896TIP3   OH269178   5.052   5.266   3.725  0.8806  0.3706  0.0629
15896TIP3    H169179   4.963   5.230   3.726  1.4215 -1.0191 -0.3287
15896TIP3    H269180   5.104   5.201   3.772  2.2153 -0.2818 -2.2050
15897TIP3   OH269181   5.370   5.091  12.503 -0.8774  0.2531  0.7038
15897TIP3    H169182   5.391   5.005  12.538 -2.1429 -0.1300  0.5903
15897TIP3    H269183   5.275   5.089  12.491 -1.0266  1.9165  1.3622
15898TIP3   OH269184   6.285   1.059   0.400 -0.6695 -0.0326  0.4176
15898TIP3    H169185   6.211   1.009   0.435 -0.4939 -0.2285  0.5131
15898TIP3    H269186   6.256   1.088   0.314 -2.0453  2.4982  1.6202
15899TIP3   OH269187   4.097   2.840  11.802  0.0273  0.3661 -0.0974
15899TIP3    H169188   4.125   2.771  11.863  0.3736  0.1374 -0.5124
15899TIP3    H269189   4.141   2.919  11.833  1.5336 -0.0758 -1.0138
15900TIP3   OH269190   0.270   3.976  15.447 -0.0099 -0.0034  0.7862
15900TIP3    H169191   0.303   3.888  15.462  1.2617  0.5599  1.4754
15900TIP3    H269192   0.175   3.967  15.448  0.0787 -1.6059 -0.7681
15901TIP3   OH269193   5.667   5.155  12.392  0.2493 -0.1434 -0.1709
15901TIP3    H169194   5.675   5.123  12.302 -1.2866 -1.1996  0.0368
15901TIP3    H269195   5.578   5.132  12.418  1.0133 -0.8444  2.0171
15902TIP3   OH269196   0.687   2.132   2.709 -0.0887 -0.6688 -0.0120
15902TIP3    H169197   0.652   2.050   2.673  1.1529 -0.8241 -0.9329
15902TIP3    H269198   0.611   2.188   2.719 -0.9268 -1.8380  0.3681
15903TIP3   OH269199   6.657   2.418  13.645  0.0693 -0.2482  0.4599
15903TIP3    H169200   6.742   2.373  13.639  0.6539  0.8523  0.3079
15903TIP3    H269201   6.618   2.405  13.559  1.3275  1.6065 -0.4594
15904TIP3   OH269202   4.186   6.160  11.884 -0.0867  0.5709 -0.0300
15904TIP3    H169203   4.159   6.251  11.897  0.9959  0.7194  1.4328
15904TIP3    H269204   4.110   6.109  11.910  0.1378  1.0272  1.6373
15905TIP3   OH269205   3.132   0.644   2.748 -0.6744 -0.0014 -0.1610
15905TIP3    H169206   3.099   0.563   2.710 -2.2170  0.1805  0.6975
15905TIP3    H269207   3.227   0.638   2.740 -0.8184 -1.4027 -1.0739
15906TIP3   OH269208   4.293   4.284  12.594  0.3254 -0.4301 -0.5277
15906TIP3    H169209   4.254   4.367  12.619  3.1492  0.5729  0.9994
15906TIP3    H269210   4.326   4.298  12.505 -0.2887 -0.3463 -0.7424
15907TIP3   OH269211   6.115   5.064   1.787 -0.1790  0.3721 -0.4229
15907TIP3    H169212   6.140   5.023   1.870  1.1944  0.6620 -0.6780
15907TIP3    H269213   6.087   5.152   1.812  0.0121  0.3823 -0.2392
15908TIP3   OH269214   6.799   2.051   5.244 -0.1848  0.1632 -0.4884
15908TIP3    H169215   6.803   1.967   5.291 -0.8811 -0.4540 -1.5002
15908TIP3    H269216   6.875   2.100   5.277 -3.0284  1.7467  4.8583
15909TIP3   OH269217   1.516   6.021  16.991  0.0273  0.1462  0.0406
15909TIP3    H169218   1.536   5.968  16.914 -1.0040 -0.4340  0.1470
15909TIP3    H269219   1.559   5.975  17.063 -0.0722 -0.0229 -0.0057
15910TIP3   OH269220   6.786   1.456   1.342 -0.6590  0.0748  0.2254
15910TIP3    H169221   6.694   1.476   1.326 -0.3405  0.7324 -0.8826
15910TIP3    H269222   6.834   1.528   1.302  0.3344  0.1055  1.3903
15911TIP3   OH269223   6.526   4.834   3.283 -0.0215 -0.7086  0.0547
15911TIP3    H169224   6.474   4.821   3.204  2.0134  3.3476 -2.2844
15911TIP3    H269225   6.489   4.912   3.324  2.1696  0.4437  0.0021
15912TIP3   OH269226   1.830   4.878  12.390 -0.2040 -0.3602  0.2336
15912TIP3    H169227   1.770   4.813  12.426 -1.9937  0.5554 -0.8935
15912TIP3    H269228   1.802   4.887  12.299 -1.0097  2.9216  0.6690
15913TIP3   OH269229   4.156   1.361   6.453 -0.2033 -0.3333 -0.6265
15913TIP3    H169230   4.089   1.429   6.457  0.3796  0.3728 -2.1377
15913TIP3    H269231   4.236   1.407   6.428  0.0048 -1.6712 -2.6751
15914TIP3   OH269232   3.715   0.336   1.364  0.0228 -0.6433  0.7591
15914TIP3    H169233   3.776   0.274   1.403 -0.2336 -3.1284 -2.3989
15914TIP3    H269234   3.628   0.299   1.384 -0.2050 -0.4020  0.2164
15915TIP3   OH269235   2.237   6.713  15.131  0.1172 -0.2617  0.1684
15915TIP3    H169236   2.181   6.640  15.105  1.8283 -1.8696  0.7645
15915TIP3    H269237   2.320   6.696  15.087  0.8104  0.8774  0.9937
15916TIP3   OH269238   4.899   2.003   3.769  0.1618  0.2774 -0.1754
15916TIP3    H169239   4.938   1.916   3.770 -1.4366 -0.4997  1.4627
15916TIP3    H269240   4.947   2.052   3.836 -0.9272 -0.3769  1.1454
15917TIP3   OH269241   0.418   6.484   5.961  0.3617 -0.4078  0.1996
15917TIP3    H169242   0.414   6.400   6.006 -0.7710  0.4691  1.8689
15917TIP3    H269243   0.507   6.515   5.975  0.7121 -1.2096 -0.2184
15918TIP3   OH269244   4.810   2.581  14.049  0.3602  0.4619  0.4226
15918TIP3    H169245   4.828   2.641  14.121  1.7307 -0.9122  1.3045
15918TIP3    H269246   4.717   2.593  14.029  0.1770  1.5177  1.8119
15919TIP3   OH269247   5.823   1.703   3.672  0.5526 -0.4327 -0.4609
15919TIP3    H169248   5.843   1.797   3.680  2.2870 -0.5807 -2.2864
15919TIP3    H269249   5.869   1.663   3.746 -1.2020  0.2034  1.0703
15920TIP3   OH269250   6.727   1.588   4.952 -0.5278 -0.0883  0.3912
15920TIP3    H169251   6.802   1.568   4.896  0.6729 -0.0563  1.9162
15920TIP3    H269252   6.720   1.684   4.950  0.3328  0.0122  1.2594
15921TIP3   OH269253   1.029   4.759   3.868  0.0006  0.0810  0.4152
15921TIP3    H169254   1.105   4.703   3.883 -0.2212  0.2234  2.3972
15921TIP3    H269255   0.987   4.766   3.954 -1.4727  1.1457 -0.3332
15922TIP3   OH269256   4.335   0.115   2.439  0.3745  0.2252  0.2917
15922TIP3    H169257   4.321   0.199   2.395 -1.5253  0.0167  0.4283
15922TIP3    H269258   4.390   0.065   2.379 -0.9627  0.4854 -1.1900
15923TIP3   OH269259   4.867   1.478   4.855  0.0629 -0.2231  0.3795
15923TIP3    H169260   4.942   1.462   4.912 -0.7102 -0.3171  1.3979
15923TIP3    H269261   4.837   1.566   4.878  1.3081  0.8502 -1.7454
15924TIP3   OH269262   6.081   2.854   3.183  0.3724  0.2637  0.1611
15924TIP3    H169263   6.118   2.913   3.249 -0.4018  0.3954  0.4840
15924TIP3    H269264   6.024   2.910   3.130  0.4750  0.0225 -0.2133
15925TIP3   OH269265   1.365   3.476  12.809  0.6657 -0.0053 -0.0477
15925TIP3    H169266   1.363   3.522  12.724  0.3221  0.5033  0.2339
15925TIP3    H269267   1.371   3.383  12.785 -0.7814  0.0281 -0.6495
15926TIP3   OH269268   0.014   1.210  14.881 -0.4284  0.0550  0.9381
15926TIP3    H169269  -0.062   1.177  14.928 -0.4949 -1.3339 -0.0596
15926TIP3    H269270   0.083   1.147  14.901 -0.5372 -0.7410 -0.9593
15927TIP3   OH269271   3.678   6.517  15.403  0.6385 -0.5608 -0.3746
15927TIP3    H169272   3.720   6.603  15.393  0.3813 -0.5258 -1.2220
15927TIP3    H269273   3.618   6.511  15.328  0.2787 -1.2668 -0.0357
15928TIP3   OH269274   1.768   4.743   3.706 -0.3239  0.1761 -0.2213
15928TIP3    H169275   1.797   4.652   3.712 -0.4244  0.1725  0.2364
15928TIP3    H269276   1.676   4.738   3.680 -0.5104  0.1273  0.4395
15929TIP3   OH269277   5.796   4.858   0.729 -0.5180 -0.5720  0.1955
15929TIP3    H169278   5.791   4.827   0.639  2.7922  2.3565 -1.2558
15929TIP3    H269279   5.734   4.930   0.734 -0.8314 -0.8499  0.3250
15930TIP3   OH269280   6.718   3.406   3.006  0.0732 -0.3093  0.3282
15930TIP3    H169281   6.647   3.376   3.063  0.3547 -1.5744  0.0452
15930TIP3    H269282   6.706   3.358   2.925  1.6439 -1.0838  0.5185
15931TIP3   OH269283   6.285   0.391  13.174 -0.4534  0.6954 -0.4027
15931TIP3    H169284   6.327   0.365  13.091  0.7002  0.4131  0.2421
15931TIP3    H269285   6.237   0.313  13.201 -0.8787  0.8046 -0.8258
15932TIP3   OH269286   0.417   3.552  15.045 -0.1943 -0.0644 -0.0206
15932TIP3    H169287   0.345   3.615  15.051 -1.2274 -1.2116 -0.0781
15932TIP3    H269288   0.380   3.477  14.999  0.6743 -1.1850  1.0480
15933TIP3   OH269289   1.364   1.652   4.672 -0.1565 -0.1241  0.1323
15933TIP3    H169290   1.456   1.627   4.664  0.1514  1.3078 -1.3422
15933TIP3    H269291   1.316   1.581   4.628  0.2265 -0.7768  0.7333
15934TIP3   OH269292   6.265   3.589  16.738  0.3655 -0.2527  0.3869
15934TIP3    H169293   6.201   3.519  16.727 -0.1318  0.3082 -0.3992
15934TIP3    H269294   6.231   3.641  16.811 -0.2369  0.1933 -0.1931
15935TIP3   OH269295   5.925   1.806  15.192  0.2520 -0.0388 -0.1457
15935TIP3    H169296   5.965   1.810  15.279 -0.6062 -2.4058  0.4272
15935TIP3    H269297   5.870   1.885  15.187  0.0515 -0.0294  1.6016
15936TIP3   OH269298   1.830   2.892   6.414  0.1317  0.0334  0.6530
15936TIP3    H169299   1.886   2.816   6.395  0.6149  0.3804  0.6568
15936TIP3    H269300   1.848   2.953   6.342 -0.1179  0.2165  0.7460
15937TIP3   OH269301   0.012   6.727   4.895 -0.7347 -0.5053  0.2261
15937TIP3    H169302   0.107   6.724   4.888 -0.6534  2.0476 -0.6259
15937TIP3    H269303  -0.006   6.710   4.988  0.7182  0.9787  0.8155
15938TIP3   OH269304   6.303   5.825  14.110 -0.2494 -0.3372 -0.1551
15938TIP3    H169305   6.329   5.911  14.077 -0.9235  0.2256  0.7294
15938TIP3    H269306   6.209   5.821  14.093 -0.2958 -0.7248  0.1856
15939TIP3   OH269307   6.303   3.231   0.849  0.2158 -0.1105  0.0164
15939TIP3    H169308   6.240   3.262   0.915 -0.0789  2.5377 -1.3546
15939TIP3    H269309   6.250   3.215   0.771  0.8588 -0.9270 -0.2627
15940TIP3   OH269310   5.959   5.526   2.289  0.2800  0.1103 -0.1632
15940TIP3    H169311   5.928   5.578   2.214 -0.8827 -1.6786 -0.9912
15940TIP3    H269312   5.901   5.549   2.361  2.4581  3.1433  0.8028
15941TIP3   OH269313   2.920   5.378  11.306 -0.2576 -0.3726 -0.3175
15941TIP3    H169314   2.964   5.447  11.255 -0.6163  2.0308  2.3659
15941TIP3    H269315   2.985   5.309  11.314  2.1694  1.9004  1.2263
15942TIP3   OH269316   0.333   1.986   3.435 -0.5289  0.1277  0.7408
15942TIP3    H169317   0.318   1.896   3.409 -1.3414  0.0983  1.2786
15942TIP3    H269318   0.268   2.003   3.504  1.7833  0.0764  3.0715
15943TIP3   OH269319   3.384   3.582  14.948 -0.2305 -0.4168 -0.0264
15943TIP3    H169320   3.360   3.490  14.939 -0.4791 -0.1966 -2.1862
15943TIP3    H269321   3.311   3.630  14.909  0.3255  0.6431  0.1914
15944TIP3   OH269322   3.347   5.893  15.366 -0.1114 -0.0381  0.2061
15944TIP3    H169323   3.345   5.905  15.271  1.3275 -1.3711 -0.0357
15944TIP3    H269324   3.255   5.901  15.393 -0.3340  2.4175 -0.9649
15945TIP3   OH269325   5.767   0.756   5.464 -0.0344  0.0611  0.4036
15945TIP3    H169326   5.846   0.811   5.466  0.7882 -1.0391 -0.3779
15945TIP3    H269327   5.772   0.704   5.544  0.7321 -0.9045 -0.2459
15946TIP3   OH269328   1.821   2.238   3.694  0.0625 -0.1951  0.1553
15946TIP3    H169329   1.794   2.248   3.786  3.1242  1.1423  1.0354
15946TIP3    H269330   1.868   2.154   3.692 -1.3048 -0.9708 -0.5994
15947TIP3   OH269331   0.283   0.843   4.370  0.1612  0.0262  0.2009
15947TIP3    H169332   0.268   0.793   4.451  0.5715 -0.0028  0.2602
15947TIP3    H269333   0.196   0.870   4.343  0.0641  0.5215  0.9661
15948TIP3   OH269334   6.680   4.864   1.923  0.0356  0.0766 -0.4966
15948TIP3    H169335   6.666   4.902   1.837 -2.2282  3.4509  1.1238
15948TIP3    H269336   6.746   4.919   1.964 -1.6294  0.9737  1.1455
15949TIP3   OH269337   0.740   1.896  14.479  0.1427 -0.1978 -0.2873
15949TIP3    H169338   0.823   1.938  14.502 -0.4131  1.6537 -1.5124
15949TIP3    H269339   0.681   1.968  14.457 -2.1001 -1.4021  1.3815
15950TIP3   OH269340   5.678   4.315   4.388  0.4776 -0.2417  0.4946
15950TIP3    H169341   5.733   4.392   4.377 -0.5245  0.8572  2.5410
15950TIP3    H269342   5.633   4.305   4.304  1.9266  0.3150 -0.3708
15951TIP3   OH269343   4.273   1.925   2.997  0.2521  0.7477 -0.1226
15951TIP3    H169344   4.188   1.895   3.028  0.6885 -0.3547  0.0725
15951TIP3    H269345   4.253   1.978   2.920 -0.5345 -1.2604 -1.3960
15952TIP3   OH269346   1.293   2.992  11.508 -0.0389  0.1199 -0.0919
15952TIP3    H169347   1.225   3.011  11.444 -0.9511 -0.0065  0.8191
15952TIP3    H269348   1.274   2.902  11.537  1.7436 -0.7176 -1.3087
15953TIP3   OH269349   3.779   4.721  14.679  0.8933 -0.0534  0.0880
15953TIP3    H169350   3.705   4.668  14.648 -0.6016  1.9724  0.0139
15953TIP3    H269351   3.797   4.781  14.607  0.2014  1.8791  1.4527
15954TIP3   OH269352   2.403   5.311   1.205 -0.2201  0.1350  0.0079
15954TIP3    H169353   2.403   5.279   1.114  1.0466 -1.0747  0.3943
15954TIP3    H269354   2.480   5.270   1.244 -1.2330 -0.0593  1.8853
15955TIP3   OH269355   6.063   3.860  14.397  0.4337  0.3299  0.3988
15955TIP3    H169356   5.973   3.829  14.391  0.4587 -0.1898  2.2581
15955TIP3    H269357   6.115   3.790  14.356  0.3432 -1.5692  3.2266
15956TIP3   OH269358   3.791   5.169   7.005 -0.2339  0.8616  0.6589
15956TIP3    H169359   3.754   5.205   6.924 -1.5675  1.7732  1.6471
15956TIP3    H269360   3.768   5.232   7.073  1.5139  0.4945  1.6619
15957TIP3   OH269361   3.019   3.802  14.014  0.1490  0.5557 -0.3284
15957TIP3    H169362   2.928   3.827  14.029  0.0399  1.1545 -1.7767
15957TIP3    H269363   3.021   3.770  13.924  1.5891  1.8233 -0.8049
15958TIP3   OH269364   3.675   4.525  11.749 -0.0504 -0.5447 -0.2414
15958TIP3    H169365   3.683   4.477  11.666 -0.4812  1.4919 -1.5157
15958TIP3    H269366   3.658   4.457  11.814 -2.7616 -1.9730 -2.2567
15959TIP3   OH269367   1.086   6.761   0.322  0.2658 -0.0509 -0.5370
15959TIP3    H169368   1.006   6.768   0.270  0.3768 -1.4275 -0.9263
15959TIP3    H269369   1.155   6.794   0.263  0.3822 -1.5496 -1.2760
15960TIP3   OH269370   4.409   3.318  13.183  0.6215 -0.2949 -0.2756
15960TIP3    H169371   4.330   3.365  13.158 -0.0350 -2.0926 -1.9037
15960TIP3    H269372   4.459   3.310  13.101  0.6198 -2.4680 -0.1266
15961TIP3   OH269373   3.746   5.729   6.003  0.1364  0.4530  0.1143
15961TIP3    H169374   3.683   5.673   6.049 -0.6785  0.4722 -0.9356
15961TIP3    H269375   3.770   5.797   6.067  0.7732 -0.7893  1.2433
15962TIP3   OH269376   4.353   0.970  17.038 -0.1502  0.6550 -0.2022
15962TIP3    H169377   4.428   0.910  17.040 -0.8951 -0.2849  0.6643
15962TIP3    H269378   4.353   1.010  17.125 -0.3813  1.0207 -0.3689
15963TIP3   OH269379   4.192   3.463  16.687  0.3217 -0.5477 -0.3349
15963TIP3    H169380   4.171   3.399  16.618  0.0163  0.7318 -1.4711
15963TIP3    H269381   4.108   3.504  16.706  0.9625  1.6342 -1.8454
15964TIP3   OH269382   2.140   4.745   2.551  0.3194  0.6173  0.0213
15964TIP3    H169383   2.171   4.660   2.521  1.3596  0.7825  0.5772
15964TIP3    H269384   2.194   4.765   2.628  0.1409  1.8079 -0.1404
15965TIP3   OH269385   3.989   2.017   2.222 -0.2334 -0.2859 -0.5161
15965TIP3    H169386   4.077   2.038   2.191  0.7067 -1.0599  1.4792
15965TIP3    H269387   3.989   1.922   2.235 -1.3841 -0.3088 -0.5408
15966TIP3   OH269388   5.061   5.384  12.413  0.2036 -0.2135 -0.2183
15966TIP3    H169389   5.130   5.407  12.350 -0.3874  2.1150 -0.0996
15966TIP3    H269390   4.993   5.343  12.359  0.5694 -0.1240 -0.7560
15967TIP3   OH269391   2.053   0.115  12.965  0.3227  0.1024 -0.6918
15967TIP3    H169392   1.999   0.048  12.922 -0.9211  1.2585 -1.0020
15967TIP3    H269393   2.087   0.168  12.894  3.7487 -1.8207 -0.7066
15968TIP3   OH269394   0.115   5.435  13.179 -0.2327 -0.2599  0.0385
15968TIP3    H169395   0.207   5.463  13.174 -0.6025  1.3333  1.1984
15968TIP3    H269396   0.082   5.445  13.089  0.0748  1.7092  0.0972
15969TIP3   OH269397   4.791   0.716  13.259  0.5249  0.1465 -0.1285
15969TIP3    H169398   4.883   0.692  13.270  0.5084 -0.5768 -1.3207
15969TIP3    H269399   4.772   0.694  13.167 -1.1302 -0.7429  0.3934
15970TIP3   OH269400   6.275   2.523   0.366  0.1635  0.0942 -0.2138
15970TIP3    H169401   6.260   2.542   0.274  0.2905 -4.0288 -1.2992
15970TIP3    H269402   6.334   2.593   0.396 -0.0899  1.7096 -3.1500
15971TIP3   OH269403   5.869   2.726   4.497 -0.1430  0.4802  0.7813
15971TIP3    H169404   5.838   2.698   4.583  0.6473 -2.5299  0.2205
15971TIP3    H269405   5.803   2.693   4.435  0.3203  0.7851  0.1073
15972TIP3   OH269406   1.874   4.724   1.952  1.0705 -0.2861  0.1915
15972TIP3    H169407   1.916   4.724   2.038  1.2650  0.1067  0.0988
15972TIP3    H269408   1.790   4.769   1.967  1.0860 -0.2548  0.1844
15973TIP3   OH269409   2.797   4.266  16.099 -0.8245  0.1238 -0.1377
15973TIP3    H169410   2.841   4.310  16.026 -2.2651 -1.1046 -1.8100
15973TIP3    H269411   2.827   4.314  16.176  2.0138  0.4824 -1.3151
15974TIP3   OH269412   1.800   3.740  16.215 -0.0571 -0.0310 -0.0759
15974TIP3    H169413   1.894   3.730  16.226 -0.1037  1.5903  2.9331
15974TIP3    H269414   1.762   3.663  16.258 -0.0976  0.4774  0.8238
15975TIP3   OH269415   5.755   2.133  16.902 -0.3336  0.3566 -0.2666
15975TIP3    H169416   5.703   2.074  16.848  0.3885 -1.6189  1.0812
15975TIP3    H269417   5.796   2.193  16.840  0.6526 -1.9441 -2.0074
15976TIP3   OH269418   1.877   1.568  14.539 -0.0338 -0.5249 -0.0097
15976TIP3    H169419   1.955   1.551  14.486 -1.7065 -0.8324 -2.5467
15976TIP3    H269420   1.865   1.663  14.536 -0.3634 -0.5784 -0.6041
15977TIP3   OH269421   5.504   4.408   4.147 -0.0496 -0.7174 -0.1512
15977TIP3    H169422   5.423   4.366   4.177 -0.5499 -1.2260 -2.0501
15977TIP3    H269423   5.478   4.498   4.124  0.0633 -0.6794 -0.1321
15978TIP3   OH269424   5.259   1.247   3.113  0.3128  0.1850 -0.1766
15978TIP3    H169425   5.188   1.307   3.137  1.8492  2.0076  0.0135
15978TIP3    H269426   5.269   1.191   3.190 -0.1530  0.6687  0.2504
15979TIP3   OH269427   0.379   6.736  15.242  0.5334 -0.6379 -0.0084
15979TIP3    H169428   0.349   6.771  15.325  0.0010 -0.4651 -0.2722
15979TIP3    H269429   0.456   6.789  15.220  0.3754 -0.3518  0.1260
15980TIP3   OH269430   5.113   3.351  13.303  0.9622 -0.6093 -0.3000
15980TIP3    H169431   5.163   3.270  13.301 -1.5029 -2.2130 -2.0146
15980TIP3    H269432   5.060   3.345  13.383  0.4913 -0.8611 -0.6338
15981TIP3   OH269433   3.565   3.718   5.798 -1.1745 -0.4765 -0.6747
15981TIP3    H169434   3.511   3.640   5.784  0.1393 -1.3167 -1.2705
15981TIP3    H269435   3.602   3.737   5.712 -0.0933 -0.2388 -0.1663
15982TIP3   OH269436   5.059   1.015   1.060  0.2648  0.4318 -0.1117
15982TIP3    H169437   5.050   1.107   1.085 -1.2377 -0.1639  1.7455
15982TIP3    H269438   4.969   0.982   1.054  0.7874 -1.4719  1.5411
15983TIP3   OH269439   1.963   6.761   3.183 -0.4402  0.4815  0.1250
15983TIP3    H169440   1.944   6.850   3.213  1.6982  0.6457  1.2417
15983TIP3    H269441   1.960   6.766   3.088  0.6404  2.0425  0.1325
15984TIP3   OH269442   2.484   2.726   3.911 -0.7665  0.2990 -0.0053
15984TIP3    H169443   2.481   2.722   4.006 -0.6977  1.0701  0.0352
15984TIP3    H269444   2.571   2.760   3.890 -0.2343 -1.2266 -0.4072
15985TIP3   OH269445   2.661   1.853   4.837 -0.0045 -0.2603  0.3615
15985TIP3    H169446   2.669   1.867   4.931 -2.0957 -0.5342  0.6445
15985TIP3    H269447   2.718   1.778   4.818  0.7382  0.0540  1.3221
15986TIP3   OH269448   3.534   2.399   1.873  0.1980 -0.2385 -0.7103
15986TIP3    H169449   3.536   2.482   1.921  0.5764 -1.4716  1.5862
15986TIP3    H269450   3.617   2.357   1.894 -0.4314 -1.6502 -0.8827
15987TIP3   OH269451   2.591   5.696  17.109 -0.2775  0.1186 -0.4759
15987TIP3    H169452   2.628   5.667  17.192  1.1659  3.7314  0.3666
15987TIP3    H269453   2.649   5.660  17.042 -0.8658 -1.9905  0.0856
15988TIP3   OH269454   2.344   0.082  14.920  0.4387  0.1242 -0.4872
15988TIP3    H169455   2.324   0.049  14.833  0.3168 -0.2689 -0.3130
15988TIP3    H269456   2.260   0.114  14.954  0.2743 -0.6795 -0.1134
15989TIP3   OH269457   6.833   0.669  12.627 -0.2698  0.4917  0.0795
15989TIP3    H169458   6.753   0.687  12.577 -0.8491  0.1191  0.8584
15989TIP3    H269459   6.900   0.724  12.586 -1.1631  1.6157  0.0877
15990TIP3   OH269460   6.386   0.211   2.471  0.2333 -0.0823 -0.2388
15990TIP3    H169461   6.453   0.212   2.540  0.3850  1.5748 -0.3769
15990TIP3    H269462   6.422   0.266   2.402 -1.4476  1.2361 -0.1190
15991TIP3   OH269463   1.151   0.917   1.063 -0.1750 -0.5789 -0.0466
15991TIP3    H169464   1.063   0.947   1.087  0.2494  0.4912  0.2135
15991TIP3    H269465   1.208   0.952   1.132  0.5779 -0.5144 -0.6945
15992TIP3   OH269466   2.820   4.725   3.896 -0.1080 -0.9067  0.3605
15992TIP3    H169467   2.758   4.715   3.967 -1.0988  1.3693 -0.0936
15992TIP3    H269468   2.788   4.800   3.846  1.2357 -1.6549 -1.7749
15993TIP3   OH269469   0.522   4.176  15.109  0.0302  0.3551  0.6397
15993TIP3    H169470   0.504   4.099  15.055 -2.9333  0.8843  0.6708
15993TIP3    H269471   0.593   4.221  15.064 -1.1296 -0.1506 -1.8712
15994TIP3   OH269472   4.373   4.210   1.703 -0.5291 -0.1047 -0.2230
15994TIP3    H169473   4.329   4.295   1.711  0.8314  0.5664  0.6886
15994TIP3    H269474   4.452   4.229   1.652 -0.2711 -0.8449 -0.1103
15995TIP3   OH269475   5.837   4.371  15.879 -0.4133 -0.3021  0.1818
15995TIP3    H169476   5.805   4.312  15.948  0.5980 -2.2445 -0.9268
15995TIP3    H269477   5.770   4.366  15.810  0.8240 -2.2238 -0.9767
15996TIP3   OH269478   2.661   1.672   1.748 -0.3850  0.2554 -0.4523
15996TIP3    H169479   2.664   1.593   1.801  2.4762  0.0884 -0.7031
15996TIP3    H269480   2.615   1.646   1.668 -1.5695 -0.4589  0.4367
15997TIP3   OH269481   2.802   3.875   2.988  0.6878 -0.0661 -0.2111
15997TIP3    H169482   2.707   3.885   2.999  0.8066 -0.9799  2.3144
15997TIP3    H269483   2.834   3.963   2.968 -0.6073  0.3928 -0.3448
15998TIP3   OH269484   3.144   6.770   4.237 -0.2216 -0.1438 -0.0184
15998TIP3    H169485   3.107   6.743   4.321  0.1343 -0.2526  0.1042
15998TIP3    H269486   3.189   6.692   4.204 -0.5070 -0.1525 -0.3897
15999TIP3   OH269487   0.398   3.347   4.010 -0.1142  0.2718  0.5600
15999TIP3    H169488   0.331   3.279   4.007  0.2022 -0.0187 -0.3753
15999TIP3    H269489   0.474   3.305   4.051 -0.1859  0.3010  0.7205
16000TIP3   OH269490   5.223   3.350  15.424 -0.4401  0.4468 -0.3803
16000TIP3    H169491   5.309   3.385  15.447 -1.3726  3.8006 -1.4440
16000TIP3    H269492   5.231   3.255  15.438  1.8725  1.0264  4.4631
16001TIP3   OH269493   4.042   0.566   2.574 -0.5562 -0.1422 -0.1015
16001TIP3    H169494   4.097   0.516   2.513  1.7675  1.1408  0.8149
16001TIP3    H269495   4.023   0.648   2.528 -1.1641 -0.3104 -0.1555
16002TIP3   OH269496   3.780   3.393  14.905  0.1034 -0.1862  0.0370
16002TIP3    H169497   3.836   3.454  14.953  0.4529 -0.5922  0.1469
16002TIP3    H269498   3.729   3.449  14.846 -0.1049  0.2866  0.6518
16003TIP3   OH269499   6.619   2.626   4.030  0.3000  0.2792  0.0061
16003TIP3    H169500   6.614   2.610   3.935  1.0671 -2.0437  0.2880
16003TIP3    H269501   6.532   2.601   4.063  0.1214  0.8275 -0.0397
16004TIP3   OH269502   4.935   4.047  13.480  0.3825  0.4467 -0.3837
16004TIP3    H169503   4.955   4.057  13.573  1.1857  1.2410 -0.6421
16004TIP3    H269504   4.938   3.952  13.466  0.5754  0.3407  0.3199
16005TIP3   OH269505   2.115   0.382   5.305  0.2041 -0.4694  0.1610
16005TIP3    H169506   2.137   0.472   5.329  1.4750 -0.3721 -1.2590
16005TIP3    H269507   2.030   0.390   5.261  0.0475 -0.0496  0.5211
16006TIP3   OH269508   2.099   2.728   3.852  0.1358  0.3198 -0.1568
16006TIP3    H169509   2.158   2.656   3.830  0.5097  0.9248 -1.2201
16006TIP3    H269510   2.033   2.727   3.783  0.6052  1.4863 -0.6465
16007TIP3   OH269511   2.332   3.000   0.686  0.1081 -0.1247 -0.4030
16007TIP3    H169512   2.407   2.942   0.674  0.0201 -1.1097  2.9205
16007TIP3    H269513   2.316   2.999   0.780 -2.8041  1.7095 -0.7721
16008TIP3   OH269514   0.831   3.373  11.490  0.8113 -0.6323  0.4719
16008TIP3    H169515   0.885   3.451  11.506  0.0804  0.5388 -2.2239
16008TIP3    H269516   0.875   3.327  11.419 -0.2957 -1.1392  0.0974
16009TIP3   OH269517   3.512   5.576   5.818  0.6033 -0.0284 -0.3763
16009TIP3    H169518   3.506   5.662   5.778 -0.8251 -1.1265 -2.7681
16009TIP3    H269519   3.572   5.587   5.892 -0.4068  3.2184  0.0946
16010TIP3   OH269520   1.827   1.210  16.885 -0.5829 -0.1980 -0.6539
16010TIP3    H169521   1.878   1.139  16.923  0.2728  1.4012  1.3271
16010TIP3    H269522   1.837   1.283  16.946 -2.2635  1.3306 -2.0847
16011TIP3   OH269523   6.659   4.374  15.620  0.2888 -0.4567 -0.5160
16011TIP3    H169524   6.568   4.345  15.621 -0.0625  0.5987 -0.3791
16011TIP3    H269525   6.701   4.325  15.691 -0.1478 -1.0054 -0.6291
16012TIP3   OH269526   3.702   6.000   0.775  0.1434  0.6650  0.2232
16012TIP3    H169527   3.746   5.947   0.841  1.0482  0.5544 -0.4464
16012TIP3    H269528   3.735   6.089   0.789  0.1325  0.6907  0.0868
16013TIP3   OH269529   0.681   6.207  10.455  0.4414  0.3424 -0.7074
16013TIP3    H169530   0.629   6.189  10.534 -0.2828 -0.6765 -1.3932
16013TIP3    H269531   0.765   6.239  10.488 -0.1769  0.8384  0.4523
16014TIP3   OH269532   2.325   4.940  11.958  0.1614 -0.1329 -0.1740
16014TIP3    H169533   2.361   4.879  12.022  0.6267  0.7472  0.4161
16014TIP3    H269534   2.338   5.026  11.996 -2.6073  0.2547  0.1023
16015TIP3   OH269535   6.433   6.360  13.577  0.0862  0.6399  0.2570
16015TIP3    H169536   6.460   6.429  13.517  0.1567  1.5497  1.3005
16015TIP3    H269537   6.488   6.372  13.654 -0.7630  0.2094  0.9538
16016TIP3   OH269538   1.827   2.288  14.181  0.0524  0.1963  0.3521
16016TIP3    H169539   1.827   2.338  14.099  0.7717  0.0358  0.2437
16016TIP3    H269540   1.887   2.215  14.164  0.1386  0.1139  0.9929
16017TIP3   OH269541   4.293   3.141   3.358 -0.5327 -0.1034  0.3964
16017TIP3    H169542   4.314   3.076   3.425 -0.7492 -0.0815  0.4857
16017TIP3    H269543   4.223   3.194   3.396 -0.3008  0.2332  0.3550
16018TIP3   OH269544   0.419   1.579   6.481 -0.3955 -0.1202  0.2559
16018TIP3    H169545   0.341   1.566   6.535  0.3781 -0.2690  1.3511
16018TIP3    H269546   0.491   1.587   6.543  0.6902 -1.4970 -0.7596
16019TIP3   OH269547   3.526   6.276  10.806  0.0182 -0.3993  0.7318
16019TIP3    H169548   3.594   6.246  10.746 -0.5387 -0.5932  0.1866
16019TIP3    H269549   3.515   6.369  10.786  0.5944 -0.2118  1.2855
16020TIP3   OH269550   6.576   3.469   0.996  0.5133  0.7944  0.0455
16020TIP3    H169551   6.514   3.505   0.933  0.9186  1.5907  0.0951
16020TIP3    H269552   6.544   3.498   1.081 -1.5628 -2.4511  0.5410
16021TIP3   OH269553   5.532   6.790  14.829 -0.4891  0.4045  0.3460
16021TIP3    H169554   5.621   6.822  14.814  0.5731 -2.2855  0.4363
16021TIP3    H269555   5.540   6.695  14.832 -3.5990 -0.0373 -1.0312
16022TIP3   OH269556   3.232   1.393  12.126 -0.0623 -0.2712  0.2880
16022TIP3    H169557   3.279   1.367  12.046 -0.2097  0.0060  0.1074
16022TIP3    H269558   3.267   1.337  12.194  0.4705 -0.1285  0.1370
16023TIP3   OH269559   4.197   1.045  10.386 -0.1268  0.1649  0.1888
16023TIP3    H169560   4.178   1.107  10.316 -0.3115 -0.1011  0.0030
16023TIP3    H269561   4.111   1.016  10.418 -0.0575 -1.0776 -0.6901
16024TIP3   OH269562   0.503   1.412  16.310  0.8072 -0.4250  0.3867
16024TIP3    H169563   0.532   1.490  16.262 -2.6591  1.0329  0.3238
16024TIP3    H269564   0.508   1.438  16.402  0.1901 -0.2666  0.3873
16025TIP3   OH269565   5.509   6.622   5.297  0.0212  0.2484  0.4612
16025TIP3    H169566   5.580   6.572   5.338 -1.4420 -0.2346  2.5216
16025TIP3    H269567   5.550   6.706   5.274  1.5677 -0.4829  0.4146
16026TIP3   OH269568   4.327   0.450   6.174 -0.4045  0.1971 -0.1931
16026TIP3    H169569   4.382   0.503   6.232 -0.1272 -1.2231  0.8742
16026TIP3    H269570   4.267   0.513   6.134 -0.0193  1.3292  0.9589
16027TIP3   OH269571   2.511   4.093  12.007 -0.7842  0.3201  0.8467
16027TIP3    H169572   2.576   4.039  11.963 -1.9086 -0.9871  0.7160
16027TIP3    H269573   2.452   4.123  11.937 -2.3930 -1.5065  1.3284
16028TIP3   OH269574   3.361   2.065  15.434  0.0309  0.6232 -0.1807
16028TIP3    H169575   3.447   2.082  15.473  0.3039  0.2496 -0.6081
16028TIP3    H269576   3.303   2.051  15.509  0.6023 -0.3404  0.1002
16029TIP3   OH269577   4.257   3.457  15.106  0.2151 -0.1076  0.2649
16029TIP3    H169578   4.295   3.501  15.182 -0.3829 -0.4734  0.7912
16029TIP3    H269579   4.231   3.371  15.139 -2.1560  0.5353  0.2576
16030TIP3   OH269580   6.353   0.161   4.459  0.5165  0.3014 -0.3848
16030TIP3    H169581   6.430   0.208   4.428  0.6518  0.3422  0.0116
16030TIP3    H269582   6.386   0.098   4.522  0.3394 -0.3698 -0.9481
16031TIP3   OH269583   6.510   4.943   4.127 -0.7576  0.3162 -0.1150
16031TIP3    H169584   6.580   4.992   4.083  0.1777 -0.5902  0.3178
16031TIP3    H269585   6.441   4.936   4.062  0.1290  0.0238 -1.0575
16032TIP3   OH269586   5.199   4.658  14.777 -0.2475 -0.1140 -0.0791
16032TIP3    H169587   5.266   4.623  14.837 -0.2985  1.5799  1.0221
16032TIP3    H269588   5.163   4.580  14.735  1.5509 -1.1799  0.2040
16033TIP3   OH269589   0.868   6.813  11.234 -0.6042  0.2935  0.0292
16033TIP3    H169590   0.820   6.774  11.161  0.5393  1.5554 -1.4490
16033TIP3    H269591   0.914   6.887  11.196  0.8277  0.4042  1.8466
16034TIP3   OH269592   5.138   0.260  13.580 -0.5510 -0.2056 -0.3718
16034TIP3    H169593   5.171   0.277  13.492 -0.5192 -1.2934 -0.5897
16034TIP3    H269594   5.043   0.274  13.573 -0.5952 -0.6383 -0.6724
16035TIP3   OH269595   2.142   5.778   3.929 -0.1390  0.1269  0.3744
16035TIP3    H169596   2.112   5.719   3.859  1.1750  1.7634 -1.7002
16035TIP3    H269597   2.062   5.820   3.960 -0.6970 -0.1677 -0.6115
16036TIP3   OH269598   3.875   4.300   5.901 -0.0821  0.2466  0.3828
16036TIP3    H169599   3.936   4.285   5.829 -0.5782 -0.0150  0.0074
16036TIP3    H269600   3.930   4.311   5.978  0.4853  1.2673 -0.1528
16037TIP3   OH269601   0.999   3.020  11.357 -0.2964 -0.5645  0.4771
16037TIP3    H169602   0.968   2.935  11.326 -1.9783 -0.7908  2.5237
16037TIP3    H269603   0.962   3.029  11.445  1.2304  1.5614  1.0083
16038TIP3   OH269604   2.642   1.986  11.730  0.0010 -0.0354  0.4078
16038TIP3    H169605   2.638   1.923  11.801  0.1539 -0.5559 -0.0355
16038TIP3    H269606   2.654   2.071  11.773 -0.0204 -0.3304  1.0009
16039TIP3   OH269607   1.855   0.140  15.666  0.3019  0.1199  0.1317
16039TIP3    H169608   1.912   0.105  15.735 -0.7920  1.7822  1.9785
16039TIP3    H269609   1.768   0.140  15.704 -0.4058  0.7705 -1.4027
16040TIP3   OH269610   1.261   4.660   4.167 -0.4922  1.1927  0.3596
16040TIP3    H169611   1.350   4.667   4.203 -0.3949  0.2814  0.3199
16040TIP3    H269612   1.255   4.731   4.103  0.0291  1.5754  0.7279
16041TIP3   OH269613   3.315   2.039   1.882  0.0809  0.3589 -0.2199
16041TIP3    H169614   3.398   2.037   1.834  0.5034 -1.6981  0.4663
16041TIP3    H269615   3.334   2.088   1.962  0.3950  0.6265 -0.4579
16042TIP3   OH269616   2.663   2.537   1.958 -0.1840 -0.2140  0.3272
16042TIP3    H169617   2.705   2.464   2.003 -0.1273  0.1939  0.9458
16042TIP3    H269618   2.711   2.545   1.876 -1.0894 -1.7804 -0.4085
16043TIP3   OH269619   6.707   6.352   0.710 -0.6260  0.4802 -0.2171
16043TIP3    H169620   6.673   6.281   0.765 -0.2373  1.2872  1.1135
16043TIP3    H269621   6.661   6.430   0.742  0.2664  1.1001 -0.4330
16044TIP3   OH269622   6.383   3.441   6.008  0.3586  0.2088 -0.3003
16044TIP3    H169623   6.437   3.446   6.087  1.2303  2.4123 -0.9382
16044TIP3    H269624   6.294   3.460   6.038  0.8136  1.8736  0.0890
16045TIP3   OH269625   1.857   5.359   0.961  0.4956 -0.0527  0.4380
16045TIP3    H169626   1.872   5.359   1.055 -1.7618  1.1489  0.8845
16045TIP3    H269627   1.844   5.451   0.938  0.7102 -0.3460 -0.9941
16046TIP3   OH269628   3.601   0.107   4.551 -0.1624  0.5303 -0.0200
16046TIP3    H169629   3.542   0.182   4.548  1.2856  1.7779 -3.3391
16046TIP3    H269630   3.687   0.145   4.568  0.5595 -0.3488 -1.5038
16047TIP3   OH269631   5.810   3.888   1.611  0.0933 -0.3213 -0.3855
16047TIP3    H169632   5.781   3.921   1.696 -1.1517 -2.4021  0.0725
16047TIP3    H269633   5.753   3.932   1.548 -1.0099 -0.9334  0.1435
16048TIP3   OH269634   0.701   1.233  15.274  0.8705  0.5547 -0.5707
16048TIP3    H169635   0.689   1.155  15.220  1.1259  1.3092 -1.7585
16048TIP3    H269636   0.613   1.254  15.305  0.9686 -0.9102  0.8302
16049TIP3   OH269637   6.532   2.006   1.682 -0.0911  0.0255  0.4935
16049TIP3    H169638   6.598   2.038   1.620 -0.5422  1.0809  0.5244
16049TIP3    H269639   6.537   2.068   1.756 -3.2519  2.1669 -0.8610
16050TIP3   OH269640   1.966   0.258  16.059  0.5104  0.2566 -0.3402
16050TIP3    H169641   2.039   0.307  16.095  0.5276  0.6973 -0.9529
16050TIP3    H269642   1.913   0.233  16.135  1.4916 -0.4066  0.1481
16051TIP3   OH269643   3.579   2.209  15.842 -0.2475  0.5706  0.0320
16051TIP3    H169644   3.492   2.242  15.863  1.3074  3.5646  2.5827
16051TIP3    H269645   3.574   2.186  15.749 -2.9492  3.4695 -0.7326
16052TIP3   OH269646   0.627   0.426  10.350  0.2200 -0.3154  0.3403
16052TIP3    H169647   0.613   0.347  10.297  0.5914 -1.0146  1.2532
16052TIP3    H269648   0.552   0.428  10.409  1.0125 -0.9102  1.4105
16053TIP3   OH269649   2.462   0.009  13.305  0.1859 -0.2586  0.5435
16053TIP3    H169650   2.408  -0.018  13.230  0.5440  0.3649  0.0541
16053TIP3    H269651   2.405  -0.006  13.381  0.0194 -1.4330  0.2131
16054TIP3   OH269652   4.966   6.078   3.834  0.4271  0.1335  0.1179
16054TIP3    H169653   4.957   6.128   3.752  2.1434  0.3607  0.0374
16054TIP3    H269654   4.903   6.006   3.825 -0.9138  1.3312 -0.4738
16055TIP3   OH269655   1.556   0.548  11.780  0.5004  0.3460  0.8748
16055TIP3    H169656   1.574   0.583  11.693  1.0252  2.5220  1.7979
16055TIP3    H269657   1.460   0.543  11.785  0.4713 -0.2218  0.0603
16056TIP3   OH269658   4.239   1.435   2.827 -0.0578 -0.4270  0.1942
16056TIP3    H169659   4.279   1.521   2.833 -1.0740  0.0594  0.1559
16056TIP3    H269660   4.267   1.402   2.742  1.7546 -0.8885  0.9224
16057TIP3   OH269661   3.365   2.250   0.665  0.2105  0.3362 -0.0270
16057TIP3    H169662   3.279   2.284   0.691 -0.4610 -0.4016 -1.2058
16057TIP3    H269663   3.427   2.295   0.723 -1.0500  0.0041  1.6559
16058TIP3   OH269664   2.256   5.996   4.799  0.1289  0.4026 -0.2535
16058TIP3    H169665   2.217   6.063   4.855 -0.8260 -1.4102  1.3389
16058TIP3    H269666   2.183   5.957   4.753  0.3361 -1.1723  0.6915
16059TIP3   OH269667   3.802   3.505   6.603  0.2385  0.3522 -0.2038
16059TIP3    H169668   3.791   3.575   6.668 -0.2123 -0.2982  0.4307
16059TIP3    H269669   3.879   3.457   6.632  0.6188  0.6511 -0.7083
16060TIP3   OH269670   2.341   5.431  14.786  0.1728  0.0243 -0.0605
16060TIP3    H169671   2.410   5.378  14.747  0.4668 -0.2189  0.7683
16060TIP3    H269672   2.265   5.418  14.729  1.2366  1.6760 -2.0222
16061TIP3   OH269673   6.768   3.038   0.052 -0.9248  0.0632 -1.0804
16061TIP3    H169674   6.682   3.014   0.019 -1.4253 -0.9397  0.7947
16061TIP3    H269675   6.756   3.047   0.147  1.0156 -0.1523 -0.7642
16062TIP3   OH269676   6.461   6.004   0.581  0.3767 -0.2991 -0.0262
16062TIP3    H169677   6.455   5.909   0.586  0.2759 -0.2678  0.4991
16062TIP3    H269678   6.539   6.026   0.632  0.2483 -0.0784  0.0771
16063TIP3   OH269679   3.403   6.749  15.359 -0.4672 -0.4282  0.3340
16063TIP3    H169680   3.331   6.753  15.422 -0.3142 -0.6812  0.5230
16063TIP3    H269681   3.385   6.670  15.308 -1.0179  0.1845 -0.4570
16064TIP3   OH269682   6.759   5.196  12.752  0.1382  0.2833 -0.5216
16064TIP3    H169683   6.771   5.161  12.840  0.6433  0.0484 -0.6819
16064TIP3    H269684   6.694   5.137  12.712  1.4476 -0.9046 -1.0056
16065TIP3   OH269685   0.815   1.136   0.868  0.4212  0.3681  0.3092
16065TIP3    H169686   0.877   1.196   0.827 -1.1678  1.3612 -0.7921
16065TIP3    H269687   0.758   1.192   0.920 -1.8440  0.1003 -1.6777
16066TIP3   OH269688   4.293   4.892   5.634 -0.3603 -0.2329  0.9168
16066TIP3    H169689   4.245   4.850   5.705 -0.0283  0.2468  1.4306
16066TIP3    H269690   4.383   4.897   5.666 -0.1984 -0.0538  0.4413
16067TIP3   OH269691   6.831   5.579   1.802 -0.3696  0.2707 -0.0730
16067TIP3    H169692   6.858   5.619   1.720 -1.4369  1.6024  0.1775
16067TIP3    H269693   6.765   5.514   1.777 -0.1930  0.1791 -0.3067
16068TIP3   OH269694   5.730   5.606   4.896 -0.1174 -0.2647  0.1601
16068TIP3    H169695   5.797   5.643   4.954 -0.5110  2.2122 -0.8317
16068TIP3    H269696   5.648   5.620   4.942 -0.2767  0.2162 -0.2542
16069TIP3   OH269697   2.085   3.148  11.651 -0.2084  0.0732 -0.0584
16069TIP3    H169698   2.001   3.192  11.664  0.1943  1.1216 -0.8658
16069TIP3    H269699   2.093   3.089  11.726 -0.2886  2.1440  1.6835
16070TIP3   OH269700   0.863   1.827   0.305  0.5203  0.6336 -1.1133
16070TIP3    H169701   0.864   1.742   0.262  1.6191 -0.0015  0.1058
16070TIP3    H269702   0.895   1.888   0.238  1.9607 -0.2901 -1.2992
16071TIP3   OH269703   2.110   3.652  15.196 -0.1620 -0.0595  0.0191
16071TIP3    H169704   2.016   3.636  15.209  0.0505  0.2988  2.4727
16071TIP3    H269705   2.125   3.631  15.103 -2.1413 -2.6892  0.1624
16072TIP3   OH269706   6.148   6.162  14.229  0.9665  0.0345 -0.5066
16072TIP3    H169707   6.145   6.205  14.315  0.5686  0.4657 -0.7321
16072TIP3    H269708   6.239   6.171  14.202  0.9670  0.4220 -0.3900
16073TIP3   OH269709   5.109   1.478  11.506  0.4401  0.0851 -0.3270
16073TIP3    H169710   5.013   1.482  11.510  0.3990 -0.3079 -0.7495
16073TIP3    H269711   5.133   1.420  11.578  0.3446  0.0396 -0.3309
16074TIP3   OH269712   1.827   1.688   1.975 -0.1322 -0.0255  0.2205
16074TIP3    H169713   1.850   1.699   2.067 -1.1730 -1.8796  0.7618
16074TIP3    H269714   1.813   1.593   1.965  0.4835  0.0512 -1.9796
16075TIP3   OH269715   5.307   5.279  12.908 -0.3650  0.0904 -1.1976
16075TIP3    H169716   5.342   5.364  12.884 -3.5265  2.7146  2.3408
16075TIP3    H269717   5.237   5.262  12.844 -1.6983  1.7447 -0.2505
16076TIP3   OH269718   0.843   3.726   3.922  0.0749 -0.2134 -0.2283
16076TIP3    H169719   0.884   3.658   3.867 -0.7850 -0.5249 -0.5009
16076TIP3    H269720   0.757   3.691   3.942 -0.7017  1.1532 -1.0364
16077TIP3   OH269721   6.007   0.135   0.390  0.1004 -0.3527  0.0742
16077TIP3    H169722   6.052   0.068   0.338  0.2659 -0.8991  0.8878
16077TIP3    H269723   5.931   0.090   0.427  0.0801 -0.0346  0.4340
16078TIP3   OH269724   0.085   1.865  15.975  0.2617  0.0606 -0.6112
16078TIP3    H169725   0.149   1.811  16.020  0.3449 -0.0336 -0.8426
16078TIP3    H269726   0.064   1.817  15.895 -0.3745 -0.0831 -0.3547
16079TIP3   OH269727   4.272   4.197   2.541 -0.5246  0.1429  0.5878
16079TIP3    H169728   4.194   4.241   2.575 -1.7582 -1.3579 -0.1173
16079TIP3    H269729   4.338   4.209   2.609 -0.9982  2.3966  0.7227
16080TIP3   OH269730   4.309   4.278  15.450  0.1715  0.1043  0.0094
16080TIP3    H169731   4.390   4.230  15.432 -0.6711 -1.0133 -0.9637
16080TIP3    H269732   4.251   4.253  15.378 -0.2682  2.7370 -0.6537
16081TIP3   OH269733   3.391   6.349  11.218 -0.1377  0.1202  0.0992
16081TIP3    H169734   3.483   6.336  11.195 -0.4033 -2.2589  0.1765
16081TIP3    H269735   3.343   6.324  11.139 -0.7787 -0.0382  0.5364
16082TIP3   OH269736   2.821   0.701  13.531 -0.1526  0.3978  0.0767
16082TIP3    H169737   2.808   0.654  13.613  2.5846  0.7769  0.8544
16082TIP3    H269738   2.796   0.638  13.463 -1.7463 -0.1907  1.1646
16083TIP3   OH269739   0.594   3.561   3.645 -0.4308 -0.1967 -0.3637
16083TIP3    H169740   0.598   3.559   3.740 -0.3653  0.7503 -0.3342
16083TIP3    H269741   0.644   3.485   3.617  1.1641  0.5364  0.3486
16084TIP3   OH269742   0.869   2.764  17.018 -0.4482  0.4232  0.3663
16084TIP3    H169743   0.829   2.680  17.039  0.6106 -0.1575  0.1420
16084TIP3    H269744   0.836   2.824  17.084 -0.3006 -0.4499  1.2573
16085TIP3   OH269745   0.062   0.510  11.598 -0.4629 -0.3249 -0.3672
16085TIP3    H169746   0.040   0.564  11.674  0.6016 -1.2704  0.6538
16085TIP3    H269747  -0.022   0.480  11.565 -0.9728  0.5524  0.1039
16086TIP3   OH269748   2.791   4.629   5.848 -0.0837 -0.2309  0.2784
16086TIP3    H169749   2.737   4.706   5.865  2.2531  0.9159  3.4225
16086TIP3    H269750   2.838   4.649   5.767 -0.6627  0.9352  0.2202
16087TIP3   OH269751   2.982   5.868  10.816 -0.8363  0.3115 -0.8510
16087TIP3    H169752   3.071   5.835  10.823 -0.7115  0.6784 -0.6867
16087TIP3    H269753   2.960   5.859  10.723 -1.2168 -1.2693 -0.6274
16088TIP3   OH269754   2.256   1.099   0.017 -0.6976 -0.1187 -0.1312
16088TIP3    H169755   2.261   1.159   0.091 -0.6185  0.7209 -0.8025
16088TIP3    H269756   2.337   1.115  -0.032 -0.8067 -0.5791 -0.4619
16089TIP3   OH269757   0.859   0.030  10.866 -0.4422  0.4510  0.0357
16089TIP3    H169758   0.912   0.066  10.794  0.4038 -0.0013  0.4164
16089TIP3    H269759   0.808  -0.040  10.826 -1.4671  1.4868 -0.5339
16090TIP3   OH269760   5.097   0.480  13.274  0.0551  0.2370 -0.2271
16090TIP3    H169761   5.034   0.411  13.254  1.7713 -1.0707 -1.4857
16090TIP3    H269762   5.092   0.540  13.199  2.0752 -1.3108 -1.7318
16091TIP3   OH269763   3.548   3.771   6.207  0.5366 -0.2879  0.4738
16091TIP3    H169764   3.549   3.859   6.245  1.2077  0.2223 -0.6554
16091TIP3    H269765   3.630   3.731   6.237  0.7067 -0.1597  0.1847
16092TIP3   OH269766   6.197   5.885   1.578 -0.1952  0.4617  0.5455
16092TIP3    H169767   6.110   5.865   1.610 -0.1265  0.3792  0.6784
16092TIP3    H269768   6.182   5.927   1.493 -0.2918 -4.0654 -2.0397
16093TIP3   OH269769   1.760   5.603   3.949 -0.2048 -0.0147 -0.2159
16093TIP3    H169770   1.694   5.539   3.976 -0.9466 -0.0049 -1.8801
16093TIP3    H269771   1.790   5.572   3.864  2.2295 -0.2003  0.6114
16094TIP3   OH269772   6.495   2.437   1.296 -0.2918 -1.0577 -0.0017
16094TIP3    H169773   6.435   2.512   1.291  0.4426 -0.2202  2.3920
16094TIP3    H269774   6.458   2.380   1.363  0.7154 -1.3229  0.3593
16095TIP3   OH269775   4.503   5.891  12.539 -0.8154 -0.0273  0.7880
16095TIP3    H169776   4.474   5.815  12.589 -1.7709  0.9175  1.7034
16095TIP3    H269777   4.428   5.914  12.484 -0.4763  0.1704  0.4010
16096TIP3   OH269778   3.879   6.803   1.993 -0.0744  0.0767  0.7178
16096TIP3    H169779   3.810   6.863   1.964 -0.8248 -0.1670  1.9322
16096TIP3    H269780   3.834   6.740   2.050  0.7936 -1.2987 -0.0509
16097TIP3   OH269781   5.770   6.174  15.261 -0.5785  0.0780  0.1402
16097TIP3    H169782   5.729   6.100  15.216 -0.3921  0.3789 -0.5550
16097TIP3    H269783   5.719   6.186  15.341  0.2338 -1.6731  0.9666
16098TIP3   OH269784   0.705   5.548  17.034 -0.1471  0.0972  0.1250
16098TIP3    H169785   0.755   5.570  16.955 -0.1000 -0.5366 -0.0346
16098TIP3    H269786   0.700   5.629  17.083 -1.3425  0.8623 -1.1759
16099TIP3   OH269787   4.205   5.140  16.720  0.3228  0.2516 -0.3934
16099TIP3    H169788   4.156   5.219  16.740 -1.0620 -0.1805 -1.8648
16099TIP3    H269789   4.287   5.171  16.682 -0.1831  0.9927 -0.9034
16100TIP3   OH269790   4.097   1.079  11.359  0.5675  0.1288 -0.1727
16100TIP3    H169791   4.069   0.989  11.349  0.5093 -0.0084  1.1011
16100TIP3    H269792   4.169   1.089  11.296 -0.6333 -0.2259 -1.6763
16101TIP3   OH269793   6.701   3.664  15.627 -0.3320  0.1949 -0.2906
16101TIP3    H169794   6.772   3.601  15.639  0.9644  1.3903 -1.3912
16101TIP3    H269795   6.634   3.636  15.689  1.8680  0.1896  2.2687
16102TIP3   OH269796   3.085   5.447   3.993 -0.0388  0.7231 -0.0658
16102TIP3    H169797   3.175   5.457   3.961 -0.2099 -0.9513 -1.2207
16102TIP3    H269798   3.060   5.358   3.967 -1.3600  0.4207  1.9748
16103TIP3   OH269799   1.218   3.482  15.392 -0.5578  0.1486 -0.4128
16103TIP3    H169800   1.266   3.400  15.376 -1.8218 -0.7497  0.1480
16103TIP3    H269801   1.184   3.507  15.307 -1.3065 -0.6986 -0.3904
16104TIP3   OH269802   2.099   1.120   1.709  0.3031  0.2980  0.2835
16104TIP3    H169803   2.082   1.208   1.742  2.0246  0.1436  1.8055
16104TIP3    H269804   2.071   1.062   1.780  0.4437 -0.3064 -0.1421
16105TIP3   OH269805   6.600   4.862  10.895 -0.3718 -0.1861 -0.2608
16105TIP3    H169806   6.518   4.824  10.926  0.8438 -1.3375  1.8259
16105TIP3    H269807   6.606   4.947  10.938 -0.0351 -0.5318  0.3909
16106TIP3   OH269808   0.083   2.207  16.895  0.5161 -0.5364  0.0515
16106TIP3    H169809   0.168   2.170  16.873  0.2469 -0.4979 -1.1385
16106TIP3    H269810   0.070   2.279  16.833  0.3108  0.5175  1.2695
16107TIP3   OH269811   5.769   4.379   4.845  0.2038 -0.0070 -0.9005
16107TIP3    H169812   5.757   4.285   4.859  1.4431  0.1840  2.1221
16107TIP3    H269813   5.846   4.385   4.788  0.6656 -0.8155 -0.3731
16108TIP3   OH269814   0.751   4.528  11.894 -0.1140  0.6032  0.4838
16108TIP3    H169815   0.778   4.586  11.822  1.3701 -1.7298 -0.9795
16108TIP3    H269816   0.669   4.490  11.864  0.1113  0.2155  0.3439
16109TIP3   OH269817   2.649   2.671   3.213  0.2437  0.7960 -0.0318
16109TIP3    H169818   2.687   2.676   3.125  0.8383 -1.2418  0.0479
16109TIP3    H269819   2.714   2.623   3.264 -1.3092 -0.5419  0.7852
16110TIP3   OH269820   0.429   4.955   0.289 -0.3942 -0.8516 -0.3938
16110TIP3    H169821   0.413   4.969   0.196  0.4588  0.1216 -0.4119
16110TIP3    H269822   0.398   5.036   0.331 -0.0635 -0.9606  0.0744
16111TIP3   OH269823   4.587   0.424  16.524  0.0434  0.6125  0.2182
16111TIP3    H169824   4.496   0.449  16.508 -0.7071 -2.4186 -1.0108
16111TIP3    H269825   4.582   0.361  16.596  0.9262 -0.6903 -0.8046
16112TIP3   OH269826   3.633   0.474  14.887 -0.2694  0.0055  0.1017
16112TIP3    H169827   3.714   0.497  14.932 -0.0556  0.2513 -0.4095
16112TIP3    H269828   3.564   0.496  14.950  0.1201 -1.9028  1.2726
16113TIP3   OH269829   4.128   5.397  16.694 -0.5360 -0.1018  0.4887
16113TIP3    H169830   4.045   5.360  16.663 -1.0542  0.1651  1.5260
16113TIP3    H269831   4.113   5.491  16.697 -0.5535 -0.1350  1.7015
16114TIP3   OH269832   0.815   3.756  12.320 -0.6370 -0.3638  0.0336
16114TIP3    H169833   0.891   3.716  12.361 -0.1501 -0.1020 -0.5911
16114TIP3    H269834   0.773   3.806  12.391  0.7654  0.9233  0.0192
16115TIP3   OH269835   4.123   6.647   5.516 -0.0613 -0.3184  0.1826
16115TIP3    H169836   4.175   6.674   5.440 -0.7048  0.6525  0.0706
16115TIP3    H269837   4.168   6.685   5.591 -0.4726  0.3340  0.1057
16116TIP3   OH269838   5.660   1.043  17.015 -0.4631 -0.2040 -0.4416
16116TIP3    H169839   5.703   0.961  16.994 -2.2348 -0.8981 -1.5869
16116TIP3    H269840   5.660   1.047  17.110  0.2804 -1.1747 -0.3959
16117TIP3   OH269841   4.598   3.087  15.770  0.1492  0.2874 -0.0212
16117TIP3    H169842   4.527   3.150  15.759  1.1243  1.9241  2.1339
16117TIP3    H269843   4.596   3.064  15.863  1.1863 -1.1926 -0.3292
16118TIP3   OH269844   4.861   2.106   0.876 -0.4458  0.4083 -0.2312
16118TIP3    H169845   4.946   2.146   0.894  0.8098 -1.3510 -1.8672
16118TIP3    H269846   4.799   2.158   0.927  1.4807  2.2788  0.3557
16119TIP3   OH269847   3.352   4.303  16.186 -0.3755  0.2044  0.3954
16119TIP3    H169848   3.420   4.367  16.163 -2.0276  1.8332 -0.1596
16119TIP3    H269849   3.306   4.344  16.259 -1.2796 -0.5006  0.2297
16120TIP3   OH269850   2.438   4.045   1.847 -0.0529  0.0257 -0.0979
16120TIP3    H169851   2.408   4.093   1.924  0.7522 -0.8622  0.7940
16120TIP3    H269852   2.475   3.964   1.882  1.4227  0.1253 -1.3028
16121TIP3   OH269853   4.492   0.935   4.804  0.2296 -0.6748  0.3915
16121TIP3    H169854   4.540   0.893   4.875 -0.1789  1.5479  2.0739
16121TIP3    H269855   4.400   0.917   4.824 -0.2411  3.4882  3.0667
16122TIP3   OH269856   0.197   2.065  13.544 -0.6350 -0.0404 -0.7348
16122TIP3    H169857   0.281   2.021  13.560 -1.4409 -1.5030 -0.3631
16122TIP3    H269858   0.147   2.004  13.492 -1.5361  0.7629 -0.8415
16123TIP3   OH269859   3.392   1.732   2.574  0.1425  0.1993  0.0678
16123TIP3    H169860   3.349   1.762   2.495 -0.9391 -2.9228 -0.6725
16123TIP3    H269861   3.345   1.775   2.645  0.8145  2.6606 -0.9028
16124TIP3   OH269862   1.005   0.614   1.111  0.9662 -0.2818 -0.0003
16124TIP3    H169863   0.949   0.604   1.187  1.6515 -0.7098  0.4561
16124TIP3    H269864   0.970   0.691   1.065 -1.6692 -2.0701 -1.2064
16125TIP3   OH269865   5.061   4.375   2.009 -0.0434 -1.0198 -0.0362
16125TIP3    H169866   5.123   4.446   2.028 -0.1763 -0.3032 -2.0392
16125TIP3    H269867   5.099   4.298   2.051  1.1211 -0.1708  0.5308
16126TIP3   OH269868   5.743   5.786  12.390 -0.1755 -0.3630 -0.0147
16126TIP3    H169869   5.775   5.737  12.466  3.1859  0.7094 -0.5857
16126TIP3    H269870   5.695   5.860  12.429 -1.1956 -1.4861  0.9419
16127TIP3   OH269871   1.107   2.845  12.735 -0.0837  0.6043  0.2375
16127TIP3    H169872   1.042   2.845  12.665  0.6569 -0.3141 -0.4840
16127TIP3    H269873   1.169   2.777  12.710 -1.6204 -2.3049  3.4897
16128TIP3   OH269874   5.027   5.121   1.175 -0.0661  0.2121 -0.3361
16128TIP3    H169875   4.943   5.103   1.131 -1.6141  1.0133  2.0789
16128TIP3    H269876   5.064   5.035   1.191 -0.5006 -0.1678 -1.2780
16129TIP3   OH269877   6.587   0.878  12.525  0.3174  0.2276  0.1617
16129TIP3    H169878   6.681   0.892  12.513  0.4040 -0.5951 -0.2060
16129TIP3    H269879   6.570   0.902  12.617  0.9840 -0.1317  0.3819
16130TIP3   OH269880   3.361   4.258   0.921  0.0590  0.4552 -0.2028
16130TIP3    H169881   3.361   4.231   1.013 -1.1718  0.8171 -0.0692
16130TIP3    H269882   3.374   4.177   0.872  0.6314  0.2478  0.2833
16131TIP3   OH269883   4.654   5.514  16.194  0.0133  0.8033 -0.2690
16131TIP3    H169884   4.560   5.504  16.182 -0.0533 -0.1284  0.8935
16131TIP3    H269885   4.670   5.489  16.285  1.4496  0.4077 -0.6037
16132TIP3   OH269886   3.969   3.138   0.279  0.1203  0.0489 -0.3431
16132TIP3    H169887   3.902   3.076   0.308  2.0985 -1.8312  0.5240
16132TIP3    H269888   3.950   3.218   0.328 -1.1181 -0.6388  0.3647
16133TIP3   OH269889   4.544   0.223  14.720  0.9136  0.4243 -0.1551
16133TIP3    H169890   4.471   0.277  14.689  1.8822  1.3166 -0.9706
16133TIP3    H269891   4.546   0.148  14.661  0.2241  0.0201  0.3198
16134TIP3   OH269892   5.307   1.766   2.714 -0.0115  0.5221 -0.3554
16134TIP3    H169893   5.260   1.706   2.772 -0.4801  0.0054 -1.2465
16134TIP3    H269894   5.393   1.726   2.702  0.6065  1.3248  1.0484
16135TIP3   OH269895   0.128   2.005   5.572 -0.6236 -0.1778  0.0176
16135TIP3    H169896   0.191   1.959   5.628 -0.3512  0.7216  0.4782
16135TIP3    H269897   0.075   1.935   5.533  1.7354 -1.1103 -1.7457
16136TIP3   OH269898   6.241   4.242   4.232 -0.6340  0.1501  0.9406
16136TIP3    H169899   6.170   4.197   4.185 -0.3093 -1.0206  1.5170
16136TIP3    H269900   6.276   4.305   4.169 -0.9049 -0.6415 -0.0339
16137TIP3   OH269901   6.545   1.727   1.690  0.7344 -0.5245  0.1898
16137TIP3    H169902   6.564   1.821   1.696  3.8211 -1.1300  2.3172
16137TIP3    H269903   6.544   1.709   1.596  3.1982  1.1862 -0.2613
16138TIP3   OH269904   1.694   2.320  11.945  0.5507  0.2878  0.5023
16138TIP3    H169905   1.620   2.380  11.938  1.3909  1.2173 -0.8383
16138TIP3    H269906   1.655   2.237  11.972 -0.6439  1.3959  2.4140
16139TIP3   OH269907   2.346   6.048   2.416 -0.4848  0.2405 -0.3754
16139TIP3    H169908   2.436   6.078   2.418 -0.2155 -0.5484 -0.0450
16139TIP3    H269909   2.302   6.099   2.484 -0.0716 -0.0029  0.0826
16140TIP3   OH269910   2.237   2.924   6.361 -0.5998 -0.2980 -0.3071
16140TIP3    H169911   2.324   2.934   6.322  0.8118 -1.6305  2.2118
16140TIP3    H269912   2.228   3.000   6.418 -1.0556 -0.2265 -0.4715
16141TIP3   OH269913   6.068   6.445   0.880 -0.9853  0.0533  0.3005
16141TIP3    H169914   6.030   6.532   0.881  0.6706  0.8184  1.6202
16141TIP3    H269915   6.162   6.460   0.882 -0.6722 -1.7555  1.1169
16142TIP3   OH269916   3.483   3.528  11.091  0.4611 -0.1140 -0.0873
16142TIP3    H169917   3.420   3.598  11.068  1.7671  1.3442  0.5945
16142TIP3    H269918   3.435   3.447  11.075 -0.6091  0.8879 -2.4303
16143TIP3   OH269919   1.006   0.248  14.840  0.3862 -0.2849  0.3399
16143TIP3    H169920   0.927   0.199  14.814  0.6347 -0.6510  0.2613
16143TIP3    H269921   0.980   0.340  14.838  0.8425 -0.1352 -2.8143
16144TIP3   OH269922   1.872   1.903  11.818 -0.4303  0.1738  0.0236
16144TIP3    H169923   1.902   1.849  11.745 -3.0255 -2.5328  0.7608
16144TIP3    H269924   1.928   1.878  11.891 -2.2984 -2.6954  0.6659
16145TIP3   OH269925   0.712   1.590  11.028 -0.1526 -0.1092 -0.0044
16145TIP3    H169926   0.631   1.542  11.014  0.2776 -0.9425  0.2968
16145TIP3    H269927   0.777   1.523  11.050  0.5393  0.5738  0.1054
16146TIP3   OH269928   4.980   2.539   1.872  0.3651  0.0925 -0.3891
16146TIP3    H169929   4.919   2.591   1.820  0.9540  1.4557  0.2338
16146TIP3    H269930   4.925   2.472   1.913 -0.8675  1.6955  0.7121
16147TIP3   OH269931   0.275   4.055  14.451 -0.1950  0.7603  0.1106
16147TIP3    H169932   0.321   4.119  14.397 -0.4822  1.4385  0.6470
16147TIP3    H269933   0.206   4.105  14.494 -1.1849 -0.1584 -0.3631
16148TIP3   OH269934   6.135   0.660   3.217 -0.6179  0.3259  0.0813
16148TIP3    H169935   6.049   0.633   3.251 -1.2932  1.5446 -0.5730
16148TIP3    H269936   6.135   0.631   3.126  0.4709 -1.3683  0.5829
16149TIP3   OH269937   3.581   0.776   1.433 -0.0566 -0.2423  0.2494
16149TIP3    H169938   3.565   0.835   1.507 -2.7545  2.3132 -2.1295
16149TIP3    H269939   3.540   0.693   1.459  0.2242  0.1421  2.0735
16150TIP3   OH269940   6.750   5.999  14.570 -0.0318 -0.1030 -0.0136
16150TIP3    H169941   6.738   6.085  14.530 -0.2096 -0.4772 -0.7696
16150TIP3    H269942   6.837   6.004  14.610 -0.1442  0.5106  0.1670
16151TIP3   OH269943   5.926   2.179   1.777  0.3651 -0.0024 -0.1296
16151TIP3    H169944   5.971   2.236   1.840 -0.6319 -0.5330  1.1122
16151TIP3    H269945   5.941   2.091   1.810 -1.0839 -0.2242  0.0211
16152TIP3   OH269946   4.044   5.552  12.222  0.8046  0.2655 -0.5937
16152TIP3    H169947   3.963   5.542  12.271  0.6836  2.1156 -0.3259
16152TIP3    H269948   4.108   5.582  12.288  1.7932 -1.3746 -0.7494
16153TIP3   OH269949   6.724   3.442  12.201  0.7188 -0.8267 -0.6049
16153TIP3    H169950   6.665   3.367  12.207  1.4009 -1.2610  0.9434
16153TIP3    H269951   6.666   3.517  12.191  0.0277 -1.5304 -2.3643
16154TIP3   OH269952   1.480   4.247   5.553 -0.4112  0.0059  0.1653
16154TIP3    H169953   1.463   4.308   5.624 -0.0461  0.2207  0.0714
16154TIP3    H269954   1.567   4.212   5.571 -0.3913 -0.0747 -0.0763
16155TIP3   OH269955   6.407   5.749   4.832  0.0743  0.1829 -0.5498
16155TIP3    H169956   6.399   5.712   4.920 -2.1129 -0.2167 -0.8759
16155TIP3    H269957   6.394   5.674   4.773  3.4266  0.0409 -1.3201
16156TIP3   OH269958   4.934   2.319  15.867 -0.0490  0.3707 -0.1892
16156TIP3    H169959   4.952   2.387  15.933  2.4536  1.5146 -1.8964
16156TIP3    H269960   4.912   2.368  15.788  1.2985 -0.7922 -1.3312
16157TIP3   OH269961   5.300   2.548  12.842 -0.0981 -0.1000 -0.1491
16157TIP3    H169962   5.394   2.548  12.859 -0.0086  1.9184 -0.4122
16157TIP3    H269963   5.267   2.473  12.891  1.6067 -0.7016  0.1540
16158TIP3   OH269964   1.102   3.957  14.036 -0.4972  0.7485 -0.0550
16158TIP3    H169965   1.170   3.991  14.094 -2.6185  1.2326  2.3622
16158TIP3    H269966   1.149   3.904  13.972  2.0204 -0.1273  2.3125
16159TIP3   OH269967   6.606   6.090   4.199 -0.2298 -0.5830 -0.2102
16159TIP3    H169968   6.631   6.014   4.252 -1.0569  0.4511  1.7852
16159TIP3    H269969   6.512   6.081   4.186  0.1640 -1.6138 -2.9548
16160TIP3   OH269970   5.267   1.916  11.261 -0.0649 -0.4659 -0.1357
16160TIP3    H169971   5.326   1.891  11.332 -0.5519 -0.9633  0.1001
16160TIP3    H269972   5.188   1.946  11.306 -0.4223 -0.9036 -0.4724
16161TIP3   OH269973   3.289   6.279  10.959 -0.0559 -0.6732 -0.6198
16161TIP3    H169974   3.233   6.323  10.895  0.8231  0.5134 -0.6141
16161TIP3    H269975   3.366   6.253  10.909  0.3384 -0.3480 -0.1862
16162TIP3   OH269976   6.694   5.714   0.730  0.4622 -0.1892 -0.6359
16162TIP3    H169977   6.641   5.690   0.806 -0.7619  0.7064 -1.1826
16162TIP3    H269978   6.728   5.631   0.697  0.4238 -0.6532  0.4499
16163TIP3   OH269979   1.486   0.767   1.512 -0.1292  0.3620  0.3039
16163TIP3    H169980   1.526   0.848   1.479 -0.0829  0.6036  0.9285
16163TIP3    H269981   1.464   0.717   1.433  2.4283 -0.2972 -0.0797
16164TIP3   OH269982   5.115   5.579  14.154 -0.4892  0.4097  0.4282
16164TIP3    H169983   5.045   5.527  14.115 -1.3043  1.6557  0.1880
16164TIP3    H269984   5.152   5.629  14.082  0.7798 -0.3279  0.5244
16165TIP3   OH269985   3.575   2.940   5.240 -0.5676  0.3372  0.2401
16165TIP3    H169986   3.516   3.014   5.251  0.5229  1.3837 -0.6578
16165TIP3    H269987   3.640   2.951   5.310 -0.3512  0.3100  0.0476
16166TIP3   OH269988   4.817   2.583   2.716  0.3298 -0.2634 -0.0810
16166TIP3    H169989   4.858   2.660   2.676  1.7530 -1.0167 -0.1323
16166TIP3    H269990   4.737   2.569   2.665  1.9310 -1.0211 -2.5330
16167TIP3   OH269991   4.568   2.755  12.226  0.0080  0.1548 -0.2457
16167TIP3    H169992   4.661   2.771  12.215  0.1591 -0.5184  0.0398
16167TIP3    H269993   4.551   2.672  12.181 -0.6621  0.7883 -1.2151
16168TIP3   OH269994   1.535   6.138  16.001 -0.6778 -0.2336  0.1148
16168TIP3    H169995   1.440   6.150  15.999 -0.7417 -0.7544  0.0376
16168TIP3    H269996   1.560   6.122  15.910 -0.5379 -0.2804  0.1610
16169TIP3   OH269997   5.348   2.342   5.079 -0.3340  0.6556  0.6444
16169TIP3    H169998   5.270   2.366   5.130  0.0532 -0.3664  1.7447
16169TIP3    H269999   5.321   2.354   4.988 -2.0961 -0.5087  0.9567
16170TIP3   OH270000   5.352   6.060   0.722  0.4856 -0.2944 -0.4733
16170TIP3    H170001   5.417   6.119   0.684  0.2394  0.4074  0.1725
16170TIP3    H270002   5.271   6.080   0.675  0.2645  0.3191  0.1455
16171TIP3   OH270003   1.094   6.097  11.192  0.7253  0.0019  0.1762
16171TIP3    H170004   1.079   6.184  11.228  0.5147  0.4121 -0.8540
16171TIP3    H270005   1.168   6.108  11.132  2.5417 -1.1320  2.0872
16172TIP3   OH270006   1.828   3.987  14.092 -0.2730 -0.0238  0.6253
16172TIP3    H170007   1.784   3.907  14.120  0.2110 -0.8278 -0.8180
16172TIP3    H270008   1.848   4.033  14.174 -0.8186 -1.2287  1.4636
16173TIP3   OH270009   5.906   0.838   1.825  0.0242 -0.8188 -0.1860
16173TIP3    H170010   5.816   0.851   1.797 -0.3306 -0.8158  0.9196
16173TIP3    H270011   5.919   0.744   1.822 -0.2340 -0.8709  0.3072
16174TIP3   OH270012   3.728   0.186  11.333  0.1494 -0.5254  0.5691
16174TIP3    H170013   3.779   0.111  11.364  1.4092  0.7827  1.8506
16174TIP3    H270014   3.642   0.176  11.373  0.5559 -0.8919  1.3581
16175TIP3   OH270015   3.219   3.458  13.645  0.5379 -0.1006 -0.3411
16175TIP3    H170016   3.296   3.456  13.702 -1.1163  0.0438  2.0424
16175TIP3    H270017   3.187   3.368  13.643  0.0496  0.0703 -0.2941
16176TIP3   OH270018   2.100   3.077   5.532  0.3199  0.4597 -0.3625
16176TIP3    H170019   2.108   3.027   5.451  0.2845 -0.3765  0.1403
16176TIP3    H270020   2.179   3.055   5.582 -0.1953  0.0820  0.3092
16177TIP3   OH270021   0.358   4.623  14.882 -0.5417  1.0679 -0.4865
16177TIP3    H170022   0.363   4.542  14.831  1.1395 -0.6211  2.1333
16177TIP3    H270023   0.264   4.641  14.889 -0.9395 -0.5142 -1.3137
16178TIP3   OH270024   2.972   5.852  15.047  0.0051 -0.5982 -0.1760
16178TIP3    H170025   3.011   5.768  15.072 -1.0216 -0.7884  0.8308
16178TIP3    H270026   2.892   5.858  15.099  1.4994  2.3529  2.0653
16179TIP3   OH270027   5.156   0.264   5.581 -0.0655 -0.4692 -0.5870
16179TIP3    H170028   5.242   0.287   5.546 -0.0420 -1.5330 -1.2677
16179TIP3    H270029   5.098   0.266   5.505 -0.4649 -0.6358 -0.2902
16180TIP3   OH270030   0.065   3.942  12.340 -0.2044  0.1886  0.4805
16180TIP3    H170031   0.049   3.985  12.424 -0.9689  0.7364  0.0671
16180TIP3    H270032   0.143   3.985  12.305 -0.6197  0.8335  0.3396
16181TIP3   OH270033   3.799   6.464  12.103 -0.3995  0.4124 -0.7908
16181TIP3    H170034   3.741   6.429  12.170 -1.4255  0.4793 -1.6149
16181TIP3    H270035   3.791   6.559  12.110  0.2749  0.4426 -0.3520
16182TIP3   OH270036   4.740   4.355   1.133  0.7468  0.0496 -0.7629
16182TIP3    H170037   4.648   4.349   1.158  0.7547  1.4772 -0.2866
16182TIP3    H270038   4.782   4.282   1.179  0.0711  0.1757  0.0782
16183TIP3   OH270039   0.536   1.493  16.553  0.1194  0.1845  0.2898
16183TIP3    H170040   0.525   1.456  16.640  0.0048 -0.9367 -0.1839
16183TIP3    H270041   0.579   1.577  16.568  0.5225 -0.1993  1.3878
16184TIP3   OH270042   5.926   5.859   4.686  0.6209 -0.6901 -0.1510
16184TIP3    H170043   5.991   5.847   4.756  0.1390 -1.1860  0.2233
16184TIP3    H270044   5.855   5.906   4.729 -0.6177 -2.8479  0.3006
16185TIP3   OH270045   1.858   5.233   5.723 -0.1566 -0.1885 -0.0224
16185TIP3    H170046   1.802   5.156   5.717 -1.8581  1.0963 -1.5215
16185TIP3    H270047   1.825   5.293   5.657  0.9779  1.9474  1.2130
16186TIP3   OH270048   2.697   6.580   4.187  0.1657  0.4375 -0.6896
16186TIP3    H170049   2.778   6.614   4.225  0.9624 -0.1000 -1.8413
16186TIP3    H270050   2.628   6.636   4.223  1.1510  1.5631 -0.4757
16187TIP3   OH270051   5.293   1.404   2.028  0.6090 -0.0535  0.6434
16187TIP3    H170052   5.324   1.317   2.051 -0.1649 -0.5839 -0.2143
16187TIP3    H270053   5.199   1.392   2.013  0.6886  0.6682 -0.6098
16188TIP3   OH270054   1.440   6.042   4.143  0.0223 -0.1802  0.6179
16188TIP3    H170055   1.364   6.024   4.199 -0.2320  1.6464  0.9248
16188TIP3    H270056   1.472   6.126   4.174  1.9967 -0.7584  0.2558
16189TIP3   OH270057   0.394   3.709  15.499 -0.7717  0.2059 -0.1844
16189TIP3    H170058   0.481   3.717  15.538 -0.3138  2.4087 -1.4896
16189TIP3    H270059   0.409   3.665  15.416 -0.9021  0.5208 -0.3770
16190TIP3   OH270060   2.527   2.019  11.317 -0.0172 -0.1022  0.2997
16190TIP3    H170061   2.533   1.925  11.329 -1.2962 -0.3126 -0.6433
16190TIP3    H270062   2.501   2.052  11.403  0.8176 -0.5492  0.7380
16191TIP3   OH270063   4.564   2.673   1.822  0.5686 -0.3118 -0.3054
16191TIP3    H170064   4.642   2.707   1.865  0.4379  0.2877 -0.5223
16191TIP3    H270065   4.526   2.750   1.779 -0.0858 -0.6182 -0.2788
16192TIP3   OH270066   3.319   1.674  16.615  0.3362  0.4553 -0.1072
16192TIP3    H170067   3.395   1.662  16.557 -1.1459 -0.7328 -1.9535
16192TIP3    H270068   3.281   1.757  16.588  1.3533  1.4285  1.3391
16193TIP3   OH270069   2.517   1.962   4.280  0.7130  0.0788  0.0493
16193TIP3    H170070   2.562   2.046   4.285 -0.3730  0.7693 -1.1801
16193TIP3    H270071   2.587   1.898   4.264  1.3271  1.0970 -1.6507
16194TIP3   OH270072   0.839   4.423  12.812  0.3373  0.3451 -0.2162
16194TIP3    H170073   0.873   4.459  12.731 -3.3179 -1.5362 -2.8637
16194TIP3    H270074   0.837   4.498  12.872  2.4351  1.9932 -2.0358
16195TIP3   OH270075   6.244   4.710   2.124 -0.4763  0.8076  0.1619
16195TIP3    H170076   6.217   4.644   2.187 -0.6495  1.0468  0.3382
16195TIP3    H270077   6.339   4.698   2.116 -0.4563  0.7703  0.4565
16196TIP3   OH270078   4.517   2.447  16.971 -0.2711 -0.2855 -0.6423
16196TIP3    H170079   4.456   2.381  16.940  2.3899 -2.5135 -1.5858
16196TIP3    H270080   4.517   2.437  17.066 -1.5271 -0.0716 -0.6100
16197TIP3   OH270081   4.735   5.659   5.646 -0.4025 -0.5290  0.4348
16197TIP3    H170082   4.779   5.651   5.731  0.8767  1.9231  0.0953
16197TIP3    H270083   4.806   5.669   5.583 -1.3579  1.3306 -0.4304
16198TIP3   OH270084   2.214   0.022   1.884 -0.4844 -0.9814 -0.3962
16198TIP3    H170085   2.223   0.053   1.794  0.9056 -1.3134 -0.4006
16198TIP3    H270086   2.202  -0.073   1.875  0.9414 -1.1938 -0.2051
16199TIP3   OH270087   3.952   2.649   1.241 -0.4678 -0.1497  0.1015
16199TIP3    H170088   3.927   2.563   1.274  1.3803 -0.1258  1.7273
16199TIP3    H270089   4.045   2.656   1.259 -0.3965  1.8894 -0.7408
16200TIP3   OH270090   4.655   2.158  16.231 -0.0923  0.0844 -0.4115
16200TIP3    H170091   4.644   2.066  16.251 -0.1158  0.2224  0.2314
16200TIP3    H270092   4.734   2.161  16.176  0.1180 -0.2811 -0.1364
16201TIP3   OH270093   4.297   2.421   0.302  0.2592  0.5291 -0.6332
16201TIP3    H170094   4.326   2.496   0.354  0.5072 -0.1240  0.1743
16201TIP3    H270095   4.244   2.369   0.362 -0.9152  0.6516 -1.5224
16202TIP3   OH270096   3.645   6.676   5.080  0.3757 -0.0260  0.0403
16202TIP3    H170097   3.565   6.625   5.064 -0.4945  1.6675 -1.3011
16202TIP3    H270098   3.701   6.617   5.130 -2.0217 -0.9817  1.7715
16203TIP3   OH270099   4.018   6.448  15.344  0.1934 -0.6991  0.8894
16203TIP3    H170100   4.003   6.468  15.437 -0.0705  0.2043  0.6643
16203TIP3    H270101   3.931   6.438  15.307  0.2491  0.3012  0.4641
16204TIP3   OH270102   1.073   6.800  15.127  0.7781  0.5485  0.4074
16204TIP3    H170103   1.000   6.764  15.176  1.1866 -0.4772  0.2944
16204TIP3    H270104   1.133   6.834  15.194  1.3579 -0.8897  0.6593
16205TIP3   OH270105   3.424   6.063  12.924 -0.3740 -0.0049 -0.0420
16205TIP3    H170106   3.509   6.073  12.968  0.3969 -1.5295 -1.1000
16205TIP3    H270107   3.362   6.109  12.981  1.0222  0.4331  1.1889
16206TIP3   OH270108   1.237   4.790  13.690  0.6753 -0.1219  0.3191
16206TIP3    H170109   1.316   4.836  13.720  0.5025 -1.5759  3.3705
16206TIP3    H270110   1.256   4.698  13.707 -1.1768 -0.6325 -0.2337
16207TIP3   OH270111   5.251   2.195  15.761  0.7561  0.1486  0.2577
16207TIP3    H170112   5.165   2.152  15.767 -0.0709  1.8035  0.7033
16207TIP3    H270113   5.312   2.123  15.743 -0.2327 -1.5436  3.0534
16208TIP3   OH270114   6.649   3.997  11.992 -0.7089 -0.2154  0.2333
16208TIP3    H170115   6.734   3.955  11.982 -1.4319 -2.0678  1.3219
16208TIP3    H270116   6.587   3.937  11.950 -1.4789  1.2853 -0.9033
16209TIP3   OH270117   4.849   4.592  14.483  0.2052  0.5240 -0.3421
16209TIP3    H170118   4.883   4.548  14.560 -0.6470  0.1229 -0.1841
16209TIP3    H270119   4.927   4.619  14.434  0.7426  0.2028  0.3262
16210TIP3   OH270120   0.090   6.826  16.255 -0.8481  0.2671  0.3689
16210TIP3    H170121   0.116   6.914  16.279  0.0234 -0.0198  0.5058
16210TIP3    H270122   0.170   6.785  16.220 -1.9766  0.6380 -3.0482
16211TIP3   OH270123   1.113   6.834   5.166 -0.0460  0.0382  0.2941
16211TIP3    H170124   1.028   6.795   5.187 -0.2256 -0.1491 -0.7106
16211TIP3    H270125   1.103   6.926   5.190 -1.6276  0.7355 -2.5386
16212TIP3   OH270126   1.840   2.899  11.035 -0.7245 -0.2491  0.7611
16212TIP3    H170127   1.924   2.929  11.001 -0.2981 -1.6487  0.5422
16212TIP3    H270128   1.778   2.917  10.964 -0.4777  0.0519  0.6149
16213TIP3   OH270129   3.232   4.270  11.266 -0.0558  0.0359  0.5673
16213TIP3    H170130   3.275   4.293  11.348  0.0909  0.8060  0.2816
16213TIP3    H270131   3.161   4.212  11.292 -1.5872  2.2125  1.5700
16214TIP3   OH270132   2.270   2.246  13.197  0.3531  0.0701  0.1135
16214TIP3    H170133   2.177   2.225  13.194 -0.2278  2.4200 -1.4718
16214TIP3    H270134   2.285   2.275  13.287  0.1317 -2.2999  0.9917
16215TIP3   OH270135   1.282   5.983  12.086  0.1260 -0.9022 -0.2697
16215TIP3    H170136   1.214   5.926  12.050 -0.3313 -1.6573  1.6592
16215TIP3    H270137   1.273   5.973  12.181  0.8255  1.4939  0.0953
16216TIP3   OH270138   5.339   1.265  11.641 -0.1801 -0.3837  0.6974
16216TIP3    H170139   5.416   1.250  11.694  0.1917 -0.1862  0.2263
16216TIP3    H270140   5.350   1.207  11.565 -0.7070 -0.6735  0.8394
16217TIP3   OH270141   5.711   5.922   2.842  0.1211 -0.1651 -0.6912
16217TIP3    H170142   5.705   5.963   2.756  0.3173 -1.4278 -1.3222
16217TIP3    H270143   5.635   5.955   2.889  0.8240  1.7514 -0.7827
16218TIP3   OH270144   1.661   1.612  13.335 -0.2641 -0.3762 -0.4456
16218TIP3    H170145   1.632   1.520  13.334  1.5080 -0.9823  0.4209
16218TIP3    H270146   1.644   1.642  13.246 -1.2639 -1.3984 -0.6405
16219TIP3   OH270147   6.641   0.259   3.747 -0.2964  0.1874  0.3769
16219TIP3    H170148   6.605   0.328   3.803 -0.4434 -0.5428  1.2021
16219TIP3    H270149   6.608   0.280   3.659 -0.4171  1.1056  0.6283
16220TIP3   OH270150   4.342   0.080   4.028 -0.2695 -0.1221  0.1045
16220TIP3    H170151   4.299   0.075   4.113  2.8473 -1.1950  1.8026
16220TIP3    H270152   4.436   0.078   4.049  0.7626  2.8580 -3.1898
16221TIP3   OH270153   1.080   4.886   1.111 -0.1246 -0.2359 -0.2052
16221TIP3    H170154   0.989   4.867   1.133  0.5075 -2.2695  0.8685
16221TIP3    H270155   1.077   4.910   1.018 -1.7673  0.0420 -0.1251
16222TIP3   OH270156   0.588   0.251  16.615 -0.0210  0.8283 -0.7984
16222TIP3    H170157   0.620   0.321  16.558  1.3474  1.2928  0.4716
16222TIP3    H270158   0.546   0.189  16.556  2.1583  0.8121 -2.4689
16223TIP3   OH270159   5.477   5.791   4.026  0.0876  0.5261 -0.5277
16223TIP3    H170160   5.444   5.703   4.006 -1.2385  1.4042 -2.5797
16223TIP3    H270161   5.413   5.849   3.985  1.1390  2.4509  0.4742
16224TIP3   OH270162   5.891   0.787  16.931  0.2411 -0.2519 -0.0144
16224TIP3    H170163   5.874   0.699  16.896  0.7429  0.3661 -1.9187
16224TIP3    H270164   5.966   0.819  16.881  0.1534  1.2154  0.7383
16225TIP3   OH270165   2.048   1.646   0.072  0.4763  0.1529  0.1357
16225TIP3    H170166   2.033   1.728   0.024  2.9743 -0.3594 -1.7304
16225TIP3    H270167   2.119   1.667   0.133  2.1611 -0.8694 -1.3653
16226TIP3   OH270168   3.268   6.555  11.354 -0.1332  0.5495  0.0580
16226TIP3    H170169   3.311   6.490  11.299  0.0684 -1.4977  2.4325
16226TIP3    H270170   3.183   6.516  11.376 -0.0172  1.0418  1.5257
16227TIP3   OH270171   5.835   2.849  11.308 -0.7441  0.0941 -0.0167
16227TIP3    H170172   5.846   2.939  11.277  0.5391 -0.3759 -1.0346
16227TIP3    H270173   5.925   2.817  11.319 -1.0876 -0.1677  3.1467
16228TIP3   OH270174   4.427   1.223  16.041 -0.6217 -0.0540 -0.4915
16228TIP3    H170175   4.503   1.231  16.098  0.4424  2.4691 -2.0920
16228TIP3    H270176   4.455   1.163  15.972  0.0772  1.1181 -1.2519
16229TIP3   OH270177   3.784   4.642  12.684  0.1939 -0.2058 -0.9857
16229TIP3    H170178   3.789   4.560  12.733 -1.0627 -0.2281 -0.8668
16229TIP3    H270179   3.715   4.627  12.619 -0.8834  1.1373 -0.2034
16230TIP3   OH270180   1.848   1.171   0.895 -0.1340  0.4900  0.5209
16230TIP3    H170181   1.937   1.139   0.877  0.3249  1.4797  0.9694
16230TIP3    H270182   1.792   1.117   0.840  0.8208  0.3560 -0.3507
16231TIP3   OH270183   6.504   4.573   3.027  0.1536  0.4347  0.3650
16231TIP3    H170184   6.514   4.591   2.933 -1.4807 -0.7524 -0.0785
16231TIP3    H270185   6.428   4.625   3.053  0.2999  0.3760  0.9077
16232TIP3   OH270186   1.116   0.883   2.920 -0.1889  0.2919 -0.0208
16232TIP3    H170187   1.164   0.818   2.972 -0.0711  0.1697 -0.2786
16232TIP3    H270188   1.144   0.967   2.956  0.9010  0.2590 -0.7324
16233TIP3   OH270189   3.514   5.047  13.125 -0.8248 -0.0952 -1.0922
16233TIP3    H170190   3.570   4.970  13.129 -1.7049 -0.7659 -1.5221
16233TIP3    H270191   3.540   5.091  13.044 -1.4727 -0.8340 -1.7017
16234TIP3   OH270192   5.038   6.197  14.612  0.3946 -0.3871  0.6331
16234TIP3    H170193   4.948   6.194  14.643  0.0629  3.2944  0.4585
16234TIP3    H270194   5.090   6.169  14.687 -0.8113 -1.6674  1.0310
16235TIP3   OH270195   6.158   1.649   0.554  0.1871 -0.2401 -0.1237
16235TIP3    H170196   6.239   1.607   0.583 -0.0497 -0.3197  0.4398
16235TIP3    H270197   6.096   1.635   0.627 -0.9465 -1.9491 -1.3381
16236TIP3   OH270198   5.970   5.944   5.213 -0.4093 -0.0244  0.3939
16236TIP3    H170199   5.915   6.019   5.190 -1.1812 -0.9249 -0.8337
16236TIP3    H270200   5.937   5.916   5.298 -0.7232  0.4692  0.4394
16237TIP3   OH270201   4.173   2.327  14.373  0.8084  0.2718  0.2367
16237TIP3    H170202   4.162   2.253  14.314  1.6050 -0.4768  0.9918
16237TIP3    H270203   4.266   2.324  14.398  0.2761 -0.1630  2.4191
16238TIP3   OH270204   4.336   3.885   0.958 -0.1021 -0.0637 -0.1380
16238TIP3    H170205   4.424   3.918   0.977 -0.8027  0.4775  2.6591
16238TIP3    H270206   4.333   3.800   1.001 -0.1274 -1.3985 -2.5971
16239TIP3   OH270207   1.023   3.090  12.833 -0.4727  0.3545 -0.2726
16239TIP3    H170208   1.024   3.115  12.926  2.8588 -0.6323  0.0503
16239TIP3    H270209   1.012   2.995  12.834  0.4669  0.2365 -0.8355
16240TIP3   OH270210   6.426   5.586   2.649 -0.0162 -0.1041  0.2440
16240TIP3    H170211   6.366   5.528   2.602  1.3226 -0.1581 -1.5107
16240TIP3    H270212   6.399   5.580   2.740 -1.2398 -1.8565 -0.1814
16241TIP3   OH270213   3.342   3.740   0.700  0.0092 -0.1009 -0.0525
16241TIP3    H170214   3.393   3.677   0.751  1.5977 -1.4581 -3.0118
16241TIP3    H270215   3.332   3.816   0.757 -0.7528 -2.4325  3.1851
16242TIP3   OH270216   5.355   5.127  15.226  0.1689  0.3087 -0.0418
16242TIP3    H170217   5.354   5.205  15.170  1.3065  1.9065  1.9989
16242TIP3    H270218   5.433   5.079  15.198 -0.6362 -0.2640 -1.4364
16243TIP3   OH270219   5.584   1.151  14.171  0.3274 -0.3281 -0.0567
16243TIP3    H170220   5.648   1.081  14.180  0.1022 -1.0407 -3.0477
16243TIP3    H270221   5.541   1.135  14.087 -3.8796  0.0771  1.7489
16244TIP3   OH270222   3.917   2.955   5.636  0.1595 -0.4876 -0.6658
16244TIP3    H170223   3.935   2.867   5.670 -0.9530 -0.9140 -1.1153
16244TIP3    H270224   4.000   3.001   5.644  0.0774 -0.6599  2.2576
16245TIP3   OH270225   2.561   0.536  17.006  0.2733 -0.0704  0.2996
16245TIP3    H170226   2.491   0.598  17.026  0.6338  0.7795 -0.9575
16245TIP3    H270227   2.532   0.454  17.045 -0.8642  0.5489  0.8161
16246TIP3   OH270228   4.627   0.749   5.000  0.0284  0.5865  0.0782
16246TIP3    H170229   4.644   0.703   4.918 -2.6264 -0.3132 -0.0552
16246TIP3    H270230   4.693   0.714   5.061  1.9123  1.1236 -1.5578
16247TIP3   OH270231   3.390   0.980   1.835 -1.2767  0.4587  0.4869
16247TIP3    H170232   3.417   1.072   1.837  0.1616  0.0618  0.2028
16247TIP3    H270233   3.333   0.974   1.758  0.3074  0.6839 -0.7515
16248TIP3   OH270234   4.510   2.450   1.668  0.0522 -0.3187 -0.2558
16248TIP3    H170235   4.459   2.399   1.731 -0.1290 -0.5804 -0.6103
16248TIP3    H270236   4.542   2.525   1.718 -2.3755  0.9601 -0.4790
16249TIP3   OH270237   6.636   0.393   4.724  0.1378  0.1044  0.2239
16249TIP3    H170238   6.653   0.299   4.732  1.2646  0.2090 -0.6898
16249TIP3    H270239   6.678   0.432   4.800 -0.2308 -0.1214  0.5437
16250TIP3   OH270240   4.742   6.345   2.687  0.1376 -0.0557 -0.5917
16250TIP3    H170241   4.714   6.353   2.778 -4.1266 -1.1157 -1.5890
16250TIP3    H270242   4.706   6.261   2.658  1.5640  0.1307 -3.2212
16251TIP3   OH270243   3.525   2.391  14.823 -0.7609 -0.4557 -0.4317
16251TIP3    H170244   3.530   2.481  14.856 -0.5648 -0.9609  0.9659
16251TIP3    H270245   3.451   2.392  14.762  1.0509  1.3588 -2.8265
16252TIP3   OH270246   5.779   6.699  15.126  0.3429 -0.1613 -0.0878
16252TIP3    H170247   5.766   6.757  15.051  0.0224  1.6365  1.3101
16252TIP3    H270248   5.746   6.614  15.095 -0.8314  0.7900 -1.6222
16253TIP3   OH270249   3.379   4.955  15.643 -0.2929  0.4407 -0.1024
16253TIP3    H170250   3.407   4.970  15.552 -0.0544  0.6361  0.0032
16253TIP3    H270251   3.388   4.861  15.655 -0.5549  0.3802 -0.3578
16254TIP3   OH270252   4.191   3.128   4.891  0.1949  0.6452 -0.3870
16254TIP3    H170253   4.158   3.047   4.930 -1.9188  1.3037 -0.6550
16254TIP3    H270254   4.231   3.175   4.964 -0.2691  0.1889  0.1776
16255TIP3   OH270255   5.756   4.464  14.847  0.2419 -0.2471 -0.8387
16255TIP3    H170256   5.729   4.483  14.937 -0.1517 -0.1567 -0.9734
16255TIP3    H270257   5.832   4.407  14.856 -1.0896 -2.0764 -0.4505
16256TIP3   OH270258   5.314   2.892  11.272 -0.1546 -0.2222  0.1749
16256TIP3    H170259   5.369   2.947  11.329 -0.7108 -0.7745  1.2793
16256TIP3    H270260   5.332   2.923  11.184 -1.6290  2.8388  0.8296
16257TIP3   OH270261   1.016   0.277   0.492 -0.1969 -0.0503 -0.1788
16257TIP3    H170262   1.052   0.285   0.580  1.4243  0.0057 -0.8252
16257TIP3    H270263   0.949   0.346   0.487  1.1410  1.3323  0.3186
16258TIP3   OH270264   2.644   4.887   0.389  0.1464 -0.0249 -0.4369
16258TIP3    H170265   2.736   4.876   0.416 -0.4885  0.7623  2.3997
16258TIP3    H270266   2.631   4.821   0.321  2.7156 -0.3916 -0.6716
16259TIP3   OH270267   1.981   0.517  14.906  0.3999  0.0299 -0.2481
16259TIP3    H170268   2.004   0.602  14.943 -0.1934 -0.5483  1.5601
16259TIP3    H270269   1.886   0.521  14.892  0.7193  0.6095 -2.8699
16260TIP3   OH270270   2.694   0.501  15.124 -0.6967 -0.4319  0.1678
16260TIP3    H170271   2.763   0.507  15.190 -1.3180 -0.4535  0.8349
16260TIP3    H270272   2.740   0.479  15.043  0.2211  0.8390  0.3132
16261TIP3   OH270273   2.454   2.868  15.489 -0.3881 -0.4164  0.1058
16261TIP3    H170274   2.372   2.848  15.443 -1.7385  2.6304  0.8967
16261TIP3    H270275   2.512   2.902  15.421 -0.6847 -0.2786 -0.0806
16262TIP3   OH270276   1.649   1.536  14.256 -0.0581 -0.8499  0.3487
16262TIP3    H170277   1.603   1.460  14.222 -3.2301  0.7952  0.5620
16262TIP3    H270278   1.673   1.586  14.178 -2.0792  0.0537  0.2325
16263TIP3   OH270279   6.394   3.935  14.059  0.5592 -0.4784  0.4787
16263TIP3    H170280   6.449   3.995  14.009 -0.2133  0.4439  0.7161
16263TIP3    H270281   6.375   3.864  13.997 -0.9466  0.9724 -0.8194
16264TIP3   OH270282   1.059   6.411  13.213  0.3123 -0.2712  0.0874
16264TIP3    H170283   1.132   6.452  13.260  0.4246 -0.4174  0.0427
16264TIP3    H270284   1.038   6.333  13.264  1.7816 -1.5589 -1.1760
16265TIP3   OH270285   0.679   5.601   0.328 -0.6682  0.0540  0.0868
16265TIP3    H170286   0.687   5.651   0.247 -1.2073 -0.4269 -0.2673
16265TIP3    H270287   0.660   5.667   0.395  0.4901  0.5443 -0.0357
16266TIP3   OH270288   6.355   1.473  15.290 -0.0265  0.4139  0.1824
16266TIP3    H170289   6.414   1.547  15.298 -0.7765  1.4693 -2.8067
16266TIP3    H270290   6.268   1.510  15.301 -0.3828 -0.0436 -0.9314
16267TIP3   OH270291   6.831   4.435   5.227 -0.3112  0.7341 -0.5278
16267TIP3    H170292   6.780   4.359   5.203 -0.3864  0.8051 -0.5906
16267TIP3    H270293   6.785   4.509   5.188 -1.7913  1.1307  1.7933
16268TIP3   OH270294   5.742   4.132   5.580 -0.2800  0.4608 -0.0417
16268TIP3    H170295   5.785   4.050   5.605  0.1552  0.0530 -1.9473
16268TIP3    H270296   5.655   4.127   5.620  1.3755  1.4390  4.1921
16269TIP3   OH270297   0.023   1.540  11.883 -0.3407 -0.0268  0.4567
16269TIP3    H170298   0.039   1.634  11.889  1.5511 -0.0634 -2.1732
16269TIP3    H270299  -0.047   1.531  11.818 -1.2903 -0.4475  1.4966
16270TIP3   OH270300   6.575   0.777   3.189  0.0034 -0.0248  0.5552
16270TIP3    H170301   6.502   0.795   3.248 -0.5313 -1.1196  0.2573
16270TIP3    H270302   6.553   0.692   3.149  1.2358 -0.1741  0.1525
16271TIP3   OH270303   4.320   6.087   2.893 -0.3360  0.1256 -0.8043
16271TIP3    H170304   4.317   6.044   2.807 -0.9456  1.6082 -1.5615
16271TIP3    H270305   4.246   6.050   2.941  1.4953 -2.6428  0.1118
16272TIP3   OH270306   3.480   3.188  14.044 -0.1789 -0.0520 -0.0364
16272TIP3    H170307   3.561   3.225  14.009 -0.2225 -0.1299 -0.2187
16272TIP3    H270308   3.510   3.131  14.115 -0.1192  0.4034  0.3086
16273TIP3   OH270309   5.231   2.459   0.937 -0.5946 -0.3264  0.8633
16273TIP3    H170310   5.260   2.455   1.029 -0.2282 -0.2128  0.7575
16273TIP3    H270311   5.232   2.553   0.916  1.2495 -0.4628  0.1586
16274TIP3   OH270312   3.216   6.077  15.976 -0.3171  0.4923  0.0622
16274TIP3    H170313   3.229   6.120  16.061  1.8840  0.2899 -0.1303
16274TIP3    H270314   3.285   6.113  15.920 -1.4317  0.2669 -1.5313
16275TIP3   OH270315   2.730   6.081   5.317 -0.2205  0.4604  0.4556
16275TIP3    H170316   2.645   6.087   5.361  0.1334  0.7314  1.1121
16275TIP3    H270317   2.793   6.110   5.383  0.4108 -0.0062  0.0640
16276TIP3   OH270318   2.157   2.940  10.135 -0.6579 -0.1104 -0.3404
16276TIP3    H170319   2.192   2.852  10.152 -0.2149 -0.0840 -1.0991
16276TIP3    H270320   2.195   2.995  10.204 -0.6755 -0.4420 -0.0625
16277TIP3   OH270321   2.209   4.953   1.507 -0.0333 -0.7516  0.0375
16277TIP3    H170322   2.142   4.998   1.455 -0.3964 -0.3893  0.7949
16277TIP3    H270323   2.203   4.862   1.479 -1.8172 -1.0033  1.0229
16278TIP3   OH270324   2.410   0.906   1.536  0.0251  0.2080  0.2693
16278TIP3    H170325   2.449   0.944   1.614 -1.2979 -0.5010  1.3035
16278TIP3    H270326   2.463   0.941   1.464  1.6633  0.3773  1.4958
16279TIP3   OH270327   2.609   3.514  16.004 -0.2662 -0.0262 -0.0009
16279TIP3    H170328   2.581   3.603  16.029 -1.0302 -0.2797  0.0834
16279TIP3    H270329   2.688   3.528  15.952 -0.4139  0.7144 -0.0453
16280TIP3   OH270330   4.699   5.017  11.193 -0.3492 -0.5553  0.3199
16280TIP3    H170331   4.761   5.070  11.144 -1.3856  2.9514  2.3994
16280TIP3    H270332   4.648   4.971  11.126 -0.0724  1.9931 -1.8205
16281TIP3   OH270333   0.439   1.197  15.402  0.0760  0.3543  0.0036
16281TIP3    H170334   0.510   1.154  15.448  0.4670  1.9938  1.0013
16281TIP3    H270335   0.411   1.268  15.460 -1.4293  0.6334 -0.9851
16282TIP3   OH270336   6.102   1.519   4.159 -0.3561  0.0716 -0.0274
16282TIP3    H170337   6.021   1.474   4.184  0.0456  0.4091  2.0812
16282TIP3    H270338   6.134   1.557   4.241  1.2563  1.0592 -1.0690
16283TIP3   OH270339   5.013   5.554  13.671 -0.4677  0.0401  0.0593
16283TIP3    H170340   5.057   5.488  13.617  0.3547 -0.3188  1.1404
16283TIP3    H270341   4.994   5.509  13.754 -0.5112  0.9657  0.5665
16284TIP3   OH270342   6.043   6.489  12.930  0.4255 -0.8614  0.1319
16284TIP3    H170343   6.017   6.551  12.997  1.4105  0.9429 -1.0535
16284TIP3    H270344   5.962   6.447  12.902 -1.0495  2.8721 -1.8373
16285TIP3   OH270345   2.699   3.122  12.024  0.4794  0.2017  0.7946
16285TIP3    H170346   2.710   3.097  11.933 -0.8379  0.9905  0.3868
16285TIP3    H270347   2.725   3.214  12.027  1.8163 -0.1727  1.5190
16286TIP3   OH270348   1.914   3.888  15.566 -0.0891 -0.2289 -0.0960
16286TIP3    H170349   1.944   3.862  15.653  0.5755  1.0322  0.0649
16286TIP3    H270350   1.994   3.894  15.514 -0.4723 -0.8825 -0.7851
16287TIP3   OH270351   6.407   3.601  14.434  0.0791 -0.1017  0.0070
16287TIP3    H170352   6.482   3.635  14.483 -1.1722  2.8985  0.0932
16287TIP3    H270353   6.353   3.557  14.499  0.5923 -0.1246  0.4216
16288TIP3   OH270354   3.403   2.911   3.677 -0.1528 -0.0749 -0.1093
16288TIP3    H170355   3.487   2.877   3.644 -0.1566  0.0874 -0.2886
16288TIP3    H270356   3.395   2.874   3.765  0.2799  0.2081  0.0503
16289TIP3   OH270357   5.706   1.480   0.303 -0.9479  0.3940 -0.2545
16289TIP3    H170358   5.629   1.496   0.357  0.7243  1.4220  2.0561
16289TIP3    H270359   5.712   1.556   0.246 -2.0529 -0.0757 -1.0056
16290TIP3   OH270360   0.515   2.932  12.006  0.2917  0.1192 -0.6113
16290TIP3    H170361   0.588   2.924  11.945 -0.7245  0.2061 -1.8683
16290TIP3    H270362   0.446   2.878  11.969 -0.7115  0.9925 -0.0831
16291TIP3   OH270363   5.303   3.979  13.708  0.1658  0.1899  0.2663
16291TIP3    H170364   5.221   3.971  13.757  0.0006  0.7424  0.0807
16291TIP3    H270365   5.336   3.889  13.703 -1.1997 -0.2751 -0.9932
16292TIP3   OH270366   2.216   0.116   1.278  0.4906 -0.6178  0.2915
16292TIP3    H170367   2.122   0.135   1.270  0.8193  1.0247 -0.2229
16292TIP3    H270368   2.256   0.202   1.292  2.1924 -0.8928 -2.3078
16293TIP3   OH270369   6.412   2.072   2.683 -0.1870  0.3994  0.1761
16293TIP3    H170370   6.451   2.159   2.694  0.3679  0.1549  0.1710
16293TIP3    H270371   6.473   2.013   2.728 -0.2600 -0.0543 -0.3164
16294TIP3   OH270372   2.003   6.658  10.595  0.2487  0.0619  0.6587
16294TIP3    H170373   2.016   6.566  10.572 -1.1343 -0.0520  0.1843
16294TIP3    H270374   1.988   6.701  10.510 -1.7277  0.2214  1.0282
16295TIP3   OH270375   1.298   4.285   4.539  0.1741 -0.0783  0.4915
16295TIP3    H170376   1.391   4.299   4.557 -0.0475  1.2365  0.6698
16295TIP3    H270377   1.290   4.299   4.445  0.1394 -0.1330  0.4861
16296TIP3   OH270378   0.249   4.741  10.755  0.1112  0.1008 -0.1286
16296TIP3    H170379   0.195   4.805  10.708 -2.2238 -0.6180  1.4104
16296TIP3    H270380   0.306   4.705  10.688  0.0699  2.3156 -1.4506
16297TIP3   OH270381   5.952   5.876   3.679  1.4202 -0.3401 -0.1019
16297TIP3    H170382   5.873   5.822   3.683  0.7002  0.7029  0.2879
16297TIP3    H270383   6.004   5.848   3.754  1.1770 -0.6728 -0.0552
16298TIP3   OH270384   6.284   0.973  15.764  0.2272 -0.2733 -0.0956
16298TIP3    H170385   6.234   0.993  15.843 -0.6511 -2.5604 -0.0060
16298TIP3    H270386   6.366   0.936  15.797  0.7800  0.7807 -0.2627
16299TIP3   OH270387   0.763   5.196  15.164  0.4505  0.0352 -0.2755
16299TIP3    H170388   0.799   5.123  15.115 -0.6607  0.4475 -1.7767
16299TIP3    H270389   0.792   5.274  15.116  0.8736  0.5713  0.7917
16300TIP3   OH270390   6.179   3.484   5.420 -0.1628 -0.1564 -0.5077
16300TIP3    H170391   6.228   3.531   5.353  0.6668 -0.7844 -0.3529
16300TIP3    H270392   6.120   3.426   5.371  0.0621 -0.2246 -0.6986
16301TIP3   OH270393   1.984   2.634   1.262  0.0772  0.0871 -0.3146
16301TIP3    H170394   1.935   2.716   1.256  0.1531  0.1405 -0.1965
16301TIP3    H270395   1.976   2.608   1.354  1.1375  0.6256 -0.0527
16302TIP3   OH270396   0.301   5.712   0.146 -0.5736  0.1272  0.2357
16302TIP3    H170397   0.355   5.790   0.134  1.4430 -0.9720  1.6025
16302TIP3    H270398   0.219   5.745   0.182 -0.2407  1.7064 -0.3657
16303TIP3   OH270399   5.765   1.636  15.345  0.2516  0.2682  0.3787
16303TIP3    H170400   5.751   1.687  15.424 -2.1594  0.9618 -0.4123
16303TIP3    H270401   5.804   1.698  15.283 -0.3627  0.4768  0.1961
16304TIP3   OH270402   6.835   5.494   2.142 -0.1191  0.3341  0.7428
16304TIP3    H170403   6.836   5.492   2.238  0.8299 -0.5899  0.7275
16304TIP3    H270404   6.818   5.403   2.117  0.5981  0.3943  0.0273
16305TIP3   OH270405   6.415   3.456   0.701  0.4469  0.3396  0.0080
16305TIP3    H170406   6.393   3.388   0.765  0.7157  0.1698 -0.0777
16305TIP3    H270407   6.380   3.537   0.739 -0.8880 -0.0028 -0.4250
16306TIP3   OH270408   0.492   5.904  12.341 -0.3505 -0.1421 -0.1058
16306TIP3    H170409   0.410   5.876  12.299  0.7327 -3.1087 -0.5430
16306TIP3    H270410   0.544   5.942  12.269  0.4352 -2.7180 -1.0255
16307TIP3   OH270411   6.642   4.472  11.405 -0.5785 -0.0621  0.8690
16307TIP3    H170412   6.619   4.425  11.325 -0.9643  0.2161  0.8143
16307TIP3    H270413   6.613   4.562  11.389 -0.4925  0.0363  1.2535
16308TIP3   OH270414   2.939   2.153   0.370  0.5178 -0.3229  0.7263
16308TIP3    H170415   2.952   2.122   0.459 -0.4251 -0.1375  0.9472
16308TIP3    H270416   2.844   2.161   0.362  0.6753  2.8100  0.7923
16309TIP3   OH270417   3.562   0.328   3.391  0.5191 -0.0801  0.4194
16309TIP3    H170418   3.643   0.280   3.411  0.3681 -0.5498 -0.0726
16309TIP3    H270419   3.503   0.261   3.357  0.2160  0.4173 -0.0294
16310TIP3   OH270420   3.239   4.583   2.833 -0.1819  0.4140  0.0987
16310TIP3    H170421   3.277   4.564   2.918 -0.2907 -0.3455 -0.0185
16310TIP3    H270422   3.254   4.677   2.821  2.7425 -0.0251 -0.4692
16311TIP3   OH270423   0.401   1.056  11.965  0.0308  0.0921 -0.1711
16311TIP3    H170424   0.469   0.990  11.976  1.2127  1.2260 -0.4166
16311TIP3    H270425   0.382   1.057  11.871  0.4665  0.5165 -0.2604
16312TIP3   OH270426   6.241   5.860   5.228  0.2699 -0.2892 -0.2174
16312TIP3    H170427   6.246   5.879   5.321  1.0229 -1.2631 -0.0422
16312TIP3    H270428   6.153   5.888   5.202  0.2998  0.6265  0.6234
16313TIP3   OH270429   4.408   5.000  12.452 -0.3134 -0.0522 -0.1794
16313TIP3    H170430   4.353   5.050  12.513  0.6967  0.0687  0.6750
16313TIP3    H270431   4.359   4.920  12.436 -0.8996  0.2040  0.2750
16314TIP3   OH270432   1.087   5.375  15.086  0.0679 -0.7914  0.9116
16314TIP3    H170433   1.017   5.360  15.150 -0.6335  1.2391  0.6985
16314TIP3    H270434   1.121   5.462  15.108  1.1639 -0.8939 -0.2602
16315TIP3   OH270435   3.836   1.233   4.044  0.5755  0.3671 -0.0054
16315TIP3    H170436   3.777   1.158   4.033  1.4692 -0.6788  1.8054
16315TIP3    H270437   3.793   1.288   4.110 -0.5762  2.0589 -2.0628
16316TIP3   OH270438   4.824   6.682   1.465  0.7055  0.0517 -0.3388
16316TIP3    H170439   4.792   6.736   1.537  0.1286  0.0414 -0.5801
16316TIP3    H270440   4.849   6.600   1.506  1.0207  0.2898 -0.0533
16317TIP3   OH270441   1.374   5.330   2.358 -0.2078  0.0960  0.2158
16317TIP3    H170442   1.403   5.383   2.284  1.2652 -2.4239 -1.1603
16317TIP3    H270443   1.433   5.353   2.430  0.2880  0.4460 -0.2971
16318TIP3   OH270444   5.760   5.754   0.055  0.4470 -0.3330  0.3497
16318TIP3    H170445   5.683   5.758   0.111  0.3962  0.9524  0.2108
16318TIP3    H270446   5.832   5.732   0.114  0.0658 -1.0285  0.5621
16319TIP3   OH270447   2.203   3.712  12.613 -0.6635 -0.3982  0.0111
16319TIP3    H170448   2.241   3.711  12.525 -2.8689 -0.3032 -1.0177
16319TIP3    H270449   2.188   3.620  12.634  2.6731 -0.7048  1.7028
16320TIP3   OH270450   0.856   3.142  13.294 -0.0323 -0.3720 -0.1113
16320TIP3    H170451   0.851   3.125  13.388 -0.0651 -1.1853 -0.2557
16320TIP3    H270452   0.937   3.100  13.266 -0.4125 -0.8048 -0.5846
16321TIP3   OH270453   0.080   4.207   5.963  0.5156  0.3523 -0.6006
16321TIP3    H170454   0.152   4.266   5.940  2.0552  0.7554  4.1228
16321TIP3    H270455   0.121   4.123   5.978 -0.1548  0.2867  1.0421
16322TIP3   OH270456   6.400   2.735  14.412 -0.2887  0.2405 -0.1084
16322TIP3    H170457   6.452   2.696  14.483  0.7825 -2.3048 -2.1082
16322TIP3    H270458   6.366   2.659  14.364 -4.8025  1.7921  0.2348
16323TIP3   OH270459   2.826   4.008  11.053 -0.3863  0.2416 -0.2469
16323TIP3    H170460   2.829   3.937  10.989 -3.2632  0.8661 -1.2157
16323TIP3    H270461   2.865   4.083  11.007  1.8068 -0.3672  0.4620
16324TIP3   OH270462   4.994   6.470   2.591 -0.5755 -0.7544 -0.4761
16324TIP3    H170463   4.927   6.417   2.634  0.2429 -0.4699  1.2257
16324TIP3    H270464   4.954   6.557   2.582 -0.3712 -0.5067  0.8040
16325TIP3   OH270465   6.286   2.685  14.701  0.4887 -0.8027  0.3429
16325TIP3    H170466   6.220   2.677  14.632  0.4962 -0.6502  0.3176
16325TIP3    H270467   6.243   2.738  14.769  0.8444 -0.0622  0.0021
16326TIP3   OH270468   0.755   2.404  13.007 -0.1419 -0.3969  0.3909
16326TIP3    H170469   0.782   2.496  13.004  1.1001 -0.7461 -0.0917
16326TIP3    H270470   0.683   2.401  13.069 -0.4309  0.9590  0.1361
16327TIP3   OH270471   4.553   5.764   2.913  0.0144 -0.4644 -0.5255
16327TIP3    H170472   4.643   5.779   2.945  0.5703 -2.9170 -0.7374
16327TIP3    H270473   4.499   5.769   2.992  0.9061 -2.8605  0.3301
16328TIP3   OH270474   0.871   5.094   5.794 -0.6752 -0.0110  0.3436
16328TIP3    H170475   0.927   5.141   5.732 -1.2894 -0.1126 -0.2984
16328TIP3    H270476   0.802   5.156   5.817 -2.4605 -1.0574 -1.7922
16329TIP3   OH270477   2.788   5.961   4.275 -0.5555  0.8668 -0.7601
16329TIP3    H170478   2.835   6.014   4.339  1.0574 -0.5858 -0.6880
16329TIP3    H270479   2.837   5.973   4.193  0.2768 -0.9983 -0.5863
16330TIP3   OH270480   2.269   1.765  14.530 -0.0373 -0.1150  0.1097
16330TIP3    H170481   2.364   1.758  14.521  0.0897 -0.8065  1.6188
16330TIP3    H270482   2.248   1.712  14.607 -1.6562 -0.0025 -0.2085
16331TIP3   OH270483   1.256   3.319   0.423  0.2574 -0.9327 -0.1826
16331TIP3    H170484   1.165   3.351   0.421  0.6481  0.1793 -0.9600
16331TIP3    H270485   1.310   3.398   0.421  1.2521 -1.6042 -0.5937
16332TIP3   OH270486   4.099   6.472   1.588 -0.4716 -0.6935 -0.2161
16332TIP3    H170487   4.116   6.560   1.621  0.1519 -0.3148 -1.4882
16332TIP3    H270488   4.185   6.431   1.580 -0.6401 -0.9404 -0.8791
16333TIP3   OH270489   2.301   0.635   4.838  0.2128  0.5510  0.9001
16333TIP3    H170490   2.240   0.707   4.849  0.3283  0.6529  0.8768
16333TIP3    H270491   2.286   0.578   4.913 -0.4061  0.2119  0.5344
16334TIP3   OH270492   3.825   4.115  15.665  0.6583 -0.1430  0.4409
16334TIP3    H170493   3.773   4.035  15.666  1.0659 -0.4283 -0.4605
16334TIP3    H270494   3.828   4.141  15.573  2.2071 -0.2050  0.4521
16335TIP3   OH270495   0.433   4.887   4.955 -0.0785 -0.4200  0.8323
16335TIP3    H170496   0.499   4.822   4.933  0.8922 -0.2479  2.9699
16335TIP3    H270497   0.433   4.890   5.050 -2.3393  0.4732  0.8624
16336TIP3   OH270498   1.963   6.189  13.146 -0.2863 -0.4430 -0.2602
16336TIP3    H170499   1.939   6.097  13.156  0.0732 -0.7547 -1.9984
16336TIP3    H270500   1.904   6.235  13.206 -0.4428 -1.7809  0.6766
16337TIP3   OH270501   4.488   0.070  15.866  0.3155  0.5551 -0.3756
16337TIP3    H170502   4.497   0.165  15.870  2.2374  0.3909  0.4107
16337TIP3    H270503   4.569   0.040  15.824 -0.9530 -0.6632 -2.0846
16338TIP3   OH270504   6.122   6.631  11.378 -0.2752  0.0757 -0.3391
16338TIP3    H170505   6.107   6.680  11.297 -0.6785  2.3556  1.0287
16338TIP3    H270506   6.089   6.688  11.447 -0.8426 -2.1908  1.3987
16339TIP3   OH270507   2.498   3.386   1.284  0.1729  0.7134 -0.0135
16339TIP3    H170508   2.440   3.459   1.306 -3.6995 -2.3286  1.0568
16339TIP3    H270509   2.493   3.379   1.189 -1.3941  0.5002  0.0537
16340TIP3   OH270510   4.285   5.861  15.605 -0.0835 -0.7405  0.0739
16340TIP3    H170511   4.217   5.856  15.672  0.2689 -0.9637  0.4254
16340TIP3    H270512   4.347   5.926  15.640  0.5214 -1.4519  0.3694
16341TIP3   OH270513   2.863   4.701   4.290  0.1626  0.6137  0.1317
16341TIP3    H170514   2.846   4.710   4.197 -0.8445  0.4992  0.2951
16341TIP3    H270515   2.854   4.607   4.307  1.3056  0.4987  0.1715
16342TIP3   OH270516   6.473   5.250  16.409 -0.1266 -0.4059 -0.1277
16342TIP3    H170517   6.537   5.288  16.469  0.4234 -0.2736 -0.7878
16342TIP3    H270518   6.457   5.162  16.443 -0.5844  0.0166  0.7840
16343TIP3   OH270519   6.635   3.900  14.563  0.1903 -0.4824  0.0901
16343TIP3    H170520   6.628   3.813  14.602  0.6648 -0.9340 -0.7898
16343TIP3    H270521   6.635   3.884  14.468  1.1591  0.3908 -0.0790
16344TIP3   OH270522   6.370   4.332  13.954  0.8285  0.0858 -0.1790
16344TIP3    H170523   6.325   4.255  13.921 -0.8525  0.8939  0.0951
16344TIP3    H270524   6.452   4.335  13.905  0.0548 -0.7833 -1.6017
16345TIP3   OH270525   1.564   2.102   2.851  0.4295  0.5777  0.2072
16345TIP3    H170526   1.657   2.098   2.828  0.3088  0.2277 -0.2369
16345TIP3    H270527   1.520   2.123   2.768  0.0319 -0.1892  0.2137
16346TIP3   OH270528   6.832   4.784   1.114 -0.2085  0.5562  0.2507
16346TIP3    H170529   6.743   4.817   1.101 -0.7005 -0.9000 -0.2502
16346TIP3    H270530   6.821   4.703   1.164  0.6605 -0.5912 -1.3251
16347TIP3   OH270531   3.996   1.131  11.998 -0.1091  0.4167  0.0541
16347TIP3    H170532   4.032   1.141  11.909 -2.6878  1.1270 -0.9827
16347TIP3    H270533   3.908   1.097  11.985  0.8795 -4.0553  2.5967
16348TIP3   OH270534   1.442   4.836  11.150  0.0222 -0.6866 -0.3978
16348TIP3    H170535   1.423   4.928  11.134  1.7374 -0.4663 -1.4939
16348TIP3    H270536   1.407   4.819  11.237  0.9230  1.4098  0.4469
16349TIP3   OH270537   4.222   6.524   5.847  0.5603 -0.0914 -0.1299
16349TIP3    H170538   4.250   6.443   5.891  0.9597  0.9539  1.6343
16349TIP3    H270539   4.244   6.510   5.755 -0.1105 -2.3014 -0.0364
16350TIP3   OH270540   4.139   0.885  11.919  0.1947  0.0524 -0.5371
16350TIP3    H170541   4.080   0.924  11.983  1.0770  0.7681 -0.1313
16350TIP3    H270542   4.177   0.809  11.964  1.0281  0.7182 -0.0828
16351TIP3   OH270543   6.846   5.667   2.800  0.1746 -0.4393 -0.8873
16351TIP3    H170544   6.940   5.687   2.800  0.3542 -1.2347 -1.1005
16351TIP3    H270545   6.834   5.611   2.723 -0.3862 -0.7276 -0.5932
16352TIP3   OH270546   2.498   6.172   1.829 -0.1443 -0.1172  0.0584
16352TIP3    H170547   2.452   6.089   1.826 -1.1000  0.4038  0.0313
16352TIP3    H270548   2.509   6.197   1.738 -0.8666  0.3279  0.0886
16353TIP3   OH270549   5.163   3.260   2.243 -0.2037  0.2464 -0.0055
16353TIP3    H170550   5.244   3.290   2.204 -0.1370 -1.5251 -1.3734
16353TIP3    H270551   5.187   3.180   2.290 -0.9325  0.4116  0.6721
16354TIP3   OH270552   2.266   4.688  11.145  0.4490 -0.7354  0.1261
16354TIP3    H170553   2.241   4.680  11.053 -0.1414  1.3397  0.0747
16354TIP3    H270554   2.361   4.681  11.144  0.6752  1.6725 -0.9862
16355TIP3   OH270555   5.568   3.421  16.677 -0.5256 -0.3362  0.0554
16355TIP3    H170556   5.482   3.405  16.714 -0.8593 -0.4943 -0.7574
16355TIP3    H270557   5.559   3.502  16.627  1.1776  2.7353  4.1973
16356TIP3   OH270558   2.735   2.543  12.160 -0.0219 -0.7629 -0.0446
16356TIP3    H170559   2.753   2.630  12.196  0.4963 -0.5515 -0.8109
16356TIP3    H270560   2.662   2.557  12.099 -0.3057 -0.9690  0.2415
16357TIP3   OH270561   0.198   6.608   4.697 -0.2385 -0.0873 -0.3357
16357TIP3    H170562   0.184   6.549   4.622  0.7113 -0.5270 -0.1795
16357TIP3    H270563   0.111   6.644   4.715 -0.3750  0.5613 -2.0938
16358TIP3   OH270564   3.073   4.495   2.158  0.1219  0.4011  0.2978
16358TIP3    H170565   3.133   4.458   2.093  1.3146  0.2796  1.4350
16358TIP3    H270566   3.126   4.558   2.206 -0.2918 -0.6129  2.1704
16359TIP3   OH270567   5.716   4.028  14.829  0.0722  0.4487  0.3404
16359TIP3    H170568   5.802   4.052  14.795 -0.6025  0.9038 -1.1150
16359TIP3    H270569   5.695   4.097  14.892  0.4644  0.7299  0.1690
16360TIP3   OH270570   3.814   4.807   3.468  0.3917  0.1870 -0.2071
16360TIP3    H170571   3.831   4.757   3.548 -0.1298  1.0085  0.4418
16360TIP3    H270572   3.876   4.880   3.472 -0.0384  0.5630 -0.2343
16361TIP3   OH270573   2.810   5.790  11.950 -0.5145 -0.2384 -0.5261
16361TIP3    H170574   2.847   5.872  11.917  1.4141 -0.2332  1.3863
16361TIP3    H270575   2.720   5.812  11.973 -0.2108  1.2054 -0.6043
16362TIP3   OH270576   6.761   4.756   5.420 -0.8539 -0.4200  0.6838
16362TIP3    H170577   6.695   4.820   5.392 -1.8382 -0.9138  1.7894
16362TIP3    H270578   6.780   4.705   5.341  0.7137  1.8254 -0.4967
16363TIP3   OH270579   1.515   6.670   3.549  0.1143 -0.8410 -0.2276
16363TIP3    H170580   1.548   6.758   3.566 -0.3131 -0.5073 -1.0384
16363TIP3    H270581   1.429   6.684   3.509  0.3282 -1.5976 -0.9825
16364TIP3   OH270582   1.139   6.155  11.635 -0.1354  0.7735 -0.0593
16364TIP3    H170583   1.197   6.110  11.573 -0.1413  0.4626  0.1560
16364TIP3    H270584   1.099   6.084  11.685  1.0550  1.0646  1.3672
16365TIP3   OH270585   2.952   4.775   2.645  0.1438 -0.2601  0.1491
16365TIP3    H170586   2.919   4.708   2.705 -3.2227  1.7421  0.7569
16365TIP3    H270587   2.960   4.854   2.698 -0.6367  0.9982 -1.5114
16366TIP3   OH270588   2.365   2.354  10.589  0.5565 -0.5188 -0.5866
16366TIP3    H170589   2.415   2.413  10.532  0.6028  0.4515  0.4235
16366TIP3    H270590   2.416   2.273  10.591  1.2950 -0.0653 -0.7800
16367TIP3   OH270591   4.523   5.587  13.594  0.6220 -0.0892 -0.0362
16367TIP3    H170592   4.504   5.604  13.501  0.4392  1.1302  0.2143
16367TIP3    H270593   4.619   5.586  13.598  0.6407 -0.7611 -0.3265
16368TIP3   OH270594   0.491   5.115  16.938 -0.2724 -0.2241 -0.1432
16368TIP3    H170595   0.548   5.100  16.862 -1.2095  0.4312 -1.0119
16368TIP3    H270596   0.506   5.207  16.961  0.9352 -0.7478  1.2829
16369TIP3   OH270597   0.363   1.995  16.369 -0.3048 -0.2775  0.3253
16369TIP3    H170598   0.291   1.933  16.381  1.1552 -2.4439 -1.3222
16369TIP3    H270599   0.408   1.996  16.453 -0.7157 -1.0227  0.5656
16370TIP3   OH270600   3.239   3.315  16.064 -0.5075 -0.2874 -0.3802
16370TIP3    H170601   3.333   3.329  16.081 -0.0480 -2.9918 -0.2901
16370TIP3    H270602   3.195   3.381  16.117  1.2447 -1.5301  2.9180
16371TIP3   OH270603   3.245   4.652  15.449 -0.1937  0.9729  0.1990
16371TIP3    H170604   3.248   4.685  15.360 -0.4253  1.7965  0.4813
16371TIP3    H270605   3.336   4.655  15.479  0.1627 -0.9466 -0.5596
16372TIP3   OH270606   1.614   5.891  15.500 -0.0851 -0.3860 -0.4874
16372TIP3    H170607   1.588   5.974  15.539  0.5517 -0.4231  0.0408
16372TIP3    H270608   1.644   5.914  15.412  2.4520  0.3487  0.4936
16373TIP3   OH270609   2.988   5.810   0.694  0.9831 -0.1426  0.2782
16373TIP3    H170610   3.029   5.740   0.745 -0.3263 -0.7452  0.5417
16373TIP3    H270611   2.924   5.850   0.754  1.1367  0.7477 -0.1275
16374TIP3   OH270612   1.840   3.385  17.007 -0.2356 -0.0697  0.2896
16374TIP3    H170613   1.792   3.453  16.959 -1.9630 -0.4745  1.3595
16374TIP3    H270614   1.777   3.352  17.071  1.1751 -1.3705  1.0668
16375TIP3   OH270615   6.543   5.882  15.014 -0.2376 -0.0276 -0.2957
16375TIP3    H170616   6.508   5.794  15.026  0.9775 -0.4108  0.6293
16375TIP3    H270617   6.500   5.914  14.934 -0.5801 -1.5107 -0.7377
16376TIP3   OH270618   1.784   2.761  14.882  0.4672 -0.0769 -0.4704
16376TIP3    H170619   1.866   2.725  14.848 -0.3151  0.6568 -3.3710
16376TIP3    H270620   1.721   2.750  14.811 -1.5354  0.9259  1.0442
16377TIP3   OH270621   0.903   6.617  13.153 -0.6387 -0.8839 -0.3051
16377TIP3    H170622   0.920   6.678  13.081  2.2955  1.3281  2.0244
16377TIP3    H270623   0.972   6.552  13.145  1.3170  0.7911  1.7830
16378TIP3   OH270624   5.385   1.790   3.836  0.0187 -0.4113 -0.1438
16378TIP3    H170625   5.418   1.850   3.769  1.3028 -0.5124  0.3870
16378TIP3    H270626   5.462   1.760   3.882 -0.7127 -1.5912  0.3599
16379TIP3   OH270627   5.712   6.193   3.035  0.0181  0.3741  0.0700
16379TIP3    H170628   5.807   6.202   3.047  0.1520 -1.5616  0.7585
16379TIP3    H270629   5.677   6.185   3.124 -0.5031 -1.1817 -0.2510
16380TIP3   OH270630   5.781   0.406  11.378 -0.7174  0.8071 -0.0031
16380TIP3    H170631   5.863   0.456  11.370  1.1859 -1.9922  0.5772
16380TIP3    H270632   5.734   0.424  11.296  1.7408  0.4846 -1.5924
16381TIP3   OH270633   4.448   3.062  10.776  0.2243 -0.0798  0.0961
16381TIP3    H170634   4.532   3.090  10.741  1.2414 -0.9975  1.6920
16381TIP3    H270635   4.461   2.971  10.802 -1.2158 -0.2021  0.4997
16382TIP3   OH270636   6.438   1.143   5.650 -0.1772  0.8973 -0.1169
16382TIP3    H170637   6.495   1.132   5.573 -0.8162  2.6987 -0.9108
16382TIP3    H270638   6.495   1.124   5.724  0.0024 -2.8159 -0.9733
16383TIP3   OH270639   4.245   2.885   1.520  0.4947 -0.3824  0.1673
16383TIP3    H170640   4.251   2.790   1.512  1.1658 -0.4832  1.5573
16383TIP3    H270641   4.172   2.899   1.581 -3.7005  0.2872 -4.3570
16384TIP3   OH270642   5.613   6.305   1.330 -0.5503 -0.8885 -0.0588
16384TIP3    H170643   5.668   6.229   1.349  3.1523  1.6101  0.3179
16384TIP3    H270644   5.593   6.296   1.236  0.4466 -1.9641 -0.1996
16385TIP3   OH270645   3.069   4.424   6.467 -0.3862 -0.2256  0.6288
16385TIP3    H170646   3.003   4.409   6.534  0.0952 -0.5569  1.0319
16385TIP3    H270647   3.135   4.480   6.509  0.3361 -1.1194  0.7120
16386TIP3   OH270648   2.013   5.121  15.590 -0.0063  0.0382  0.0435
16386TIP3    H170649   2.082   5.144  15.528  1.1563 -1.1118  0.8389
16386TIP3    H270650   1.936   5.105  15.535  0.9421 -0.8064 -1.1043
16387TIP3   OH270651   4.666   1.862   2.877 -0.3516 -0.1166  0.4964
16387TIP3    H170652   4.682   1.917   2.800  0.5314  0.7711  1.2816
16387TIP3    H270653   4.588   1.899   2.918 -0.5122 -0.2560  0.3148
16388TIP3   OH270654   0.560   1.273   2.965 -0.2068  0.2678  0.8746
16388TIP3    H170655   0.620   1.246   3.033  1.9409  0.4259 -0.8444
16388TIP3    H270656   0.578   1.366   2.952 -2.6430  0.9924  1.9950
16389TIP3   OH270657   0.584   5.973   3.223  0.2493 -0.3871  0.0642
16389TIP3    H170658   0.635   5.892   3.223  0.4709 -0.2570  0.8744
16389TIP3    H270659   0.606   6.015   3.140  0.5311 -0.9037 -0.1295
16390TIP3   OH270660   3.280   3.510  12.898  0.2398  0.2626  0.2112
16390TIP3    H170661   3.298   3.601  12.877  1.6171 -0.0386 -0.0238
16390TIP3    H270662   3.288   3.504  12.993 -0.8665  0.5775  0.3371
16391TIP3   OH270663   2.287   0.626   1.060 -0.0341 -0.3375  0.1750
16391TIP3    H170664   2.285   0.532   1.038  0.5090 -0.0408 -1.2590
16391TIP3    H270665   2.195   0.652   1.062 -0.1824 -0.8693  0.4518
16392TIP3   OH270666   2.414   5.305  12.030 -0.0397  0.0687  0.0138
16392TIP3    H170667   2.489   5.342  12.077  0.5459 -0.3449 -0.5756
16392TIP3    H270668   2.453   5.259  11.956 -0.8031 -1.0932  0.3180
16393TIP3   OH270669   5.292   5.649   1.130 -0.7111  0.3201 -0.3483
16393TIP3    H170670   5.203   5.684   1.135 -0.3686  1.0614  2.4453
16393TIP3    H270671   5.280   5.554   1.124 -1.6614  0.5195 -1.9635
16394TIP3   OH270672   4.113   5.040  14.836  0.3149 -0.1561  0.2381
16394TIP3    H170673   4.175   5.077  14.773  0.5689 -0.7765  0.1179
16394TIP3    H270674   4.039   5.101  14.835  0.8508  0.5065  0.2709
16395TIP3   OH270675   3.556   1.015   1.042 -0.4011  0.9661 -0.0094
16395TIP3    H170676   3.590   1.065   0.968  1.6028 -1.4576 -0.8770
16395TIP3    H270677   3.577   0.924   1.021 -1.1246  0.0228  2.8710
16396TIP3   OH270678   2.890   6.661  15.957 -0.7441 -0.1262 -0.1477
16396TIP3    H170679   2.961   6.673  15.894 -0.2647  2.3846  0.7583
16396TIP3    H270680   2.929   6.613  16.029  0.1372  1.4036  0.4259
16397TIP3   OH270681   4.859   3.516   5.163  0.1606 -0.2169  0.1376
16397TIP3    H170682   4.776   3.476   5.188 -1.3831  1.7163 -1.4995
16397TIP3    H270683   4.920   3.443   5.155 -0.9114 -1.5370  2.9041
16398TIP3   OH270684   0.208   3.574  11.813 -0.1108  0.6093 -0.0202
16398TIP3    H170685   0.163   3.539  11.890  1.1550  1.7275  1.2835
16398TIP3    H270686   0.224   3.666  11.834  1.1095  0.7126 -1.2330
16399TIP3   OH270687   5.227   5.187   4.310 -0.3020  0.1337 -0.4178
16399TIP3    H170688   5.209   5.113   4.368 -0.2496  1.9171  1.9793
16399TIP3    H270689   5.179   5.260   4.348  1.6261  1.9345 -1.2706
16400TIP3   OH270690   2.180   4.876  14.909  0.0819 -0.2679  0.1063
16400TIP3    H170691   2.274   4.859  14.904  0.2348  0.7807 -1.9663
16400TIP3    H270692   2.140   4.806  14.858 -0.1714 -0.1314  0.1151
16401TIP3   OH270693   5.832   3.433   4.406  0.5412  0.1737  0.3332
16401TIP3    H170694   5.846   3.367   4.338 -1.8753 -1.4298  1.2722
16401TIP3    H270695   5.888   3.405   4.478  2.1805  1.2034 -0.4650
16402TIP3   OH270696   3.897   0.051  13.594  0.2165 -0.0320 -0.0972
16402TIP3    H170697   3.914  -0.042  13.611 -0.2262  0.2254  1.9517
16402TIP3    H270698   3.802   0.059  13.599  0.1704  0.3852 -1.2694
16403TIP3   OH270699   5.395   5.091   4.611 -0.1558 -0.2883 -0.1538
16403TIP3    H170700   5.347   5.166   4.576  3.5167  2.2410 -0.3119
16403TIP3    H270701   5.377   5.094   4.705 -0.7474  0.2655 -0.2727
16404TIP3   OH270702   3.137   3.372   6.403 -0.3161 -0.0752  0.0933
16404TIP3    H170703   3.053   3.356   6.359 -0.8922  0.0648  1.1081
16404TIP3    H270704   3.125   3.338   6.491  0.3999  0.7299  0.5229
16405TIP3   OH270705   0.620   4.329   1.730  0.1059  0.2986  0.5155
16405TIP3    H170706   0.622   4.235   1.714  0.6061  0.4782 -0.5660
16405TIP3    H270707   0.689   4.344   1.794  2.7505  0.3876 -2.1587
16406TIP3   OH270708   0.005   0.409   3.601 -0.1775  0.0320 -0.1557
16406TIP3    H170709  -0.064   0.475   3.604 -0.6047 -0.4245  1.8960
16406TIP3    H270710   0.059   0.428   3.678 -0.8037 -2.4601  1.0056
16407TIP3   OH270711   6.529   2.976   4.789 -0.2267  0.4431  0.5497
16407TIP3    H170712   6.597   2.916   4.757  0.4220  0.8986  1.0661
16407TIP3    H270713   6.577   3.053   4.819 -1.0919  1.4335 -0.5478
16408TIP3   OH270714   5.920   3.473   6.320  0.2157  0.8311 -0.0866
16408TIP3    H170715   5.863   3.482   6.396  0.1548 -2.8281  0.4915
16408TIP3    H270716   6.009   3.484   6.354  0.1802 -0.6573  0.5783
16409TIP3   OH270717   5.858   6.286   1.680 -0.1419 -0.3962  0.1557
16409TIP3    H170718   5.823   6.363   1.723  1.0687  0.2857 -0.0217
16409TIP3    H270719   5.949   6.281   1.711  0.9490  0.4091 -2.6118
16410TIP3   OH270720   0.001   3.280   6.512  0.7475  0.0936 -0.4880
16410TIP3    H170721   0.089   3.243   6.505  1.2252  1.2106 -0.6648
16410TIP3    H270722  -0.031   3.250   6.597  1.1900 -0.5342 -0.5378
16411TIP3   OH270723   4.558   6.322  12.122 -0.1170  0.2191 -0.3083
16411TIP3    H170724   4.464   6.338  12.116  0.0276  1.1083 -0.2186
16411TIP3    H270725   4.599   6.400  12.087  0.6145  0.8540  1.7853
16412TIP3   OH270726   3.192   5.532  12.168  0.9021 -0.7511 -0.8798
16412TIP3    H170727   3.124   5.531  12.100  0.2024  0.3445 -0.2325
16412TIP3    H270728   3.210   5.440  12.185 -0.2177 -1.0631 -1.2731
16413TIP3   OH270729   5.784   0.225  16.751 -0.3331 -0.0246 -0.0827
16413TIP3    H170730   5.818   0.138  16.729  0.8991  0.0191  1.5062
16413TIP3    H270731   5.726   0.247  16.677  0.4988 -1.5272 -1.2458
16414TIP3   OH270732   0.042   6.329  12.492  0.0047 -0.1283 -0.2418
16414TIP3    H170733  -0.034   6.328  12.549 -0.6260  0.5363 -1.0361
16414TIP3    H270734   0.096   6.401  12.525 -0.2573  0.1199 -0.3528
16415TIP3   OH270735   4.937   6.603   1.169  0.4552 -0.9941  0.4203
16415TIP3    H170736   4.995   6.658   1.116  2.1443 -1.2934  1.8359
16415TIP3    H270737   4.905   6.661   1.238 -0.8585 -0.8751 -0.2526
16416TIP3   OH270738   0.655   4.027   5.365 -0.2189 -0.0503  0.0493
16416TIP3    H170739   0.689   4.025   5.276 -1.8320 -1.1714 -0.5856
16416TIP3    H270740   0.578   4.083   5.361 -1.3722 -1.5566  0.2789
16417TIP3   OH270741   5.771   4.794  11.990 -0.6456 -0.2835  0.1651
16417TIP3    H170742   5.822   4.821  11.914 -0.2850 -0.0824  0.4788
16417TIP3    H270743   5.690   4.758  11.953  0.1679 -1.6135 -0.3871
16418TIP3   OH270744   1.828   6.702   5.320 -0.4646  0.2491 -0.2315
16418TIP3    H170745   1.766   6.766   5.356  0.3314  0.8796  0.0347
16418TIP3    H270746   1.912   6.725   5.359  0.1944  0.2203 -1.5821
16419TIP3   OH270747   5.927   1.078  16.375  0.6045 -0.1348  0.1964
16419TIP3    H170748   5.896   0.998  16.419  1.4582 -0.8379 -0.4418
16419TIP3    H270749   5.987   1.118  16.438  1.1452 -0.6746  0.0395
16420TIP3   OH270750   4.145   4.281   5.296  0.7294  0.2667 -0.2022
16420TIP3    H170751   4.071   4.222   5.284  2.3248 -1.9171  0.0584
16420TIP3    H270752   4.181   4.258   5.382  0.0570  3.3131  1.0275
16421TIP3   OH270753   0.565   0.446  12.914 -0.0790 -0.2964  0.2180
16421TIP3    H170754   0.556   0.366  12.966  0.5195 -0.4214  0.1425
16421TIP3    H270755   0.647   0.485  12.946 -2.0595  2.1656  2.7896
16422TIP3   OH270756   1.013   4.397  11.270 -0.4116 -0.2605 -0.3263
16422TIP3    H170757   1.074   4.415  11.198 -0.6276  0.3131 -0.3701
16422TIP3    H270758   0.944   4.345  11.229 -0.4610 -0.0570 -0.5017
16423TIP3   OH270759   2.901   3.633  11.182  0.1466  0.6756 -0.2814
16423TIP3    H170760   2.975   3.575  11.163 -1.3609 -1.7622  0.8458
16423TIP3    H270761   2.828   3.596  11.132 -0.7579  1.8997  0.0961
16424TIP3   OH270762   1.156   3.468  14.414  0.1273 -0.4375  0.2941
16424TIP3    H170763   1.137   3.559  14.395 -0.3668 -0.6150 -0.0527
16424TIP3    H270764   1.200   3.435  14.336 -0.3499 -0.6936  0.1307
16425TIP3   OH270765   2.125   5.560   3.033  0.1889 -0.5491 -0.2088
16425TIP3    H170766   2.174   5.637   3.063 -0.2356 -0.7029  0.9412
16425TIP3    H270767   2.069   5.537   3.108  0.4652 -2.1057 -0.4558
16426TIP3   OH270768   1.694   1.933   5.307  0.2587  0.2799 -0.1874
16426TIP3    H170769   1.638   2.010   5.301 -1.0318 -0.7287 -2.0166
16426TIP3    H270770   1.749   1.936   5.228  0.3823 -0.5215 -0.1450
16427TIP3   OH270771   1.102   3.605  14.869 -0.0001 -0.0960 -0.2917
16427TIP3    H170772   1.017   3.646  14.853  0.7865  1.3484 -1.0052
16427TIP3    H270773   1.108   3.537  14.802 -0.3586  0.1658 -0.5949
16428TIP3   OH270774   2.146   6.454   3.310  0.5850  0.1438 -0.2968
16428TIP3    H170775   2.071   6.395   3.303 -2.0559  3.1308  0.4152
16428TIP3    H270776   2.145   6.505   3.230  1.6376  0.5223 -0.0917
16429TIP3   OH270777   5.017   0.751  15.297 -0.1314  0.3772  0.0460
16429TIP3    H170778   4.946   0.804  15.334 -0.0872  0.1963  0.3947
16429TIP3    H270779   4.987   0.661  15.305  1.4114 -0.0028  3.1495
16430TIP3   OH270780   4.732   6.281   5.292 -0.0180  0.4778  0.0625
16430TIP3    H170781   4.680   6.247   5.219 -0.5749 -1.1058  1.1471
16430TIP3    H270782   4.816   6.237   5.285  0.2427  0.9887 -0.1070
16431TIP3   OH270783   0.469   5.873  10.543  0.2192  0.5102  0.0029
16431TIP3    H170784   0.490   5.967  10.544  0.6297  0.4646  2.3625
16431TIP3    H270785   0.386   5.867  10.591  0.3619 -0.3678  0.1480
16432TIP3   OH270786   0.359   4.081   1.810  0.9735 -0.0432 -0.1454
16432TIP3    H170787   0.307   4.156   1.781 -0.7468 -1.8212 -2.0003
16432TIP3    H270788   0.301   4.032   1.868  1.2465 -1.0080 -0.6502
16433TIP3   OH270789   3.734   0.319   4.128  0.6288 -0.5841 -0.5959
16433TIP3    H170790   3.678   0.242   4.122  0.2069 -0.3290 -0.0773
16433TIP3    H270791   3.714   0.370   4.050 -0.9139  0.1797  0.2400
16434TIP3   OH270792   0.074   3.084   2.632 -0.1089  0.2892 -0.1004
16434TIP3    H170793   0.080   2.994   2.663 -1.8048  0.1761 -0.0373
16434TIP3    H270794   0.048   3.134   2.709  1.9784  1.0726  0.1662
16435TIP3   OH270795   2.267   1.369   5.152 -0.4841 -0.2698  0.5220
16435TIP3    H170796   2.321   1.447   5.165 -0.2472 -0.1847 -0.8870
16435TIP3    H270797   2.297   1.308   5.220 -0.6334  0.8124  1.6015
16436TIP3   OH270798   4.047   0.904   2.860 -0.0150  0.5708  0.1438
16436TIP3    H170799   3.959   0.916   2.824 -0.0551  0.8922  0.3435
16436TIP3    H270800   4.059   0.809   2.864 -0.3864  0.5262  0.2035
16437TIP3   OH270801   0.379   2.536  14.782  0.4700  0.7535 -0.5707
16437TIP3    H170802   0.442   2.501  14.845  0.5926  1.8269 -0.0641
16437TIP3    H270803   0.324   2.462  14.758  2.1750 -0.3168 -1.3511
16438TIP3   OH270804   5.633   2.940   3.110 -0.1166  0.2106 -0.0180
16438TIP3    H170805   5.674   3.007   3.054 -2.8118  0.7193 -1.5792
16438TIP3    H270806   5.563   2.904   3.056  1.0831 -3.8619  0.8101
16439TIP3   OH270807   1.273   5.459   2.871  0.0523  0.2484  0.8107
16439TIP3    H170808   1.238   5.528   2.926 -2.5313 -0.2843 -0.0445
16439TIP3    H270809   1.235   5.378   2.905 -0.0422 -0.3021 -0.5096
16440TIP3   OH270810   1.615   0.415  11.013  0.5432  0.3114  0.2992
16440TIP3    H170811   1.579   0.341  10.965 -0.0298  0.7337  0.0683
16440TIP3    H270812   1.577   0.492  10.970 -0.7423  0.6922  2.0215
16441TIP3   OH270813   6.040   6.162   2.354 -0.0006 -0.0994 -0.7449
16441TIP3    H170814   6.064   6.118   2.436  2.6190  1.8885 -0.3259
16441TIP3    H270815   5.989   6.238   2.382 -0.2622 -0.1489 -1.0795
16442TIP3   OH270816   2.853   0.591  11.618  0.6521  0.2041  0.2879
16442TIP3    H170817   2.786   0.587  11.550 -0.4083  1.5422  1.1952
16442TIP3    H270818   2.933   0.561  11.575  0.1125  1.3746 -1.6621
16443TIP3   OH270819   3.116   3.426  11.894 -0.2992  0.0354 -0.4337
16443TIP3    H170820   3.077   3.411  11.980  1.7305 -1.6246  0.2820
16443TIP3    H270821   3.143   3.339  11.864  1.3938  0.8765 -1.5510
16444TIP3   OH270822   0.239   6.321   5.433  0.0992 -0.5539  0.3779
16444TIP3    H170823   0.158   6.350   5.475  0.6841 -0.1773  1.2759
16444TIP3    H270824   0.243   6.227   5.453  0.4104 -0.3648  1.2609
16445TIP3   OH270825   6.676   5.496   2.989  0.3113  0.3599  0.3056
16445TIP3    H170826   6.707   5.460   2.906 -3.1010  0.7883 -1.3629
16445TIP3    H270827   6.685   5.591   2.978 -0.3510  0.4279  0.2735
16446TIP3   OH270828   2.140   5.448  15.428  0.4367  0.6494  0.0377
16446TIP3    H170829   2.158   5.355  15.416  1.0203  0.9906 -1.9296
16446TIP3    H270830   2.157   5.488  15.343  0.6226  2.6408  0.9473
16447TIP3   OH270831   4.975   0.316  16.619 -0.6389 -0.2049  0.3303
16447TIP3    H170832   4.968   0.269  16.702  0.6321 -0.1717  0.4730
16447TIP3    H270833   5.027   0.258  16.563  2.1022  1.4960  0.9303
16448TIP3   OH270834   1.472   5.984   4.786  0.5417 -0.3357 -0.3583
16448TIP3    H170835   1.528   6.010   4.860  0.2936  1.9590 -0.9047
16448TIP3    H270836   1.528   5.927   4.732  0.9551 -1.4500  1.1703
16449TIP3   OH270837   6.092   5.053  11.243  0.1329 -0.0440  0.3318
16449TIP3    H170838   6.128   4.969  11.270 -0.6009 -0.4578  0.0457
16449TIP3    H270839   6.109   5.057  11.149 -1.3030 -0.6223  0.0348
16450TIP3   OH270840   0.857   3.623  15.373  0.6832  0.2324 -0.0127
16450TIP3    H170841   0.884   3.531  15.372  1.0536  0.3280  0.6847
16450TIP3    H270842   0.780   3.626  15.317  1.5665 -0.2222 -1.2947
16451TIP3   OH270843   6.259   6.679  10.745  0.8816 -0.5288 -0.9348
16451TIP3    H170844   6.266   6.770  10.771 -2.2581  0.0847 -1.8501
16451TIP3    H270845   6.295   6.676  10.656 -0.2598  0.1623 -1.4418
16452TIP3   OH270846   4.473   3.768  13.095  0.5524 -0.0992  0.1212
16452TIP3    H170847   4.493   3.695  13.036  2.2147 -0.0942  0.6239
16452TIP3    H270848   4.485   3.732  13.183  0.2181  0.4712  0.4046
16453TIP3   OH270849   6.812   2.109   0.426  0.3423  0.5633  0.1048
16453TIP3    H170850   6.761   2.142   0.351 -0.8698  0.0599  0.6752
16453TIP3    H270851   6.813   2.014   0.413 -0.3657  0.4197  1.0024
16454TIP3   OH270852   1.113   4.801  12.007 -0.6665  0.0202  0.3672
16454TIP3    H170853   1.056   4.876  11.989 -0.1298 -0.0576 -2.0525
16454TIP3    H270854   1.055   4.735  12.044 -1.7472  0.6455 -0.1567
16455TIP3   OH270855   5.536   1.200  11.806  0.4724 -0.4810  0.3294
16455TIP3    H170856   5.559   1.108  11.791 -1.6184 -1.4396  2.4402
16455TIP3    H270857   5.609   1.235  11.857  0.7104 -1.3203  0.5692
16456TIP3   OH270858   6.417   1.274   4.902 -0.4195 -0.0904  0.7130
16456TIP3    H170859   6.506   1.289   4.934 -0.6742 -0.6955  1.7358
16456TIP3    H270860   6.393   1.189   4.937 -1.8651  0.6238  1.5245
16457TIP3   OH270861   4.464   2.702   4.297 -0.4415  0.1345  0.2012
16457TIP3    H170862   4.408   2.756   4.352 -0.2375  0.1330  0.4134
16457TIP3    H270863   4.458   2.615   4.337 -0.7754 -0.0045 -0.1435
16458TIP3   OH270864   3.037   0.152   5.258 -0.0315 -0.1225 -0.0483
16458TIP3    H170865   2.998   0.065   5.248 -0.0871 -0.1017 -0.0058
16458TIP3    H270866   3.066   0.155   5.350  1.1757 -0.6121 -0.3848
16459TIP3   OH270867   0.394   5.775   4.988  0.2226  0.1308 -0.2493
16459TIP3    H170868   0.385   5.681   5.000 -1.2683  0.3157  0.3549
16459TIP3    H270869   0.488   5.790   4.984  0.4865 -1.3757 -0.3476
16460TIP3   OH270870   1.659   6.157   5.522  0.3265  0.3106  0.1266
16460TIP3    H170871   1.590   6.128   5.582  0.2406  0.9287  0.3384
16460TIP3    H270872   1.728   6.092   5.531 -0.6123 -0.8465 -0.7990
16461TIP3   OH270873   3.821   6.164  13.555 -0.4687  0.2993  0.2129
16461TIP3    H170874   3.810   6.200  13.643  1.0927  1.2971  0.0423
16461TIP3    H270875   3.835   6.071  13.569 -1.1482  0.2995  0.9510
16462TIP3   OH270876   3.932   4.012  13.522  0.2848  0.0814  0.0634
16462TIP3    H170877   3.949   4.106  13.520 -0.4460  0.2129 -0.3849
16462TIP3    H270878   3.836   4.005  13.525  0.3485 -0.6382  1.2373
16463TIP3   OH270879   4.873   1.441  12.051 -0.2759 -0.0908  0.3373
16463TIP3    H170880   4.814   1.365  12.045  0.5532 -0.6254 -2.2920
16463TIP3    H270881   4.814   1.516  12.059 -1.1144 -0.8989  2.8876
16464TIP3   OH270882   5.702   0.294   4.770  0.1988 -0.3081 -0.3878
16464TIP3    H170883   5.796   0.284   4.784 -0.1787 -1.0544  2.1492
16464TIP3    H270884   5.662   0.254   4.847 -2.2055  0.3529 -1.2002
16465TIP3   OH270885   3.201   5.194  13.338 -0.4101 -0.3853  0.3895
16465TIP3    H170886   3.109   5.191  13.362 -0.7145  0.1797 -0.6770
16465TIP3    H270887   3.238   5.263  13.393 -0.6747 -0.4268  0.6211
16466TIP3   OH270888   0.776   6.484   2.905 -0.1813 -0.1196 -0.4632
16466TIP3    H170889   0.722   6.525   2.838 -0.3069 -1.0421 -0.9321
16466TIP3    H270890   0.759   6.536   2.984  0.0821  1.0632 -1.1591
16467TIP3   OH270891   4.180   4.005   0.672  0.2946  0.4131  0.1611
16467TIP3    H170892   4.180   3.982   0.765  1.4122  0.9833  0.3138
16467TIP3    H270893   4.134   4.089   0.668  1.0159  0.8204  0.3208
16468TIP3   OH270894   5.972   1.494  12.712 -0.0037  0.3717 -0.6463
16468TIP3    H170895   5.993   1.506  12.619 -0.8795  1.2087 -0.7500
16468TIP3    H270896   5.893   1.441  12.712  1.2622 -1.5899 -0.2930
16469TIP3   OH270897   5.489   0.921   4.774 -0.2066 -0.8803 -0.1558
16469TIP3    H170898   5.477   0.886   4.862  1.9983 -3.2474 -0.6665
16469TIP3    H270899   5.456   0.851   4.716  2.2774 -1.2795 -1.2076
16470TIP3   OH270900   5.636   4.145  15.312 -0.3167  0.0974 -0.5670
16470TIP3    H170901   5.657   4.091  15.388 -1.0367  1.0569  0.3516
16470TIP3    H270902   5.618   4.231  15.349 -0.9105  0.5239 -1.8074
16471TIP3   OH270903   1.093   1.491   1.476  0.8775 -0.0846  0.1121
16471TIP3    H170904   1.113   1.493   1.570  0.4787  0.8201  0.1997
16471TIP3    H270905   1.051   1.576   1.460 -2.5971 -1.6874 -0.0817
16472TIP3   OH270906   0.020   0.375  13.420  0.0004 -0.3179  0.4950
16472TIP3    H170907   0.034   0.384  13.514  0.9118 -0.8504  0.4284
16472TIP3    H270908   0.023   0.280  13.405  0.0974 -0.2222 -0.0945
16473TIP3   OH270909   0.592   4.130  13.279  0.5400 -0.3681 -0.1025
16473TIP3    H170910   0.594   4.036  13.261  1.0263 -0.6997  1.5072
16473TIP3    H270911   0.500   4.154  13.277  0.3373 -1.0877  0.4526
16474TIP3   OH270912   5.440   3.598   2.251  0.5429 -0.0104  0.6839
16474TIP3    H170913   5.464   3.552   2.170 -1.3607  0.9306 -0.4801
16474TIP3    H270914   5.520   3.642   2.278  1.2816 -0.5337 -0.5485
16475TIP3   OH270915   4.349   4.396   6.006 -0.0348  0.2453  0.8248
16475TIP3    H170916   4.365   4.314   6.052 -2.9291  0.3902  2.3383
16475TIP3    H270917   4.407   4.459   6.049 -1.1400 -0.0859  2.9891
16476TIP3   OH270918   1.594   5.090  14.270  0.7425 -0.0174  0.2835
16476TIP3    H170919   1.571   5.183  14.273  1.6523  0.1878  1.2777
16476TIP3    H270920   1.690   5.089  14.272  0.8305 -0.9246 -1.7326
16477TIP3   OH270921   3.680   0.675  14.302 -0.4291 -0.9175  0.5181
16477TIP3    H170922   3.772   0.688  14.325 -0.5931 -0.3492  0.8969
16477TIP3    H270923   3.632   0.708  14.379 -0.9694 -0.2153 -0.1034
16478TIP3   OH270924   0.427   2.036  13.954  0.1473  0.4282 -0.4976
16478TIP3    H170925   0.509   2.061  13.997 -0.6075  0.6791  0.8637
16478TIP3    H270926   0.364   2.100  13.986 -0.2104  1.4709 -3.0706
16479TIP3   OH270927   2.979   4.799   3.037 -0.1598  0.3727 -0.6631
16479TIP3    H170928   2.897   4.762   3.070  0.4964 -0.4104  0.1221
16479TIP3    H270929   2.955   4.839   2.953 -1.5513  1.0526  0.0250
16480TIP3   OH270930   4.429   1.262   4.740 -0.5478  0.2629 -0.2506
16480TIP3    H170931   4.482   1.269   4.820 -2.1646  0.6179  0.8265
16480TIP3    H270932   4.380   1.181   4.751 -0.8455  0.3577 -0.8446
16481TIP3   OH270933   0.595   0.983  14.731 -0.3235 -0.3441  0.2208
16481TIP3    H170934   0.567   1.034  14.655 -2.3797  0.7578  1.6188
16481TIP3    H270935   0.660   1.037  14.775  1.6367 -1.4138 -1.1832
16482TIP3   OH270936   4.064   3.786  16.870 -0.3812 -0.3543  0.6206
16482TIP3    H170937   4.063   3.753  16.960 -0.0345 -1.5583  0.2095
16482TIP3    H270938   3.992   3.740  16.827  1.0756 -1.8240 -0.3660
16483TIP3   OH270939   6.024   6.426   0.008 -0.0984  0.4517 -0.0270
16483TIP3    H170940   6.044   6.343  -0.034 -0.9810  0.7742 -1.1325
16483TIP3    H270941   5.959   6.405   0.076 -0.8835  0.3323 -0.8036
16484TIP3   OH270942   0.756   2.519  11.524 -0.3088 -0.2715  0.0258
16484TIP3    H170943   0.780   2.464  11.450  0.6368  0.8162 -0.4939
16484TIP3    H270944   0.705   2.591  11.486 -0.4410 -0.0958  0.5250
16485TIP3   OH270945   5.924   2.362  14.412  0.5087 -0.6315 -0.1295
16485TIP3    H170946   5.978   2.360  14.491 -1.1349  4.1883  1.4950
16485TIP3    H270947   5.835   2.343  14.444 -0.0862  0.7660 -0.8687
16486TIP3   OH270948   0.381   0.546   2.019 -0.4682 -0.5630 -0.5073
16486TIP3    H170949   0.343   0.483   2.081 -0.0497  0.2560  0.6089
16486TIP3    H270950   0.438   0.492   1.963  1.7400 -0.9380  1.9073
16487TIP3   OH270951   5.237   3.911  14.245  0.3647 -0.3268 -0.0359
16487TIP3    H170952   5.187   3.958  14.312 -1.0284 -0.5980 -0.8535
16487TIP3    H270953   5.318   3.885  14.290  0.8411  2.0967  0.6792
16488TIP3   OH270954   4.782   3.740  11.963 -0.3726  0.3536 -0.0990
16488TIP3    H170955   4.761   3.814  12.020 -1.8263 -0.0469 -0.0701
16488TIP3    H270956   4.877   3.730  11.972 -0.2973  1.4944  0.7656
16489TIP3   OH270957   4.569   0.290  14.988  0.5281  0.2885  0.5371
16489TIP3    H170958   4.531   0.371  15.024 -1.6913  0.4820 -1.9318
16489TIP3    H270959   4.577   0.307  14.894  1.5954 -1.7965  0.1932
16490TIP3   OH270960   2.244   2.383   2.107  0.0196  0.8231 -0.2823
16490TIP3    H170961   2.217   2.418   2.191 -1.2114 -1.0132  0.1476
16490TIP3    H270962   2.209   2.445   2.043  1.7818  2.7446  0.5287
16491TIP3   OH270963   0.974   3.480   3.822 -0.0807 -0.2726  0.3820
16491TIP3    H170964   1.058   3.500   3.863  0.1418 -0.3024 -0.0532
16491TIP3    H270965   0.973   3.385   3.814  0.4423 -0.1925 -0.8430
16492TIP3   OH270966   5.318   3.135  10.549 -0.1140  0.6451  1.1279
16492TIP3    H170967   5.224   3.125  10.532 -0.3376 -0.0674  2.6470
16492TIP3    H270968   5.356   3.051  10.524  0.3114  1.2690 -0.4624
16493TIP3   OH270969   3.396   5.907  16.923 -0.6754 -0.2541 -0.2270
16493TIP3    H170970   3.402   5.880  16.831  1.4219 -1.4451  0.1968
16493TIP3    H270971   3.307   5.884  16.948 -0.2257 -3.3481 -1.0197
16494TIP3   OH270972   1.680   3.059  15.372 -0.1829  0.2065 -0.7713
16494TIP3    H170973   1.588   3.065  15.347 -0.0057  1.4150 -1.1724
16494TIP3    H270974   1.723   3.129  15.324  0.5133  1.3120  1.3121
16495TIP3   OH270975   2.553   1.025   0.842  0.0913 -0.2323  0.2343
16495TIP3    H170976   2.581   0.939   0.872  0.6035 -0.4828 -0.9050
16495TIP3    H270977   2.634   1.071   0.822 -0.1108  1.0338  2.1373
16496TIP3   OH270978   6.537   5.669  11.836  0.0615 -0.1884 -0.4125
16496TIP3    H170979   6.611   5.729  11.832  0.7780 -1.0367 -0.1184
16496TIP3    H270980   6.516   5.650  11.744  0.5673 -0.3742 -0.4921
16497TIP3   OH270981   1.946   0.497   2.999  0.0792 -0.2073  0.0496
16497TIP3    H170982   1.948   0.516   3.093 -1.8116  1.2705 -0.1468
16497TIP3    H270983   1.924   0.581   2.958  0.8193 -0.8411 -1.7307
16498TIP3   OH270984   3.664   6.686  14.222 -0.0955 -0.4003  0.2022
16498TIP3    H170985   3.616   6.604  14.226 -1.4489  0.4038  2.1004
16498TIP3    H270986   3.693   6.702  14.312  0.3350  1.0765 -0.1587
16499TIP3   OH270987   0.740   3.621  15.921  0.0286 -0.2468  0.3124
16499TIP3    H170988   0.676   3.665  15.977 -0.6403 -0.4278 -0.3017
16499TIP3    H270989   0.790   3.566  15.982  0.1835  0.5571  0.9242
16500TIP3   OH270990   0.733   1.750   2.455 -0.1150  0.1450 -0.1226
16500TIP3    H170991   0.812   1.696   2.443  0.4528  0.5723  1.4100
16500TIP3    H270992   0.756   1.833   2.414 -1.1792 -0.8316 -2.9476
16501TIP3   OH270993   0.580   2.517   4.076  0.6879 -0.0434 -0.1325
16501TIP3    H170994   0.496   2.500   4.033  0.9586  0.8259 -1.0359
16501TIP3    H270995   0.635   2.555   4.008  0.6233  2.9681  1.3161
16502TIP3   OH270996   2.957   1.506  16.903 -0.1338  0.2053 -0.4598
16502TIP3    H170997   3.015   1.430  16.894  2.3264  1.8454  0.7611
16502TIP3    H270998   2.943   1.515  16.997 -1.6951  0.3858 -0.6835
16503TIP3   OH270999   1.101   6.342  14.915  0.3196 -1.0648  0.4010
16503TIP3    H171000   1.026   6.292  14.947 -0.9291 -0.0228 -0.7841
16503TIP3    H271001   1.086   6.431  14.947  0.7156 -0.7019 -0.4116
16504TIP3   OH271002   0.048   0.904   4.259 -0.2394 -0.1353 -0.9183
16504TIP3    H171003   0.021   0.912   4.168 -0.0347  0.5492 -0.9193
16504TIP3    H271004   0.035   0.991   4.296  0.0150 -0.3196 -0.3825
16505TIP3   OH271005   4.013   3.604   0.444 -0.1990  0.0614 -0.2526
16505TIP3    H171006   4.081   3.632   0.506  0.2893 -1.5937  0.0194
16505TIP3    H271007   3.951   3.676   0.443 -1.3270 -0.5732  3.8028
16506TIP3   OH271008   3.476   1.774  12.538  0.3010 -0.1669 -0.1995
16506TIP3    H171009   3.408   1.810  12.595  1.4100  1.5105  0.1537
16506TIP3    H271010   3.479   1.835  12.464  1.9117  0.2545  0.1791
16507TIP3   OH271011   6.794   2.623  17.036 -0.0083  0.7062 -0.3152
16507TIP3    H171012   6.776   2.708  16.997 -1.6647  0.4482 -0.1952
16507TIP3    H271013   6.803   2.641  17.130  0.9638  0.9076 -0.4340
16508TIP3   OH271014   2.825   2.435  15.602 -0.3912  0.5088 -0.1007
16508TIP3    H171015   2.786   2.513  15.562 -1.1398  0.0762 -0.2236
16508TIP3    H271016   2.843   2.377  15.528  0.7116  0.7852 -0.0729
16509TIP3   OH271017   5.693   4.149   2.433  0.1608 -0.2529 -0.3778
16509TIP3    H171018   5.681   4.184   2.521 -0.1671  1.9083 -1.2240
16509TIP3    H271019   5.782   4.113   2.433  0.6906  1.0017  0.4445
16510TIP3   OH271020   2.129   4.360   6.016  0.4981 -0.4863 -0.1142
16510TIP3    H171021   2.063   4.388   6.080  0.9317 -3.9922  2.1003
16510TIP3    H271022   2.211   4.395   6.050  0.4343 -0.4238 -0.0229
16511TIP3   OH271023   4.872   2.685  17.063 -0.0290  1.0183 -0.4099
16511TIP3    H171024   4.941   2.637  17.109 -0.0193  1.4934  0.0721
16511TIP3    H271025   4.845   2.625  16.993 -0.3352  0.1085  0.4567
16512TIP3   OH271026   6.297   6.777   3.446  0.3028  0.0559  0.4239
16512TIP3    H171027   6.353   6.700   3.436  0.4769  0.3793 -1.3705
16512TIP3    H271028   6.347   6.849   3.409 -0.9944  0.4783 -0.5702
16513TIP3   OH271029   6.424   1.676  12.413 -0.2190  0.1937 -0.1895
16513TIP3    H171030   6.517   1.658  12.396  0.4762  2.3290  0.9170
16513TIP3    H271031   6.390   1.594  12.450  1.3246 -0.5171 -0.2608
16514TIP3   OH271032   1.009   0.093   1.700  0.3284 -0.1438  0.6388
16514TIP3    H171033   1.078   0.139   1.747 -0.0162 -0.1818  1.1918
16514TIP3    H271034   1.050   0.011   1.671  2.1250  1.9490 -3.6109
16515TIP3   OH271035   3.661   6.830  12.949  0.4631 -0.3683 -0.1403
16515TIP3    H171036   3.617   6.910  12.920 -0.8204 -0.4063  1.6083
16515TIP3    H271037   3.594   6.762  12.943  1.3067 -1.1672 -0.7866
16516TIP3   OH271038   1.896   2.686  10.232  0.2884  0.5954 -0.1545
16516TIP3    H171039   1.886   2.731  10.148  0.3221 -1.1972 -1.1744
16516TIP3    H271040   1.990   2.685  10.247  0.2857  0.8728 -0.0989
16517TIP3   OH271041   4.164   1.040   1.378 -0.8141 -0.1666  0.2953
16517TIP3    H171042   4.238   0.979   1.390 -1.5373 -1.4771 -1.4639
16517TIP3    H271043   4.086   0.986   1.389 -1.4832  0.1733 -2.1253
16518TIP3   OH271044   0.547   1.106   3.662 -0.0904  0.3198  0.1822
16518TIP3    H171045   0.510   1.193   3.645 -0.8204  0.4391  2.1386
16518TIP3    H271046   0.476   1.045   3.640 -0.0554  0.2977  0.1302
16519TIP3   OH271047   4.866   6.096   5.665  0.2275 -0.2370  0.4528
16519TIP3    H171048   4.842   6.188   5.655  0.8361 -0.1338 -0.1193
16519TIP3    H271049   4.789   6.048   5.634  0.5806  0.0871 -1.0081
16520TIP3   OH271050   5.040   4.484  14.176  0.2112 -0.1590  0.0600
16520TIP3    H171051   5.014   4.392  14.182 -0.7510  0.1502  1.3145
16520TIP3    H271052   4.965   4.527  14.135  0.0323  0.2737  0.8217
16521TIP3   OH271053   2.071   0.100  14.970  0.1769  0.0478 -0.5639
16521TIP3    H171054   2.040   0.023  15.017 -1.3991 -0.2521 -1.9804
16521TIP3    H271055   2.027   0.174  15.012 -0.7946 -0.1679 -1.1525
16522TIP3   OH271056   2.306   2.256   0.246 -0.7434 -0.2490 -0.2953
16522TIP3    H171057   2.243   2.325   0.223  0.3498  1.2641  1.0032
16522TIP3    H271058   2.278   2.227   0.333 -1.2518 -1.5550 -0.8756
16523TIP3   OH271059   3.159   1.477  15.125  0.1176 -0.5214 -0.1381
16523TIP3    H171060   3.186   1.497  15.035  2.9011 -2.1628  0.2319
16523TIP3    H271061   3.229   1.423  15.160 -0.1045  1.2731  3.5666
16524TIP3   OH271062   2.518   0.164  14.150 -0.5454 -0.1124 -0.2890
16524TIP3    H171063   2.530   0.123  14.065 -2.2651  0.7830 -1.0171
16524TIP3    H271064   2.451   0.110  14.193  0.6859 -0.8769  0.7614
16525TIP3   OH271065   3.662   5.425   2.870  0.5159  0.3512  0.4284
16525TIP3    H171066   3.685   5.444   2.779  0.5903  0.4329  0.4647
16525TIP3    H271067   3.745   5.409   2.914  0.4154 -0.8440  0.2260
16526TIP3   OH271068   2.662   5.233   3.983  0.3125  0.0305  0.4407
16526TIP3    H171069   2.613   5.174   3.925 -0.2661  1.3743 -0.4949
16526TIP3    H271070   2.723   5.176   4.029 -0.2732 -1.3105 -0.3753
16527TIP3   OH271071   4.922   5.376  14.989 -0.1214  0.0870  0.1098
16527TIP3    H171072   4.953   5.463  15.014  1.2376 -0.3194 -0.0959
16527TIP3    H271073   4.973   5.354  14.912  0.3073 -1.3281  0.7689
16528TIP3   OH271074   2.957   1.466  13.511  0.0163 -0.0808  0.7406
16528TIP3    H171075   2.868   1.433  13.516  0.2124 -0.6605  0.4232
16528TIP3    H271076   2.953   1.537  13.447  0.2542 -1.7280 -1.1840
16529TIP3   OH271077   6.790   5.042  14.061 -0.0196 -0.1466  0.4213
16529TIP3    H171078   6.849   5.029  13.987 -0.2037  0.1184  0.2237
16529TIP3    H271079   6.736   5.116  14.035 -2.0461 -1.8370 -0.4239
16530TIP3   OH271080   1.708   0.861  15.828 -0.2362  0.2407  0.1530
16530TIP3    H171081   1.733   0.823  15.912  1.7476  0.7522 -0.1438
16530TIP3    H271082   1.739   0.798  15.763 -1.5510 -0.0404 -0.2365
16531TIP3   OH271083   3.293   1.610  16.078  0.1993  0.6042 -0.7962
16531TIP3    H171084   3.220   1.593  16.019 -0.3758  1.4078 -0.3241
16531TIP3    H271085   3.357   1.657  16.024  0.8515 -1.0109 -1.5008
16532TIP3   OH271086   1.167   0.637  13.476  0.2569 -0.2897 -0.1809
16532TIP3    H171087   1.200   0.556  13.437  0.3152 -0.4509  0.2019
16532TIP3    H271088   1.161   0.698  13.402  1.0622 -0.3655 -0.3169
16533TIP3   OH271089   5.786   3.393   5.125 -0.2766 -0.1951  0.1984
16533TIP3    H171090   5.713   3.356   5.075 -0.4231 -0.3172  0.4978
16533TIP3    H271091   5.793   3.483   5.094  0.9517 -0.8232 -1.5224
16534TIP3   OH271092   2.072   0.270   2.954 -0.0928  0.3516 -0.5364
16534TIP3    H171093   2.118   0.277   2.870  2.2763 -1.7269  0.4520
16534TIP3    H271094   2.035   0.357   2.968  2.2906  1.7585 -2.1756
16535TIP3   OH271095   0.027   5.260   3.467  0.2559 -0.1843 -0.3836
16535TIP3    H171096   0.032   5.175   3.510 -2.6377 -1.0268 -1.4835
16535TIP3    H271097   0.102   5.262   3.408  1.2302 -1.2656  0.7712
16536TIP3   OH271098   2.576   1.891   0.658  0.2377 -0.0375 -0.2689
16536TIP3    H171099   2.536   1.906   0.743 -1.1887 -1.3862 -0.6436
16536TIP3    H271100   2.657   1.845   0.677  0.1066 -0.0067  0.3793
16537TIP3   OH271101   6.020   0.717   5.093  0.3088  0.1803 -0.6398
16537TIP3    H171102   6.002   0.737   5.001  2.3194  0.7316 -0.9632
16537TIP3    H271103   6.001   0.798   5.140  1.6375  0.6848 -0.9421
16538TIP3   OH271104   4.166   3.551   1.242 -0.0586 -0.0469  0.2196
16538TIP3    H171105   4.213   3.602   1.309  1.2235 -0.1175 -0.5908
16538TIP3    H271106   4.139   3.615   1.177 -0.6490 -0.0758  0.4345
16539TIP3   OH271107   2.255   2.637  14.651  0.1630 -0.5672 -0.1313
16539TIP3    H171108   2.265   2.658  14.558 -0.0642 -0.4387 -0.1269
16539TIP3    H271109   2.331   2.676  14.693 -0.2724  0.2885 -0.1177
16540TIP3   OH271110   6.255   4.641  16.001  0.2736  0.3578 -0.3754
16540TIP3    H171111   6.250   4.716  15.941 -1.2311  0.2358 -0.4522
16540TIP3    H271112   6.169   4.599  15.993  0.7526 -0.8035  0.4073
16541TIP3   OH271113   5.066   2.043  13.107  0.3676  0.4637  0.1658
16541TIP3    H171114   5.043   1.978  13.040 -4.3844 -1.2175  2.8846
16541TIP3    H271115   5.025   2.124  13.077  1.4040  0.7129 -0.6033
16542TIP3   OH271116   4.552   2.354  14.121 -0.0377 -0.0179 -0.1102
16542TIP3    H171117   4.467   2.356  14.079 -0.2899 -0.9398  0.3239
16542TIP3    H271118   4.606   2.300  14.063  0.5933  1.4765 -0.9649
16543TIP3   OH271119   4.520   3.968   2.506  0.0891 -0.0799  0.1676
16543TIP3    H171120   4.552   3.960   2.416  0.2235  0.9927  0.1036
16543TIP3    H271121   4.479   4.054   2.509 -0.8273 -0.5322  0.8625
16544TIP3   OH271122   6.586   0.616   1.151  0.4370  0.4072  0.4034
16544TIP3    H171123   6.558   0.610   1.059 -1.0305  1.2878  0.7484
16544TIP3    H271124   6.653   0.549   1.160 -0.6963 -0.9720 -0.8511
16545TIP3   OH271125   3.195   3.454   1.155  0.4044  0.1109  0.0312
16545TIP3    H171126   3.274   3.416   1.118  0.4140  1.1900 -1.1193
16545TIP3    H271127   3.123   3.404   1.115  0.3482  2.0299 -2.5811
16546TIP3   OH271128   4.916   3.667  12.487 -0.3676  0.3083 -0.0844
16546TIP3    H171129   4.962   3.736  12.534  0.2106  0.2158 -0.5030
16546TIP3    H271130   4.865   3.713  12.420  1.4056  0.2436 -1.5423
16547TIP3   OH271131   2.170   0.545   3.167 -0.3961 -0.1886  0.1181
16547TIP3    H171132   2.264   0.564   3.159  0.2810 -2.6560  1.2877
16547TIP3    H271133   2.128   0.605   3.106  1.8181  1.8473  0.4599
16548TIP3   OH271134   6.570   5.761   6.007 -0.3649  0.2532  0.6332
16548TIP3    H171135   6.529   5.680   6.038 -0.4757  1.0225  2.6502
16548TIP3    H271136   6.600   5.805   6.086  2.7341  0.6412 -0.5833
16549TIP3   OH271137   4.786   3.324  11.514  0.1303  0.4553 -0.2082
16549TIP3    H171138   4.815   3.345  11.603 -2.7853  0.2510  0.9138
16549TIP3    H271139   4.764   3.408  11.475 -0.1718  0.4224 -0.1120
16550TIP3   OH271140   0.356   0.739  14.206 -0.3523 -0.3215  0.2388
16550TIP3    H171141   0.289   0.683  14.246 -1.0898 -0.7824 -1.5670
16550TIP3    H271142   0.354   0.718  14.113  1.6009  0.4231 -0.0292
16551TIP3   OH271143   5.368   2.846  13.370  0.5601  0.2117  0.5390
16551TIP3    H171144   5.386   2.761  13.410 -0.4584  0.2697  1.1520
16551TIP3    H271145   5.291   2.832  13.316  0.5615  0.6793  0.4087
16552TIP3   OH271146   5.381   2.502  12.092  0.1330 -0.2474  0.1411
16552TIP3    H171147   5.470   2.472  12.074  0.3750  0.5309  0.0266
16552TIP3    H271148   5.325   2.429  12.063  0.6494 -0.1324 -1.2209
16553TIP3   OH271149   6.179   3.408  14.341 -0.4791 -0.3654  0.2335
16553TIP3    H171150   6.221   3.484  14.298 -2.1491  0.7792  0.5370
16553TIP3    H271151   6.233   3.391  14.418 -0.3492  0.8480  0.4300
16554TIP3   OH271152   4.137   5.066  13.873  0.0340  0.2449  0.0151
16554TIP3    H171153   4.152   5.083  13.780  1.6345  0.5044  0.2935
16554TIP3    H271154   4.220   5.089  13.915 -0.9539  1.0111  1.6286
16555TIP3   OH271155   3.043   2.988   0.053  0.6078 -0.1554 -0.0445
16555TIP3    H171156   2.961   3.020   0.090  0.5057 -0.1639 -0.2614
16555TIP3    H271157   3.023   2.900   0.020  0.6200 -0.0317 -0.3858
16556TIP3   OH271158   0.349   0.286  14.369 -0.2986  0.3265  0.1709
16556TIP3    H171159   0.392   0.200  14.370  2.0345  1.4029 -0.6991
16556TIP3    H271160   0.301   0.289  14.452  0.6182 -1.3098  0.8166
16557TIP3   OH271161   3.045   2.417  12.309 -0.1078 -0.6432 -0.0047
16557TIP3    H171162   3.003   2.353  12.252 -1.9937 -0.3826  1.0058
16557TIP3    H271163   3.034   2.382  12.397  0.8440 -0.0089  0.3905
16558TIP3   OH271164   2.846   6.468  13.873  0.0610  0.7209  0.3842
16558TIP3    H171165   2.824   6.425  13.955 -0.5138 -0.4708 -0.3575
16558TIP3    H271166   2.860   6.396  13.811  0.6825  1.5821 -0.5177
16559TIP3   OH271167   0.390   1.873  15.914  0.1610  0.4628 -0.3172
16559TIP3    H171168   0.364   1.949  15.967 -0.7530  1.2525 -1.8065
16559TIP3    H271169   0.365   1.797  15.966  0.4984  1.1883  0.9330
16560TIP3   OH271170   4.613   3.254  10.324 -0.3022  0.0240  0.1349
16560TIP3    H171171   4.607   3.332  10.380 -2.1835 -0.1567  0.2625
16560TIP3    H271172   4.698   3.216  10.344  0.1017  1.3329  1.0320
16561TIP3   OH271173   4.791   3.576  16.409  0.3352  0.3673 -0.2906
16561TIP3    H171174   4.711   3.625  16.390 -0.0579 -0.5019 -0.9184
16561TIP3    H271175   4.811   3.598  16.500 -1.6060 -0.7862  0.4716
16562TIP3   OH271176   2.115   2.849  10.543  0.1742  0.2104  0.0937
16562TIP3    H171177   2.025   2.877  10.526  0.9496  2.0320 -1.5104
16562TIP3    H271178   2.109   2.755  10.556 -1.8712  0.1679 -0.7400
16563TIP3   OH271179   0.625   4.558  13.837 -0.3692  0.2434 -0.0033
16563TIP3    H171180   0.652   4.606  13.759 -0.0688  0.0941  0.0067
16563TIP3    H271181   0.578   4.482  13.802 -0.1902  0.1490 -0.0425
16564TIP3   OH271182   2.683   3.928   3.534 -0.2419  0.4629  0.1780
16564TIP3    H171183   2.657   3.900   3.621 -0.9005  0.6851  0.0555
16564TIP3    H271184   2.617   3.993   3.508 -0.7270 -0.4431 -0.9546
16565TIP3   OH271185   0.952   4.465   1.459 -0.1058  0.4080 -0.1790
16565TIP3    H171186   0.857   4.471   1.449 -0.3772 -0.8966  1.2057
16565TIP3    H271187   0.966   4.474   1.554  1.1486  0.5044 -0.3572
16566TIP3   OH271188   0.915   0.836  13.519 -0.0971 -0.0812 -0.1674
16566TIP3    H171189   0.845   0.883  13.566  0.5937 -1.0008  1.8968
16566TIP3    H271190   0.871   0.799  13.443 -2.7942 -3.3501  2.6453
16567TIP3   OH271191   5.685   2.952   4.150  0.6740  0.4469  0.3825
16567TIP3    H171192   5.601   2.941   4.103  2.3524  2.3272 -3.5788
16567TIP3    H271193   5.730   2.869   4.139  1.7053  1.2812 -3.3348
16568TIP3   OH271194   2.618   4.378  11.839  0.1499  0.6737  0.4986
16568TIP3    H171195   2.555   4.321  11.794 -0.8534  1.5679  0.7327
16568TIP3    H271196   2.701   4.358  11.797 -0.8538  2.0156 -2.3548
16569TIP3   OH271197   5.911   3.805   2.872  0.0762 -0.0186  0.5424
16569TIP3    H171198   5.909   3.762   2.958 -0.2710  0.4432  0.7693
16569TIP3    H271199   5.819   3.817   2.850  0.1630  1.1480  0.7577
16570TIP3   OH271200   0.192   5.283  12.724  0.1982 -0.2427  0.1551
16570TIP3    H171201   0.132   5.333  12.779  0.1752 -1.4500  1.2809
16570TIP3    H271202   0.180   5.319  12.636 -0.1882  1.3462  0.8210
16571TIP3   OH271203   5.002   3.070  13.962  0.3146 -0.0558 -0.0709
16571TIP3    H171204   5.088   3.031  13.980  0.6271  0.4469 -0.4426
16571TIP3    H271205   4.955   3.062  14.045  0.4667 -0.9660 -0.0587
16572TIP3   OH271206   5.423   1.491   1.566  0.3779 -0.0577  0.0244
16572TIP3    H171207   5.339   1.448   1.551 -0.0825  0.9966 -0.5224
16572TIP3    H271208   5.470   1.482   1.483 -0.4296  1.9618 -0.7352
16573TIP3   OH271209   5.746   0.098   2.590 -0.1200 -0.1819  0.2854
16573TIP3    H171210   5.705   0.047   2.659 -0.5140  0.4825  0.5564
16573TIP3    H271211   5.824   0.048   2.566 -0.7124 -1.1099  0.2516
16574TIP3   OH271212   4.020   4.931   2.679 -0.4483  0.3773 -0.3144
16574TIP3    H171213   3.943   4.980   2.651 -1.8561 -0.3134  2.0963
16574TIP3    H271214   4.092   4.994   2.672 -1.1238  0.9512 -2.8732
16575TIP3   OH271215   3.038   4.424   2.733  0.2403 -0.0570 -0.0574
16575TIP3    H171216   3.121   4.464   2.758  0.6379 -1.5811  1.2391
16575TIP3    H271217   2.972   4.486   2.761  0.9006  0.7194 -0.1830
16576TIP3   OH271218   2.834   6.443   6.668  0.1571  0.0029  0.4833
16576TIP3    H171219   2.895   6.443   6.594 -0.2286 -1.4468  0.1345
16576TIP3    H271220   2.815   6.535   6.683  1.6230  0.4354 -0.0706
16577TIP3   OH271221   2.067   6.305  12.912  0.1887 -0.0974  0.0647
16577TIP3    H171222   2.001   6.316  12.843  0.2845 -0.3907 -0.0756
16577TIP3    H271223   2.018   6.266  12.985 -0.3178  1.8525  0.8348
16578TIP3   OH271224   4.327   2.535   3.949 -0.3761  0.6067 -0.3197
16578TIP3    H171225   4.382   2.611   3.970  1.7479 -1.1989  1.2149
16578TIP3    H271226   4.370   2.496   3.873 -0.2223 -0.1520  0.1486
16579TIP3   OH271227   5.687   3.583  14.616  0.4179  0.5796 -0.6848
16579TIP3    H171228   5.684   3.530  14.696 -1.1852  1.6540  0.0308
16579TIP3    H271229   5.658   3.524  14.547 -0.9618  0.3835  0.0320
16580TIP3   OH271230   6.750   5.485   4.658 -0.3624 -0.0971 -0.1116
16580TIP3    H171231   6.691   5.458   4.588 -1.5968 -1.0509  1.2430
16580TIP3    H271232   6.764   5.578   4.643 -1.8695  0.0600 -0.7337
16581TIP3   OH271233   5.067   3.565  11.758  0.5562 -0.6242 -0.6441
16581TIP3    H171234   4.977   3.580  11.787  0.9633 -1.2822  1.1037
16581TIP3    H271235   5.060   3.504  11.685 -0.4655  0.3241 -1.3730
16582TIP3   OH271236   6.140   2.613  11.551  0.1123  0.2108 -0.8234
16582TIP3    H171237   6.110   2.658  11.630  0.3463  3.3967 -2.3809
16582TIP3    H271238   6.191   2.539  11.584 -0.9910  0.5586  1.9551
16583TIP3   OH271239   1.155   4.655   0.181  0.2326  0.2619 -0.2619
16583TIP3    H171240   1.115   4.600   0.248 -0.1391 -0.6463 -1.1996
16583TIP3    H271241   1.082   4.694   0.135  0.4961  1.4264  0.2720
16584TIP3   OH271242   4.188   3.155  11.216 -0.4929  0.8247  0.0853
16584TIP3    H171243   4.219   3.093  11.149  2.8142  3.3325 -0.9778
16584TIP3    H271244   4.252   3.148  11.287 -1.8980  0.8260  1.4079
16585TIP3   OH271245   6.336   2.809   4.281 -0.2746 -0.0115 -0.4617
16585TIP3    H171246   6.306   2.753   4.353  2.3861 -0.2946  0.5288
16585TIP3    H271247   6.323   2.756   4.202 -0.8978 -0.7006  0.0966
16586TIP3   OH271248   2.547   5.705  11.242 -0.3013  0.4810  0.0728
16586TIP3    H171249   2.567   5.627  11.294  0.0382 -0.6738 -1.7240
16586TIP3    H271250   2.555   5.677  11.151 -0.5359  2.5300 -0.6401
16587TIP3   OH271251   0.019   2.447  11.079  0.0901  0.2840 -0.2644
16587TIP3    H171252   0.035   2.457  10.985  0.2061 -0.5504 -0.3404
16587TIP3    H271253   0.062   2.522  11.119  1.7168 -0.3722 -0.7206
16588TIP3   OH271254   6.841   5.478   4.125  0.0606  0.3830 -0.0421
16588TIP3    H171255   6.912   5.443   4.071  1.2395  0.7876  1.1741
16588TIP3    H271256   6.791   5.534   4.066  1.5353  1.1158 -0.6589
16589TIP3   OH271257   4.837   4.079   2.100  0.1178  0.2195 -0.1154
16589TIP3    H171258   4.820   4.044   2.013  1.2459  0.1319 -0.3143
16589TIP3    H271259   4.757   4.060   2.149  0.7491 -3.0508 -0.1021
16590TIP3   OH271260   1.916   5.711  14.384  0.8652  0.3102  0.3449
16590TIP3    H171261   1.836   5.664  14.408  0.8713  0.0893 -0.0474
16590TIP3    H271262   1.888   5.773  14.317  0.2406  3.1092  3.0104
16591TIP3   OH271263   5.461   4.841  15.578 -0.0002 -0.5337  0.8078
16591TIP3    H171264   5.384   4.813  15.627  0.8781 -2.0203  1.4072
16591TIP3    H271265   5.428   4.862  15.491 -0.9877 -1.9813  0.7936
16592TIP3   OH271266   3.596   6.210  14.201 -0.2167 -0.4294 -0.0707
16592TIP3    H171267   3.626   6.239  14.114  1.1472  0.0303  0.5183
16592TIP3    H271268   3.586   6.290  14.251 -2.0401 -0.6108 -0.0747
16593TIP3   OH271269   0.608   0.369  14.332 -0.4978 -0.6222  0.1109
16593TIP3    H171270   0.630   0.415  14.414 -1.1086 -0.0042 -0.0685
16593TIP3    H271271   0.513   0.360  14.334 -0.7136  0.9595 -1.3437
16594TIP3   OH271272   0.999   3.957  11.350 -0.2187  0.1730 -0.2181
16594TIP3    H171273   0.949   4.037  11.366 -0.2386  0.3984 -1.3270
16594TIP3    H271274   1.044   3.973  11.267  0.6977 -0.5218  0.1292
16595TIP3   OH271275   2.917   5.082  13.692  0.0586 -0.2476  0.5853
16595TIP3    H171276   2.897   5.162  13.643  0.2798 -0.3251  0.3613
16595TIP3    H271277   2.904   5.106  13.784  0.0358  0.0198  0.5140
16596TIP3   OH271278   3.662   5.839   2.889 -0.4272 -0.2760 -0.2582
16596TIP3    H171279   3.756   5.821   2.893  0.2611  2.8485  2.4371
16596TIP3    H271280   3.622   5.772   2.945  0.3351 -0.8542 -0.3937
16597TIP3   OH271281   6.222   4.097   4.700  0.2169  0.3741 -0.5592
16597TIP3    H171282   6.275   4.049   4.636  0.2530 -0.8067  0.3287
16597TIP3    H271283   6.277   4.173   4.723  1.7144 -0.9753  0.5605
16598TIP3   OH271284   3.578   5.993   3.955 -0.9090 -0.4320 -0.0423
16598TIP3    H171285   3.513   6.057   3.927 -0.1534  0.3424 -0.0830
16598TIP3    H271286   3.542   5.956   4.035 -0.1438  2.0753  1.5946
16599TIP3   OH271287   4.586   3.677  12.231  0.3238  0.1424 -0.0408
16599TIP3    H171288   4.512   3.646  12.178 -0.9813  2.3421  0.3719
16599TIP3    H271289   4.563   3.651  12.320 -0.4452  1.5903  0.2131
16600TIP3   OH271290   4.341   5.061   4.584 -0.1640  0.5100 -0.4842
16600TIP3    H171291   4.398   5.131   4.551  1.1091  0.3451  1.2411
16600TIP3    H271292   4.342   5.072   4.679  0.2832 -1.9967 -0.1345
16601TIP3   OH271293   0.569   1.786   0.165 -0.6943  0.5989  0.1589
16601TIP3    H171294   0.585   1.836   0.245 -0.9629  1.2417 -0.1886
16601TIP3    H271295   0.648   1.800   0.112 -0.0277 -0.7064  0.7435
16602TIP3   OH271296   1.449   3.803   4.407 -0.7142  0.2223 -0.3623
16602TIP3    H171297   1.427   3.884   4.452 -0.0594 -0.3031  0.9509
16602TIP3    H271298   1.366   3.756   4.400 -1.0741  0.9319 -1.0299
16603TIP3   OH271299   5.171   0.605   3.288  0.2067 -0.2184 -0.0773
16603TIP3    H171300   5.111   0.538   3.321  0.4078 -0.4676 -0.2132
16603TIP3    H271301   5.117   0.683   3.276  0.0165 -0.2931  0.2935
16604TIP3   OH271302   1.042   4.148  13.137 -0.0349 -0.1207 -0.1030
16604TIP3    H171303   0.973   4.187  13.083  1.1964  0.6680 -1.1525
16604TIP3    H271304   1.093   4.223  13.168 -0.9246 -0.5073  2.5494
16605TIP3   OH271305   4.521   1.422   3.985  0.1647 -0.6498 -0.1359
16605TIP3    H171306   4.439   1.387   4.018 -0.2251 -0.4149 -0.8232
16605TIP3    H271307   4.560   1.467   4.059 -0.0974 -1.1668  0.3219
16606TIP3   OH271308   4.056   0.713  16.106  0.4587 -0.1759  0.0213
16606TIP3    H171309   4.036   0.772  16.178  1.4831  0.7573 -0.4450
16606TIP3    H271310   4.125   0.656  16.140  1.2482  0.5456 -0.3498
16607TIP3   OH271311   4.916   0.730  11.960  0.4643  0.5276  0.3196
16607TIP3    H171312   4.928   0.665  12.029 -1.7770 -0.5079 -0.1540
16607TIP3    H271313   4.900   0.678  11.881  1.2330  1.6894 -0.6365
16608TIP3   OH271314   4.579   6.202   2.097 -0.7238 -1.0563  0.0518
16608TIP3    H171315   4.605   6.180   2.186  1.2561 -2.5272 -0.8043
16608TIP3    H271316   4.500   6.151   2.081  0.2181 -2.6407  0.2384
16609TIP3   OH271317   1.398   6.700   2.678  0.3610  0.8620 -0.5218
16609TIP3    H171318   1.396   6.786   2.636 -0.5091 -0.1904 -2.7735
16609TIP3    H271319   1.468   6.653   2.633 -1.2271 -0.6200 -1.5286
16610TIP3   OH271320   4.537   4.938  15.625 -0.4623 -0.0131 -0.0649
16610TIP3    H171321   4.461   4.996  15.612 -0.8092 -0.1580  1.1818
16610TIP3    H271322   4.609   4.998  15.643 -1.0537  0.0594  2.3633
16611TIP3   OH271323   0.819   6.674   5.514  0.5368 -0.3383 -0.0191
16611TIP3    H171324   0.871   6.675   5.434 -0.7672 -1.2152 -0.9096
16611TIP3    H271325   0.869   6.728   5.576  2.3446 -0.9308 -0.9123
16612TIP3   OH271326   4.460   1.794   1.066  0.0688 -0.0093  0.1963
16612TIP3    H171327   4.527   1.790   1.135 -1.2402 -0.2472  1.5125
16612TIP3    H271328   4.510   1.805   0.985  1.6542  0.7497  1.2114
16613TIP3   OH271329   5.607   6.236   3.288  0.3527 -0.6350  0.1669
16613TIP3    H171330   5.551   6.159   3.281 -0.7063  0.1711 -0.5752
16613TIP3    H271331   5.551   6.309   3.263  0.9292  0.5759  2.1363
16614TIP3   OH271332   1.407   0.493  16.115  0.0555 -0.4134 -0.2263
16614TIP3    H171333   1.358   0.412  16.133  1.8534 -0.9540  2.8502
16614TIP3    H271334   1.477   0.465  16.055  0.9532 -1.3262  1.1853
16615TIP3   OH271335   3.983   6.573   0.017 -0.2156 -0.5536  0.2126
16615TIP3    H171336   4.028   6.642  -0.031 -0.9276 -0.1514  0.1112
16615TIP3    H271337   3.930   6.619   0.082  0.8763 -1.0927  1.5369
16616TIP3   OH271338   0.688   2.814   0.251 -0.3976 -0.0710 -0.3198
16616TIP3    H171339   0.683   2.876   0.178 -1.3429  0.9297  0.5729
16616TIP3    H271340   0.776   2.776   0.244 -0.4572  0.0302 -1.9400
16617TIP3   OH271341   0.458   0.120   3.790 -0.0494 -0.4130  0.3175
16617TIP3    H171342   0.428   0.136   3.700  0.5741 -1.2548 -0.0585
16617TIP3    H271343   0.417   0.189   3.842 -0.2126  0.2455 -0.6568
16618TIP3   OH271344   5.033   2.397  16.138 -0.3549  0.5622  0.4864
16618TIP3    H171345   5.114   2.376  16.093  0.6427  1.2319  1.8986
16618TIP3    H271346   5.052   2.379  16.231 -2.2473 -0.5753  0.7081
16619TIP3   OH271347   5.688   2.669   2.985 -0.4578 -0.3358  0.4403
16619TIP3    H171348   5.702   2.575   2.989  2.4238 -0.1005 -1.2234
16619TIP3    H271349   5.598   2.678   2.954 -0.0688 -2.6637 -1.7672
16620TIP3   OH271350   2.965   5.907  14.122 -0.3503 -0.0375  0.1730
16620TIP3    H171351   2.894   5.843  14.117  1.2059 -1.8056 -0.0857
16620TIP3    H271352   2.992   5.921  14.032  0.2985 -0.1421  0.3475
16621TIP3   OH271353   6.255   4.027   2.298  1.2234 -0.5409  0.1161
16621TIP3    H171354   6.298   3.946   2.268 -2.1213 -1.7280 -1.9483
16621TIP3    H271355   6.264   4.088   2.224 -1.4660 -1.2351 -0.8926
16622TIP3   OH271356   0.916   1.137   2.512  0.0348 -0.1313  0.4194
16622TIP3    H171357   0.991   1.194   2.495  0.0129  0.1095  1.1402
16622TIP3    H271358   0.954   1.049   2.519  0.0966 -0.1827 -0.4459
16623TIP3   OH271359   0.536   3.556  12.796  0.7009  0.5463  0.8796
16623TIP3    H171360   0.479   3.597  12.731  1.0140 -0.5685 -0.1560
16623TIP3    H271361   0.621   3.547  12.751  0.3065 -2.3833  0.4919
16624TIP3   OH271362   0.013   4.494  14.156  0.0212 -0.1023 -0.1465
16624TIP3    H171363   0.052   4.527  14.236 -2.4973 -0.9109  1.5370
16624TIP3    H271364  -0.017   4.572  14.109  0.2013  0.3023  0.4060
16625TIP3   OH271365   4.325   4.015  15.891 -0.0988  0.2419 -0.6381
16625TIP3    H171366   4.246   4.005  15.943 -0.1115  0.3493 -0.6368
16625TIP3    H271367   4.294   4.048  15.806  0.1762  2.8510  0.1984
16626TIP3   OH271368   2.428   0.196   3.988 -0.3379  0.1330  0.0917
16626TIP3    H171369   2.389   0.188   4.075 -1.2075 -0.6479 -0.3519
16626TIP3    H271370   2.373   0.142   3.932  1.1314 -0.6689 -0.6535
16627TIP3   OH271371   5.714   0.946   5.013 -0.2436  0.5358 -0.3815
16627TIP3    H171372   5.625   0.966   5.042  0.7608  1.0004  2.7575
16627TIP3    H271373   5.722   0.852   5.028 -0.5164  0.2815 -1.7293
16628TIP3   OH271374   4.911   5.307   1.411  0.0029 -0.4887 -0.3883
16628TIP3    H171375   4.982   5.283   1.470  0.1115 -1.3288 -0.8423
16628TIP3    H271376   4.926   5.254   1.333 -1.6723 -1.4215 -0.1163
16629TIP3   OH271377   0.813   4.758   2.975 -0.3062  0.0758  0.1534
16629TIP3    H171378   0.777   4.694   2.913  0.8169 -0.0309 -0.4222
16629TIP3    H271379   0.736   4.799   3.015 -1.0691 -0.0323 -1.1359
16630TIP3   OH271380   5.025   1.743  13.671 -0.4797  0.2698  0.1886
16630TIP3    H171381   4.989   1.658  13.695 -1.8831  0.5763 -0.6545
16630TIP3    H271382   5.113   1.744  13.708 -0.4742 -1.4888  0.3117
16631TIP3   OH271383   5.838   6.321   2.740 -0.4682 -0.0089  0.3945
16631TIP3    H171384   5.864   6.288   2.825  2.3962 -0.1891 -0.4580
16631TIP3    H271385   5.784   6.251   2.702  0.4602 -1.0785  1.0114
16632TIP3   OH271386   2.735   6.097  14.267  0.1169 -0.0582 -0.0778
16632TIP3    H171387   2.784   6.025  14.305  0.6526 -0.0954 -0.8232
16632TIP3    H271388   2.645   6.065  14.261 -0.1950  0.2860  2.0148
16633TIP3   OH271389   3.517   1.167  10.905  0.0432  0.4567 -0.2397
16633TIP3    H171390   3.503   1.217  10.825  0.2289  1.4760  0.3444
16633TIP3    H271391   3.444   1.192  10.962  1.4317  1.9968  0.9695
16634TIP3   OH271392   3.959   1.908   5.069 -0.1762 -0.1237  0.1738
16634TIP3    H171393   3.998   1.837   5.121  0.6838  1.6221  2.0650
16634TIP3    H271394   3.912   1.961   5.133  0.2191  1.6711 -0.9676
16635TIP3   OH271395   1.177   4.743  11.731  0.2133 -0.0876 -0.0432
16635TIP3    H171396   1.205   4.755  11.822  0.8972  1.0030 -0.3694
16635TIP3    H271397   1.214   4.818  11.685  0.2715 -0.8660 -1.3191
16636TIP3   OH271398   3.614   6.462  14.779 -0.0651 -0.0628  0.1523
16636TIP3    H171399   3.558   6.403  14.728  1.7840 -3.1860  1.4388
16636TIP3    H271400   3.581   6.454  14.869 -0.1356  1.3983  0.2811
16637TIP3   OH271401   0.359   1.694  10.740 -0.4342  0.2238  0.1341
16637TIP3    H171402   0.328   1.667  10.654 -1.0549 -2.1375  1.0246
16637TIP3    H271403   0.447   1.728  10.725 -1.1420  1.4214 -1.6129
16638TIP3   OH271404   4.200   4.797  11.191 -0.9474 -0.4994  1.2072
16638TIP3    H171405   4.281   4.847  11.205 -0.8544 -0.1341 -0.4448
16638TIP3    H271406   4.147   4.815  11.269 -0.6638  1.7327  0.9449
16639TIP3   OH271407   1.957   5.771   1.949 -0.2340  0.1399 -0.1938
16639TIP3    H171408   1.999   5.815   2.023  0.8651  1.8921 -1.7426
16639TIP3    H271409   2.011   5.693   1.934  0.8303  0.8882 -0.4076
16640TIP3   OH271410   5.918   4.592   2.011 -0.0638 -0.1839 -0.1017
16640TIP3    H171411   5.989   4.527   2.013 -0.3858 -0.5173  0.5716
16640TIP3    H271412   5.951   4.660   1.952  1.0611 -0.0644  0.6226
16641TIP3   OH271413   2.093   4.609  12.975 -0.2547 -0.2862  0.1703
16641TIP3    H171414   2.068   4.584  12.886 -0.8703  2.3135 -0.4933
16641TIP3    H271415   2.185   4.632  12.969  0.2175 -1.9249  0.6926
16642TIP3   OH271416   4.090   3.907  10.842 -0.0014  0.2396 -0.0900
16642TIP3    H171417   4.050   3.827  10.875  0.7699  0.0978  0.5460
16642TIP3    H271418   4.019   3.953  10.797 -0.3517 -1.0272 -0.9128
16643TIP3   OH271419   3.304   5.914  15.070  0.1313  0.4466 -0.3177
16643TIP3    H171420   3.276   5.824  15.084 -0.3716  0.6144 -0.2122
16643TIP3    H271421   3.299   5.927  14.975  0.3267  0.3242 -0.3440
16644TIP3   OH271422   3.744   0.198  16.993 -0.2151  0.0523 -0.5646
16644TIP3    H171423   3.816   0.143  16.964 -0.8080 -0.3705 -1.2668
16644TIP3    H271424   3.736   0.180  17.087 -0.6317 -1.3558 -0.8418
16645TIP3   OH271425   4.335   0.877  15.867 -0.0967 -0.5346 -0.0992
16645TIP3    H171426   4.343   0.827  15.785  0.3619  1.4083 -1.3272
16645TIP3    H271427   4.424   0.910  15.883 -0.0656 -1.3716  1.5284
16646TIP3   OH271428   4.829   3.892  10.558  0.2287 -0.0290 -0.4080
16646TIP3    H171429   4.773   3.964  10.530  2.8656  2.1489 -0.4645
16646TIP3    H271430   4.791   3.815  10.516 -0.7419  1.8276 -3.2528
16647TIP3   OH271431   4.590   2.359  11.250  0.2100  0.0893 -0.1749
16647TIP3    H171432   4.599   2.318  11.164  0.5849 -0.0914 -0.0482
16647TIP3    H271433   4.659   2.425  11.253  0.7140 -0.4425  0.2943
16648TIP3   OH271434   0.620   5.125   4.998 -0.2273  0.2431 -0.9965
16648TIP3    H171435   0.566   5.122   5.076 -0.7156  0.8801 -1.3100
16648TIP3    H271436   0.677   5.047   5.006  0.0550  0.5459  0.2105
16649TIP3   OH271437   6.666   4.811   2.556  0.7320 -0.2719 -0.1747
16649TIP3    H171438   6.724   4.876   2.595  2.5443 -1.6503 -0.3953
16649TIP3    H271439   6.725   4.756   2.503 -0.9715 -1.0815 -1.3167
16650TIP3   OH271440   3.315   3.509  15.644  0.0454  0.2008  0.2247
16650TIP3    H171441   3.330   3.571  15.572  1.3689 -0.3409 -0.0014
16650TIP3    H271442   3.400   3.503  15.688 -0.7532  0.5554  1.8946
16651TIP3   OH271443   1.062   4.300  10.804 -0.6298 -0.0431  0.1181
16651TIP3    H171444   1.097   4.318  10.891 -0.7987 -0.3506  0.2530
16651TIP3    H271445   1.102   4.216  10.779 -0.6854 -0.0215 -0.0446
16652TIP3   OH271446   0.775   3.247   2.716 -0.1008 -0.5093  0.0774
16652TIP3    H171447   0.704   3.229   2.653 -0.6815 -1.1343  0.8883
16652TIP3    H271448   0.854   3.213   2.673 -0.0575  1.2811 -1.3616
16653TIP3   OH271449   4.078   2.319   4.453  0.5916  0.9462  0.3233
16653TIP3    H171450   4.115   2.243   4.498 -0.8794  1.3586  2.3715
16653TIP3    H271451   4.062   2.289   4.363  0.9617 -0.8390  0.8170
16654TIP3   OH271452   5.989   4.568   1.352  0.6051 -0.0923  0.4963
16654TIP3    H171453   5.995   4.610   1.266  0.5191  0.6985  0.8677
16654TIP3    H271454   6.070   4.594   1.397 -1.1057  2.9024  2.1280
16655TIP3   OH271455   3.370   0.843   0.115 -0.6171  0.1030  0.0279
16655TIP3    H171456   3.398   0.908   0.179 -0.0234 -0.3231  0.1955
16655TIP3    H271457   3.448   0.793   0.095 -0.7949  0.2133 -1.0145
16656TIP3   OH271458   1.059   0.957  14.682  0.5131  0.4528  0.3413
16656TIP3    H171459   1.028   0.962  14.592  0.9101  2.3136  0.2818
16656TIP3    H271460   1.015   1.029  14.727 -0.2802 -0.9016  1.8594
16657TIP3   OH271461   4.774   0.151  12.862 -0.3751 -0.1134 -0.6338
16657TIP3    H171462   4.721   0.072  12.873  0.0894 -0.2016  1.3440
16657TIP3    H271463   4.861   0.118  12.840 -0.2557 -0.1604 -0.1138
16658TIP3   OH271464   1.852   2.924  16.962 -0.1576 -0.2061  0.7270
16658TIP3    H171465   1.810   2.993  16.911  0.5868 -0.1237  0.2212
16658TIP3    H271466   1.783   2.894  17.022 -0.7061  0.4599  0.4455
16659TIP3   OH271467   5.438   5.397   3.472  0.6334 -0.0356 -0.4230
16659TIP3    H171468   5.522   5.428   3.506  1.8932 -1.5832 -1.9623
16659TIP3    H271469   5.459   5.357   3.388 -1.8417  0.5154 -1.3926
16660TIP3   OH271470   5.040   5.212   1.647 -0.4587 -0.4185 -0.3589
16660TIP3    H171471   5.135   5.220   1.641 -0.4885 -0.9190 -1.8204
16660TIP3    H271472   5.021   5.123   1.620 -1.5044  0.4397 -2.7339
16661TIP3   OH271473   1.103   6.515  13.976 -0.3980 -0.3832 -0.1390
16661TIP3    H171474   1.157   6.438  13.994  2.2324  1.1489 -0.9398
16661TIP3    H271475   1.084   6.510  13.882 -0.3962 -0.1715 -0.1520
16662TIP3   OH271476   4.116   3.148   5.658  0.0093 -0.3390  0.0200
16662TIP3    H171477   4.073   3.163   5.574 -1.1470 -1.1608  0.4463
16662TIP3    H271478   4.052   3.177   5.723 -0.7902 -3.4090  0.7552
16663TIP3   OH271479   3.786   0.715  16.833 -0.0493 -0.3932 -0.1309
16663TIP3    H171480   3.872   0.714  16.875 -0.2905  0.8706  0.4437
16663TIP3    H271481   3.733   0.655  16.885  0.1301 -0.1660  0.3217
16664TIP3   OH271482   2.419   5.636   1.248  0.2593 -0.2024  0.9731
16664TIP3    H171483   2.470   5.598   1.319 -1.4055 -4.5347  0.1557
16664TIP3    H271484   2.329   5.636   1.281 -0.2477 -0.2519 -0.3314
16665TIP3   OH271485   2.826   1.884   1.856  0.1272 -0.4576  0.1122
16665TIP3    H171486   2.782   1.810   1.815 -0.4415 -0.3004  0.4297
16665TIP3    H271487   2.835   1.948   1.786 -1.5143  0.1113  0.3800
16666TIP3   OH271488   4.649   5.536  12.714 -0.4247 -0.3679  0.3915
16666TIP3    H171489   4.691   5.471  12.657  1.0508  1.6955 -1.0498
16666TIP3    H271490   4.680   5.620  12.680 -3.3816  1.1929  1.2278
16667TIP3   OH271491   1.432   1.782   1.525  0.2081 -0.7299 -0.4642
16667TIP3    H171492   1.373   1.761   1.452  0.0969 -0.5338 -0.4296
16667TIP3    H271493   1.390   1.854   1.571  0.1621 -1.0073 -0.0653
16668TIP3   OH271494   5.182   4.331  16.024  0.2741  0.4025  0.0588
16668TIP3    H171495   5.174   4.335  16.119 -0.9404 -0.1079 -0.0053
16668TIP3    H271496   5.166   4.420  15.995 -1.4378  0.1809  0.2214
16669TIP3   OH271497   4.185   6.231   2.063 -0.0025 -0.4532  0.1556
16669TIP3    H171498   4.114   6.280   2.023 -0.3341 -1.2068 -0.1831
16669TIP3    H271499   4.176   6.249   2.157  0.0550  0.3526  0.0162
16670TIP3   OH271500   5.929   5.272   1.539  0.0066 -0.0816  0.2157
16670TIP3    H171501   5.912   5.189   1.584 -0.8349 -0.3582 -0.5832
16670TIP3    H271502   5.965   5.246   1.454  0.2117  0.3898  0.1550
16671TIP3   OH271503   0.126   3.180   4.548 -0.7875 -0.2171 -0.6046
16671TIP3    H171504   0.210   3.136   4.536  1.0554  2.6226  0.7455
16671TIP3    H271505   0.080   3.127   4.612  1.1557 -0.4853  0.6483
16672TIP3   OH271506   4.423   0.213  16.167  0.0590 -0.1113  0.6487
16672TIP3    H171507   4.349   0.214  16.106  0.9381 -1.0270 -0.4887
16672TIP3    H271508   4.444   0.120  16.178  1.3939  0.1393  0.4763
16673TIP3   OH271509   2.847   5.792  13.122  0.0412  0.3630 -0.0465
16673TIP3    H171510   2.827   5.866  13.065 -1.5734  0.4541  0.5913
16673TIP3    H271511   2.804   5.717  13.081  1.7977 -0.3204 -0.7746
16674TIP3   OH271512   4.772   2.433   1.590 -0.3273  0.4096  0.3256
16674TIP3    H171513   4.774   2.501   1.523 -1.6519 -2.5072 -2.9916
16674TIP3    H271514   4.681   2.429   1.618 -0.6255 -0.8993 -0.6885
16675TIP3   OH271515   3.996   6.741   3.261  0.4449 -0.0887 -0.0936
16675TIP3    H171516   3.918   6.744   3.205  1.4097 -0.5169 -1.4963
16675TIP3    H271517   4.031   6.830   3.258 -1.1030  0.7005  2.2593
16676TIP3   OH271518   6.455   5.935  14.750 -0.0021  0.5011 -0.3775
16676TIP3    H171519   6.425   5.844  14.754  4.1965 -1.1608 -1.1407
16676TIP3    H271520   6.440   5.960  14.659  0.2170  0.0001 -0.5560
16677TIP3   OH271521   1.175   5.680   5.220 -0.2449  0.3827 -0.6563
16677TIP3    H171522   1.193   5.748   5.284  2.0101  0.0846 -0.8881
16677TIP3    H271523   1.131   5.611   5.269  0.5749  0.5669  0.3647
16678TIP3   OH271524   1.942   0.152  15.305  0.1796  0.4372  0.1439
16678TIP3    H171525   1.921   0.193  15.221  2.8303 -1.3139 -1.5469
16678TIP3    H271526   2.001   0.214  15.348 -1.7201  1.6544  1.1505
16679TIP3   OH271527   2.053   4.105   3.694  0.3715 -0.1917 -0.0611
16679TIP3    H171528   2.109   4.182   3.702 -0.3232  0.4703 -1.2125
16679TIP3    H271529   2.109   4.038   3.653  0.8663 -0.1878  0.5936
16680TIP3   OH271530   3.130   1.057  14.849 -0.5004 -0.0107 -0.3403
16680TIP3    H171531   3.095   0.996  14.784  0.3486  0.5749 -1.3814
16680TIP3    H271532   3.143   1.139  14.801  1.4378  0.0513  0.1806
16681TIP3   OH271533   3.247   1.644   2.823 -0.2009  0.2484 -0.5928
16681TIP3    H171534   3.261   1.589   2.900  0.1191  2.0056  0.6673
16681TIP3    H271535   3.298   1.723   2.841 -2.3316  1.8730 -1.3407
16682TIP3   OH271536   4.264   0.016  12.510  0.2965  0.9185  0.4373
16682TIP3    H171537   4.276  -0.070  12.549  1.7773  0.9692  0.1510
16682TIP3    H271538   4.236  -0.002  12.420 -0.8163  0.7812  0.7893
16683TIP3   OH271539   5.379   1.795  16.248 -0.0118 -0.3268  0.2629
16683TIP3    H171540   5.379   1.862  16.316  1.1183  0.4029 -0.4090
16683TIP3    H271541   5.398   1.713  16.293 -0.0622  0.0247  0.9235
16684TIP3   OH271542   3.532   3.393   1.323  1.2520  0.2880 -0.2370
16684TIP3    H171543   3.558   3.307   1.357  1.2061  0.2819 -0.2182
16684TIP3    H271544   3.489   3.375   1.240 -2.4615 -0.0940  1.5852
16685TIP3   OH271545   4.687   5.108   4.386 -0.2773  0.6120 -0.7666
16685TIP3    H171546   4.688   5.102   4.481 -0.0335 -0.2482 -0.8169
16685TIP3    H271547   4.649   5.194   4.368 -2.2799 -0.0343  0.0737
16686TIP3   OH271548   3.216   4.218  13.499 -0.2594 -0.3457  0.2782
16686TIP3    H171549   3.287   4.212  13.435 -1.5844 -1.2633 -1.1846
16686TIP3    H271550   3.232   4.145  13.560 -0.2154 -0.8538 -0.3342
16687TIP3   OH271551   1.141   5.425   1.307  0.6289 -0.4221 -0.2091
16687TIP3    H171552   1.134   5.491   1.376  0.8685 -0.9385  0.3192
16687TIP3    H271553   1.140   5.475   1.226  0.9630  0.2449  0.1876
16688TIP3   OH271554   5.873   1.472  12.321 -0.3448 -0.4855 -0.5625
16688TIP3    H171555   5.881   1.391  12.373  0.3995  0.1613  0.3611
16688TIP3    H271556   5.805   1.452  12.257  0.3520 -2.1160 -0.8543
16689TIP3   OH271557   4.081   6.211   2.329  0.0095 -0.1421  0.0593
16689TIP3    H171558   4.025   6.283   2.302  2.3142  1.4040 -1.0065
16689TIP3    H271559   4.131   6.246   2.403  2.2253  0.0283 -1.4045
16690TIP3   OH271560   0.532   0.023   2.256  0.4735  0.1995  0.6300
16690TIP3    H171561   0.516  -0.030   2.178  0.0830 -0.7676  1.3511
16690TIP3    H271562   0.507   0.112   2.230 -1.4110 -0.4218  0.2098
16691TIP3   OH271563   1.875   0.930  11.340  0.0396  0.0660 -0.0248
16691TIP3    H171564   1.789   0.968  11.323  0.1005  0.0651 -0.3526
16691TIP3    H271565   1.868   0.839  11.313  0.0182 -0.0495  0.3619
16692TIP3   OH271566   1.519   5.908   0.480  0.0212  0.5185 -0.1077
16692TIP3    H171567   1.566   5.944   0.556  0.4143 -1.6506  0.7425
16692TIP3    H271568   1.502   5.984   0.424  0.2932  2.0916  1.8398
16693TIP3   OH271569   2.101   1.394   3.462 -0.0025  0.1031 -0.2514
16693TIP3    H171570   2.089   1.418   3.370  0.5897 -0.5895 -0.5170
16693TIP3    H271571   2.196   1.379   3.470  0.0112  0.6237  0.5845
16694TIP3   OH271572   1.350   6.692  12.773 -0.0736  0.0277 -0.1450
16694TIP3    H171573   1.295   6.623  12.736  1.5255  0.0055 -2.7155
16694TIP3    H271574   1.294   6.770  12.771 -1.2546 -0.7564  0.9574
16695TIP3   OH271575   2.483   5.216  16.487 -0.2050  0.1222  0.4799
16695TIP3    H171576   2.398   5.258  16.477 -1.1530 -2.1813 -3.1145
16695TIP3    H271577   2.543   5.269  16.434  0.3906  1.0094  1.9721
16696TIP3   OH271578   3.839   1.396  16.241 -0.3482  0.3886 -0.0597
16696TIP3    H171579   3.796   1.418  16.324  0.0471  1.6212 -0.1641
16696TIP3    H271580   3.803   1.459  16.178  0.8525  0.7822 -0.3705
16697TIP3   OH271581   1.631   6.215   2.270  0.1656 -0.0560 -0.6624
16697TIP3    H171582   1.699   6.224   2.337 -1.8566  0.2394  1.4816
16697TIP3    H271583   1.620   6.303   2.236  0.5920 -0.0363 -0.7605
16698TIP3   OH271584   1.627   6.304   4.177  0.5595  0.6585 -0.3832
16698TIP3    H171585   1.564   6.376   4.175 -1.2710 -0.7660  1.4129
16698TIP3    H271586   1.704   6.340   4.219  0.0208  1.8082 -0.3539
16699TIP3   OH271587   6.282   2.279  14.583 -0.4733  0.0081  0.2654
16699TIP3    H171588   6.343   2.351  14.575  0.3222 -0.7937 -1.3389
16699TIP3    H271589   6.199   2.320  14.609  0.1720  1.3675  0.2361
16700TIP3   OH271590   2.948   5.824   0.411  0.4360 -0.1962 -0.3290
16700TIP3    H171591   2.973   5.826   0.503 -0.0182 -0.5935 -0.1885
16700TIP3    H271592   3.003   5.756   0.372  0.7207  0.0633 -0.3798
16701TIP3   OH271593   2.952   3.912  13.413  0.5464 -0.1557 -0.6166
16701TIP3    H171594   2.942   3.991  13.466  0.7112 -0.2856 -0.3895
16701TIP3    H271595   2.872   3.861  13.429  0.6570 -0.2565 -0.3904
16702TIP3   OH271596   4.138   3.696   1.648  0.0241 -0.5594  0.1739
16702TIP3    H171597   4.056   3.700   1.696 -0.7264 -0.7816 -1.0543
16702TIP3    H271598   4.166   3.787   1.640 -0.5406 -0.4036 -0.1040
16703TIP3   OH271599   1.140   4.809   5.682 -0.1860 -0.2185 -0.5346
16703TIP3    H171600   1.057   4.769   5.709  0.3663 -2.0387 -1.4509
16703TIP3    H271601   1.194   4.806   5.761 -0.4363 -0.5015 -0.3705
16704TIP3   OH271602   6.760   3.743  12.233 -0.0884 -0.1005  0.2069
16704TIP3    H171603   6.821   3.804  12.274  0.1205 -1.0052  1.2877
16704TIP3    H271604   6.750   3.672  12.297 -2.2472 -0.0039  0.0361
16705TIP3   OH271605   3.966   5.814   3.521  0.4643  0.4051 -0.0479
16705TIP3    H171606   3.992   5.735   3.568  0.8317  0.9582  0.6887
16705TIP3    H271607   3.875   5.799   3.496  0.2975  0.0731  0.7545
16706TIP3   OH271608   0.332   4.366  12.963  0.0169  0.0867  0.3683
16706TIP3    H171609   0.293   4.434  12.908 -1.0800  1.7569  3.0295
16706TIP3    H271610   0.421   4.355  12.930 -0.0788  2.1677 -0.6904
16707TIP3   OH271611   0.499   1.022   4.590 -0.4270 -0.3136  0.3564
16707TIP3    H171612   0.529   1.069   4.512 -3.4501  0.5748 -0.4179
16707TIP3    H271613   0.465   0.939   4.556 -1.0286 -0.2600  0.8116
16708TIP3   OH271614   5.717   1.896  16.171  0.8010 -0.2330 -0.1524
16708TIP3    H171615   5.703   1.957  16.099 -0.5980 -0.2881  0.0288
16708TIP3    H271616   5.688   1.944  16.249  1.1153 -0.6060  0.1988
16709TIP3   OH271617   3.042   3.533  10.838 -0.1035  0.2033  0.7665
16709TIP3    H171618   2.957   3.490  10.836 -0.4855  0.9537  0.4661
16709TIP3    H271619   3.023   3.625  10.818  0.9761  0.0599 -1.2302
16710TIP3   OH271620   2.761   0.924   2.819 -0.2179 -0.2247 -0.0161
16710TIP3    H171621   2.670   0.947   2.799 -0.6638 -1.1629  0.8326
16710TIP3    H271622   2.777   0.962   2.905  0.3257  0.2434 -0.3163
16711TIP3   OH271623   6.488   5.490  16.257 -0.1120  0.0736  0.2933
16711TIP3    H171624   6.398   5.512  16.281 -1.0528 -0.5337 -2.3489
16711TIP3    H271625   6.492   5.395  16.261 -0.2953 -0.0520 -1.7038
16712TIP3   OH271626   1.629   5.815  11.592 -0.0195 -0.6981 -0.1252
16712TIP3    H171627   1.613   5.866  11.513  0.3065 -0.7400 -0.2169
16712TIP3    H271628   1.663   5.878  11.655 -1.3367 -0.4318  0.3503
16713TIP3   OH271629   1.813   2.656  10.481 -0.1113 -0.5989  0.0935
16713TIP3    H171630   1.821   2.566  10.512  0.9667 -0.4892  0.1617
16713TIP3    H271631   1.835   2.652  10.388  1.2982 -0.2043  0.3943
16714TIP3   OH271632   6.229   1.860   6.422 -0.4582  0.2698 -0.1015
16714TIP3    H171633   6.143   1.895   6.445  0.3712  0.4204  3.2212
16714TIP3    H271634   6.290   1.931   6.443  0.7670 -1.1356  1.2879
16715TIP3   OH271635   2.387   3.834  13.094 -0.4563  0.7884 -0.3362
16715TIP3    H171636   2.353   3.769  13.033 -0.6819  0.3952  0.1935
16715TIP3    H271637   2.318   3.900  13.100 -0.4779  0.7738 -0.4341
16716TIP3   OH271638   2.215   6.528  14.756  0.2819 -0.4122  0.7496
16716TIP3    H171639   2.182   6.480  14.832 -0.9213 -0.3347  0.2965
16716TIP3    H271640   2.305   6.552  14.780  0.3469 -1.4513  1.6447
16717TIP3   OH271641   0.276   2.063  16.796  0.0004 -0.0805  0.6006
16717TIP3    H171642   0.356   2.044  16.844 -0.4212  2.0289  2.3074
16717TIP3    H271643   0.281   2.007  16.719  1.7973 -1.9719  1.9666
16718TIP3   OH271644   5.825   6.131   3.500 -0.1811 -0.1449  0.2059
16718TIP3    H171645   5.851   6.116   3.591 -1.8246  0.0155  0.7277
16718TIP3    H271646   5.732   6.153   3.504 -0.5867 -1.2469 -1.6089
16719TIP3   OH271647   1.195   5.532   1.596 -0.1125  0.5534 -0.4337
16719TIP3    H171648   1.180   5.603   1.534  0.7303  1.4306  0.3135
16719TIP3    H271649   1.290   5.531   1.608 -0.1730 -0.2700  0.0740
16720TIP3   OH271650   4.920   3.775   5.186 -0.4128  0.0705 -0.0819
16720TIP3    H171651   4.903   3.800   5.095 -0.8924 -0.6198 -0.1874
16720TIP3    H271652   4.897   3.683   5.190  0.7343 -0.2143  0.4576
16721TIP3   OH271653   6.340   1.570  10.839 -0.3233 -0.7333 -0.1225
16721TIP3    H171654   6.380   1.625  10.772 -0.3302 -1.4445 -0.7198
16721TIP3    H271655   6.246   1.578  10.823 -0.4247  0.4125  0.8659
16722TIP3   OH271656   0.871   6.552   5.076 -0.1142  0.1431  0.3805
16722TIP3    H171657   0.936   6.584   5.013 -1.2899  0.6061 -0.6375
16722TIP3    H271658   0.836   6.472   5.037  0.7895 -0.8849  1.5835
16723TIP3   OH271659   1.266   4.386   6.058 -1.0123  0.2584  0.2643
16723TIP3    H171660   1.244   4.440   6.134  1.0782  0.7861  0.5674
16723TIP3    H271661   1.361   4.374   6.064 -1.1027 -1.5566 -1.0703
16724TIP3   OH271662   1.015   3.736   1.119  0.1336 -0.0092  0.3163
16724TIP3    H171663   0.981   3.695   1.199 -1.1364  0.7569  0.1971
16724TIP3    H271664   0.958   3.702   1.049 -0.1684  0.9993  0.0538
16725TIP3   OH271665   4.477   0.096  11.403  0.2283  0.2806  0.8670
16725TIP3    H171666   4.431   0.120  11.483 -1.2226  3.0843 -0.6458
16725TIP3    H271667   4.486   0.178  11.355  1.6964 -1.1574 -1.5522
16726TIP3   OH271668   3.015   5.576   3.541 -0.4076 -0.2649 -0.0900
16726TIP3    H171669   2.957   5.505   3.512 -0.5778 -0.5034  0.7887
16726TIP3    H271670   2.988   5.594   3.631 -0.2506  0.8121 -0.2462
16727TIP3   OH271671   5.003   0.594  13.032 -0.0367  0.2115 -0.1753
16727TIP3    H171672   5.067   0.549  12.978  0.1329 -0.6997  0.7495
16727TIP3    H271673   4.949   0.643  12.970  1.7955  1.3722 -0.9445
16728TIP3   OH271674   3.214   2.188   3.469 -0.1090 -0.2571 -0.0467
16728TIP3    H171675   3.150   2.118   3.476  0.3491 -0.6895 -0.1139
16728TIP3    H271676   3.167   2.267   3.497 -0.5273 -0.6480  0.3700
16729TIP3   OH271677   3.613   4.066   0.948 -0.5706  0.0483  0.0664
16729TIP3    H171678   3.704   4.074   0.917 -0.5769 -0.7128 -0.1520
16729TIP3    H271679   3.613   4.114   1.031 -0.0486  0.3270 -0.0823
16730TIP3   OH271680   3.100   1.910  15.611  0.4231 -0.5860  0.1815
16730TIP3    H171681   3.029   1.914  15.676  1.0249 -0.1726  0.8249
16730TIP3    H271682   3.056   1.882  15.530 -0.7336  1.1000  0.1771
16731TIP3   OH271683   5.783   5.074   6.152  0.1306  0.2789  0.1810
16731TIP3    H171684   5.744   5.158   6.177  0.5537  0.2839  0.8670
16731TIP3    H271685   5.750   5.012   6.217  0.2133  0.0189 -0.0228
16732TIP3   OH271686   1.392   2.440   1.010 -0.2244  0.4872 -0.2836
16732TIP3    H171687   1.367   2.529   0.985 -0.5842  0.8846  1.3729
16732TIP3    H271688   1.362   2.385   0.937  0.0508  1.7156 -1.3472
16733TIP3   OH271689   5.780   3.044   4.523  0.1845 -0.2324 -0.2625
16733TIP3    H171690   5.838   3.085   4.588 -0.6417  1.3112 -0.4314
16733TIP3    H271691   5.809   2.953   4.518  0.9265 -0.1423  1.5309
16734TIP3   OH271692   2.442   3.863   0.671 -0.1351 -0.0978  0.1248
16734TIP3    H171693   2.524   3.909   0.652 -0.1074 -0.0547  0.3489
16734TIP3    H271694   2.394   3.922   0.729  0.3004 -0.7490  1.1689
16735TIP3   OH271695   5.441   3.042   2.732  0.6854 -0.5078 -0.4671
16735TIP3    H171696   5.401   3.119   2.690 -0.8050 -1.5777 -1.1179
16735TIP3    H271697   5.449   3.066   2.824 -1.7443 -0.2794 -0.2493
16736TIP3   OH271698   4.254   2.018   0.529  0.1504 -0.4966 -0.4236
16736TIP3    H171699   4.260   1.967   0.609 -4.6204 -1.1578 -0.2246
16736TIP3    H271700   4.282   1.959   0.459 -0.4274 -1.6567  0.3120
16737TIP3   OH271701   1.874   0.967  14.081  0.1255  0.3342  0.2332
16737TIP3    H171702   1.945   0.948  14.021  0.9872  0.2641  1.2439
16737TIP3    H271703   1.854   0.883  14.123  2.7916  1.0955  3.4717
16738TIP3   OH271704   5.970   5.185  12.258  0.5419 -0.3380  0.3254
16738TIP3    H171705   5.895   5.223  12.305 -0.4428 -1.4939 -0.2421
16738TIP3    H271706   5.938   5.176  12.168  1.1721 -1.3647  0.1976
16739TIP3   OH271707   4.540   1.210  12.337 -0.2231 -0.2350  0.5050
16739TIP3    H171708   4.499   1.267  12.402 -0.2527 -0.1828  0.4397
16739TIP3    H271709   4.589   1.145  12.389 -0.4866 -0.3728  0.5828
16740TIP3   OH271710   3.966   2.168  13.345  0.1841  0.2561  0.2654
16740TIP3    H171711   3.981   2.262  13.336  0.7391  0.2083  0.6391
16740TIP3    H271712   4.013   2.144  13.424  1.2940 -0.6150 -0.6379
16741TIP3   OH271713   6.697   2.366   2.242 -0.0940  0.5687 -0.3594
16741TIP3    H171714   6.777   2.324   2.273 -0.1217  0.8255  0.0594
16741TIP3    H271715   6.700   2.454   2.279  0.7484  1.5049 -2.4996
16742TIP3   OH271716   6.484   2.608  16.146  0.6258 -0.5768  0.0553
16742TIP3    H171717   6.462   2.570  16.232  0.6723  0.5698  0.5912
16742TIP3    H271718   6.579   2.618  16.148  0.4457  1.2950  0.6849
16743TIP3   OH271719   5.903   2.738  13.872  0.4130  0.3323 -0.2707
16743TIP3    H171720   5.856   2.681  13.933 -0.5150  1.2194 -0.1453
16743TIP3    H271721   5.968   2.680  13.831 -0.6269 -0.8652 -0.2841
16744TIP3   OH271722   3.388   0.098  11.932  0.3441 -0.7588 -0.5910
16744TIP3    H171723   3.426   0.087  12.019 -0.8594 -1.6207 -0.1452
16744TIP3    H271724   3.344   0.015  11.914 -0.6619 -0.0825 -1.4019
16745TIP3   OH271725   3.176   0.133   5.495  0.1621  0.0837 -0.0547
16745TIP3    H171726   3.270   0.141   5.512 -0.0887  1.1587  0.9330
16745TIP3    H271727   3.150   0.053   5.542  0.5723 -0.2333 -0.3518
16746TIP3   OH271728   0.036   0.153   2.147  0.8387 -0.4541  0.1286
16746TIP3    H171729   0.045   0.080   2.086 -0.7108 -0.9001  0.4047
16746TIP3    H271730  -0.013   0.117   2.221  2.1046  0.2474  1.3638
16747TIP3   OH271731   6.563   1.992   2.265 -0.3743  0.1238  0.1598
16747TIP3    H171732   6.516   2.074   2.280 -3.9668 -1.9738  1.7094
16747TIP3    H271733   6.543   1.969   2.174 -0.9853  0.0738  0.3020
16748TIP3   OH271734   5.855   6.392   5.732 -0.4226 -0.9781 -0.1913
16748TIP3    H171735   5.834   6.479   5.697  0.5787 -1.0584 -1.0391
16748TIP3    H271736   5.799   6.383   5.809  0.0361  0.7453  0.3780
16749TIP3   OH271737   3.267   4.891   3.544  0.4043 -0.5954 -0.5801
16749TIP3    H171738   3.270   4.980   3.578  1.3942 -1.4515  1.7572
16749TIP3    H271739   3.231   4.901   3.455  0.8215  2.1346 -0.5387
16750TIP3   OH271740   1.937   3.594  12.133 -0.0607 -0.2418 -0.0821
16750TIP3    H171741   1.948   3.541  12.212  1.5568  1.7059  1.1011
16750TIP3    H271742   1.876   3.663  12.158 -0.0231  0.0339 -0.7315
16751TIP3   OH271743   6.382   6.509   1.350 -0.0059  0.3264  0.1102
16751TIP3    H171744   6.434   6.557   1.414 -0.9676 -0.1617  1.3074
16751TIP3    H271745   6.351   6.432   1.397 -1.1482  0.1955 -0.7904
16752TIP3   OH271746   4.377   6.169  10.598  0.1160  0.4412  0.2661
16752TIP3    H171747   4.464   6.145  10.628 -0.4874 -0.2983  1.5429
16752TIP3    H271748   4.324   6.090  10.612 -0.9272  1.1124  0.2744
16753TIP3   OH271749   2.330   1.265  12.499  1.2664 -0.3768 -0.2085
16753TIP3    H171750   2.375   1.305  12.425  2.5354 -1.6521 -0.1715
16753TIP3    H271751   2.376   1.182  12.512 -1.4263 -2.0275 -0.4973
16754TIP3   OH271752   0.105   6.802   0.044 -0.2224 -0.1619  0.5811
16754TIP3    H171753   0.047   6.846  -0.019 -1.7650 -0.1041  1.9796
16754TIP3    H271754   0.154   6.873   0.086 -0.5898 -0.0269  0.7851
16755TIP3   OH271755   0.472   1.066  12.891 -0.0928  0.0149 -0.0359
16755TIP3    H171756   0.436   1.015  12.964 -1.4192  0.2375 -0.4986
16755TIP3    H271757   0.478   1.155  12.925  0.3750 -0.0892  0.1583
16756TIP3   OH271758   3.176   1.376  13.291 -0.4141  0.1780  0.1954
16756TIP3    H171759   3.181   1.366  13.196 -0.0028  2.1770 -0.0293
16756TIP3    H271760   3.098   1.429  13.306  0.5253  1.4611  0.7915
16757TIP3   OH271761   4.981   5.380  16.240  0.0535 -0.1076  0.0579
16757TIP3    H171762   4.954   5.393  16.149  3.2034 -0.5541 -1.0743
16757TIP3    H271763   4.993   5.285  16.247  1.3891  0.0589  0.3632
16758TIP3   OH271764   2.074   6.484   2.029 -0.1807  0.1593  0.1200
16758TIP3    H171765   2.066   6.416   1.963 -0.8707  1.0014 -0.6910
16758TIP3    H271766   2.159   6.525   2.010 -1.3207  1.8480 -1.7221
16759TIP3   OH271767   0.600   1.793   0.912 -0.6073 -0.2504  0.2125
16759TIP3    H171768   0.570   1.853   0.980 -0.8010  2.0917 -1.8148
16759TIP3    H271769   0.531   1.795   0.846  0.5335 -0.7358 -1.0496
16760TIP3   OH271770   6.598   4.503   1.271 -0.2873  0.1115 -0.5851
16760TIP3    H171771   6.654   4.453   1.211  3.9872  0.8606  2.2756
16760TIP3    H271772   6.543   4.436   1.312  0.9544 -1.3541 -1.1685
16761TIP3   OH271773   6.573   6.684  12.880 -0.2345 -0.7739  0.0054
16761TIP3    H171774   6.540   6.624  12.813 -1.2929 -0.2350  0.0296
16761TIP3    H271775   6.540   6.649  12.962  0.6144 -1.1304  0.2037
16762TIP3   OH271776   4.873   4.662  14.044  0.7543 -0.0075 -0.8192
16762TIP3    H171777   4.804   4.684  14.107  1.1656 -0.9569  0.0118
16762TIP3    H271778   4.827   4.623  13.970  0.3825 -0.8000 -0.1950
16763TIP3   OH271779   0.936   5.201  14.434  0.5365 -0.5237  0.2363
16763TIP3    H171780   1.023   5.191  14.472 -0.1455 -1.5202  1.5992
16763TIP3    H271781   0.937   5.145  14.356  1.1453 -0.4118  0.1608
16764TIP3   OH271782   3.596   3.762  10.502  0.1153  0.3089  0.1628
16764TIP3    H171783   3.556   3.697  10.560 -0.2410  1.0164  0.7363
16764TIP3    H271784   3.684   3.775  10.538 -0.4980  1.5826  1.2612
16765TIP3   OH271785   5.169   5.319   3.446 -0.0849  0.3449  0.1280
16765TIP3    H171786   5.257   5.343   3.478 -0.4706  2.2329 -0.1348
16765TIP3    H271787   5.116   5.313   3.526 -0.3700  2.1549  0.1111
16766TIP3   OH271788   4.917   1.176  10.296  0.0640  0.3100 -0.4423
16766TIP3    H171789   5.009   1.190  10.274 -0.6185  0.7499 -3.4830
16766TIP3    H271790   4.899   1.086  10.268 -0.3153  0.0003  0.7275
16767TIP3   OH271791   6.348   4.552  10.656 -0.2031  0.5211 -0.1724
16767TIP3    H171792   6.323   4.464  10.627 -0.8993 -0.3040  2.6014
16767TIP3    H271793   6.428   4.539  10.706  0.4403  1.7192 -0.8430
16768TIP3   OH271794   6.493   4.670   2.781 -0.8081  0.2492 -0.3416
16768TIP3    H171795   6.544   4.647   2.703 -0.2211  0.5782 -0.0678
16768TIP3    H271796   6.507   4.764   2.792  0.8742 -0.1208  1.3566
16769TIP3   OH271797   1.581   0.971   5.203 -0.1700 -0.0553 -0.0520
16769TIP3    H171798   1.536   0.990   5.285 -0.5880 -0.2344 -0.2337
16769TIP3    H271799   1.598   0.877   5.206  2.1675  0.3189  0.9810
16770TIP3   OH271800   2.560   4.721  13.470  0.6084  0.0380  0.4019
16770TIP3    H171801   2.551   4.803  13.421  2.2202  0.0615  0.0953
16770TIP3    H271802   2.572   4.654  13.402 -0.5159 -0.4595  0.6605
16771TIP3   OH271803   3.582   3.050  14.242 -0.5519  0.4722  0.5078
16771TIP3    H171804   3.569   2.959  14.214 -0.9791  1.1290 -1.5863
16771TIP3    H271805   3.673   3.068  14.221 -1.3750  1.5868 -2.6120
16772TIP3   OH271806   6.339   6.812  16.902  0.7817  0.0590 -0.2333
16772TIP3    H171807   6.353   6.906  16.918  0.8856  0.2132 -1.1664
16772TIP3    H271808   6.246   6.806  16.882  0.8113 -0.0088 -0.3503
16773TIP3   OH271809   2.220   4.030  16.879 -0.0339 -0.4884  0.4665
16773TIP3    H171810   2.267   3.972  16.818  1.3720 -1.0888  2.0180
16773TIP3    H271811   2.153   3.974  16.918 -0.1802 -0.4283  0.3024
16774TIP3   OH271812   4.548   1.286  12.823  0.6662 -0.0002  0.2481
16774TIP3    H171813   4.453   1.297  12.830  0.6178  0.3697 -0.7534
16774TIP3    H271814   4.571   1.227  12.895 -0.2977  0.0290  0.5950
16775TIP3   OH271815   0.180   0.588  14.351 -0.0444 -0.2044  0.1190
16775TIP3    H171816   0.099   0.628  14.383 -0.0248 -1.0444  1.2925
16775TIP3    H271817   0.157   0.496  14.338  0.6624 -0.4073  0.2720
16776TIP3   OH271818   3.282   5.569   6.010 -0.1057 -0.5255  0.0090
16776TIP3    H171819   3.274   5.474   5.997  0.9634 -0.5429 -0.6710
16776TIP3    H271820   3.322   5.601   5.929  0.3054  0.3823  0.5527
16777TIP3   OH271821   2.411   0.124   3.325  0.1998  0.4954 -0.8085
16777TIP3    H171822   2.381   0.174   3.249  0.0370  1.6564 -0.0088
16777TIP3    H271823   2.330   0.091   3.365  0.2765 -0.0095 -1.0710
16778TIP3   OH271824   4.170   2.726  15.895  0.3141  0.1434  0.0081
16778TIP3    H171825   4.265   2.720  15.903  0.1864 -0.3975  1.3073
16778TIP3    H271826   4.137   2.697  15.980 -1.0237  0.0142 -0.5373
16779TIP3   OH271827   1.544   1.368  10.857  0.0323  0.0377 -0.0103
16779TIP3    H171828   1.543   1.325  10.772 -1.0233  0.7713 -0.3831
16779TIP3    H271829   1.636   1.363  10.886  0.0835 -1.7191 -0.4006
16780TIP3   OH271830   3.169   3.890   1.784  0.5034 -0.1418 -0.5292
16780TIP3    H171831   3.084   3.871   1.742  0.3357 -1.4483  0.3386
16780TIP3    H271832   3.208   3.804   1.798  1.3457  0.3716  0.3815
16781TIP3   OH271833   6.419   6.619   4.880  0.3813  0.2535  0.5835
16781TIP3    H171834   6.458   6.540   4.842 -0.9950 -0.0552 -0.2576
16781TIP3    H271835   6.461   6.628   4.966 -0.2337 -2.0639  1.1894
16782TIP3   OH271836   0.794   5.796   2.735 -0.5177 -0.7078  0.0650
16782TIP3    H171837   0.853   5.776   2.808 -1.3637  0.7794  1.2244
16782TIP3    H271838   0.839   5.761   2.658  0.6037 -1.9638  1.2288
16783TIP3   OH271839   2.055   2.480  10.938  0.1208  0.2696 -0.0718
16783TIP3    H171840   2.073   2.571  10.915  1.1125  0.0453 -0.2288
16783TIP3    H271841   2.044   2.481  11.033  1.1488  0.3995  0.0520
16784TIP3   OH271842   3.071   0.846  14.101  0.3971 -0.3483  0.3362
16784TIP3    H171843   3.143   0.786  14.079  0.1125 -1.4848  2.2990
16784TIP3    H271844   2.999   0.789  14.128 -0.9189  0.8075 -0.5441
16785TIP3   OH271845   2.651   0.771   3.898  0.2125 -0.1505 -0.5078
16785TIP3    H171846   2.628   0.842   3.958 -0.3934 -0.8786  0.1439
16785TIP3    H271847   2.574   0.761   3.842 -0.0283 -0.8202 -0.0700
16786TIP3   OH271848   4.505   3.420  16.601 -0.4368 -0.0283 -0.1100
16786TIP3    H171849   4.496   3.354  16.669  0.3984  2.9822  3.1876
16786TIP3    H271850   4.508   3.503  16.647  1.3720  2.2111 -3.7518
16787TIP3   OH271851   4.402   1.260  12.054 -0.0973 -0.1300 -0.2526
16787TIP3    H171852   4.321   1.254  12.104  0.6233  0.1644  0.9857
16787TIP3    H271853   4.423   1.353  12.054 -0.0015 -0.1471 -0.9795
16788TIP3   OH271854   0.625   3.319  14.363 -0.2069 -0.5657  0.1462
16788TIP3    H171855   0.620   3.226  14.386  1.2170 -0.9320 -0.8770
16788TIP3    H271856   0.613   3.365  14.446  0.7364 -1.7293  0.9574
16789TIP3   OH271857   6.294   6.797   1.923  0.2374 -0.7121  0.2864
16789TIP3    H171858   6.255   6.876   1.961  1.1233 -0.3358  0.4531
16789TIP3    H271859   6.306   6.738   1.998  1.2859 -0.2651  0.4929
16790TIP3   OH271860   1.055   4.783  14.912 -0.2946  0.4257  0.2919
16790TIP3    H171861   1.046   4.714  14.978  0.9725  0.2704  0.3260
16790TIP3    H271862   1.042   4.738  14.829 -0.3431  0.3203  0.3569
16791TIP3   OH271863   2.518   1.012   1.305 -0.9212  0.1556  0.2285
16791TIP3    H171864   2.507   1.067   1.227  1.5116  1.0562  0.4174
16791TIP3    H271865   2.512   0.923   1.272 -0.5572  0.5283 -0.9057
16792TIP3   OH271866   4.907   4.523  10.877 -0.6297  0.4883 -1.0234
16792TIP3    H171867   4.889   4.498  10.786 -0.5535  0.0698 -0.9239
16792TIP3    H271868   4.854   4.602  10.891 -1.1474  0.1781 -1.2242
16793TIP3   OH271869   3.756   6.575  11.845  0.0955 -0.0939  0.1807
16793TIP3    H171870   3.762   6.626  11.925  0.8223  0.2444 -0.0816
16793TIP3    H271871   3.690   6.620  11.792 -2.7507 -2.0377  1.7886
16794TIP3   OH271872   4.194   3.854   3.413  0.5647 -0.0739 -0.0431
16794TIP3    H171873   4.112   3.811   3.391  0.7584 -0.2584 -0.4139
16794TIP3    H271874   4.257   3.820   3.350  1.3932 -1.3952  1.4423
16795TIP3   OH271875   5.850   2.255  12.410  0.6875 -0.2933 -0.3097
16795TIP3    H171876   5.830   2.325  12.348  2.0937 -0.2200 -0.7236
16795TIP3    H271877   5.913   2.200  12.364  2.4535  0.2393  1.3103
16796TIP3   OH271878   4.544   4.509  15.295  0.1493  0.2313  0.3367
16796TIP3    H171879   4.612   4.442  15.302  0.0836  0.1288  0.0069
16796TIP3    H271880   4.557   4.564  15.372  0.9573  0.5446 -0.0103
16797TIP3   OH271881   6.293   3.930  15.232 -0.2245  0.5584  0.1506
16797TIP3    H171882   6.243   3.950  15.153  1.4117  1.4936 -0.7033
16797TIP3    H271883   6.252   3.852  15.267 -0.6582 -0.2155 -1.9452
16798TIP3   OH271884   3.874   5.679   1.422  0.3357 -0.3647  0.3105
16798TIP3    H171885   3.875   5.614   1.352 -2.3346  1.7134 -1.8943
16798TIP3    H271886   3.837   5.633   1.497  0.3179 -1.8640 -0.5756
16799TIP3   OH271887   4.386   5.788  12.188  0.5181  0.0470 -0.2725
16799TIP3    H171888   4.462   5.765  12.241 -0.5810 -2.5211  0.3662
16799TIP3    H271889   4.419   5.793  12.098  1.8006  1.2565  0.2219
16800TIP3   OH271890   2.272   2.154   6.480 -0.1555  0.0127 -0.7647
16800TIP3    H171891   2.358   2.128   6.515 -0.4725  0.4338  0.3492
16800TIP3    H271892   2.210   2.096   6.524 -0.6434  1.1029  0.0090
16801TIP3   OH271893   3.654   5.237   6.771  0.0016  0.3974 -0.1500
16801TIP3    H171894   3.592   5.187   6.720  1.3719 -1.6343  0.0675
16801TIP3    H271895   3.650   5.326   6.734 -2.3267  0.1230 -0.6881
16802TIP3   OH271896   3.734   1.581  13.429  0.1957 -0.4052 -0.4008
16802TIP3    H171897   3.808   1.605  13.373  1.0913 -2.7837 -0.3465
16802TIP3    H271898   3.659   1.580  13.370  0.2641  1.3831 -0.5956
16803TIP3   OH271899   1.944   6.015   0.160  0.8538  0.0019 -0.6910
16803TIP3    H171900   2.036   6.021   0.185  0.4331  1.0072  0.7202
16803TIP3    H271901   1.916   6.106   0.148 -0.7963  0.0087  2.2500
16804TIP3   OH271902   2.270   5.986   0.822 -0.5960 -0.2402  0.0185
16804TIP3    H171903   2.312   6.072   0.822 -1.0228  0.0854 -3.2924
16804TIP3    H271904   2.253   5.968   0.914 -0.7042  3.3074  0.8335
16805TIP3   OH271905   6.832   6.842   1.250 -0.0797 -0.6288  0.4942
16805TIP3    H171906   6.742   6.834   1.218  0.4234  1.0305 -1.5414
16805TIP3    H271907   6.822   6.865   1.342 -1.8700  1.7634 -0.1949
16806TIP3   OH271908   4.464   1.837   5.507 -0.5368 -0.0685  0.6689
16806TIP3    H171909   4.540   1.888   5.478  0.7791 -1.4677  1.4866
16806TIP3    H271910   4.390   1.897   5.498  0.7806  1.6403  0.6183
16807TIP3   OH271911   2.236   5.211   2.570 -0.1661 -0.0712  0.2319
16807TIP3    H171912   2.285   5.246   2.496  2.3700  0.1430  1.9035
16807TIP3    H271913   2.200   5.289   2.613 -0.6262 -0.1123 -0.0648
16808TIP3   OH271914   3.851   6.748  15.394  0.0493  0.5982  0.3719
16808TIP3    H171915   3.783   6.814  15.384  0.3585  1.0024  0.8920
16808TIP3    H271916   3.931   6.792  15.365 -0.0127 -0.1107 -0.9768
16809TIP3   OH271917   0.625   1.504  15.513  0.1030  0.1668  0.1553
16809TIP3    H171918   0.699   1.519  15.572 -0.5723 -0.1592  1.1105
16809TIP3    H271919   0.666   1.482  15.429  1.0900  0.1336  0.6240
16810TIP3   OH271920   3.716   4.920   1.303 -0.2649 -0.0069  0.5446
16810TIP3    H171921   3.677   4.832   1.305  0.5115 -0.4058 -0.7204
16810TIP3    H271922   3.645   4.978   1.332 -0.4996 -1.1304  2.3017
16811TIP3   OH271923   0.462   3.782   0.723  0.0182  0.2879  0.1268
16811TIP3    H171924   0.367   3.785   0.740 -0.2159 -2.0120 -0.4868
16811TIP3    H271925   0.476   3.849   0.657 -1.0148  1.2856  0.8799
16812TIP3   OH271926   5.723   0.345   1.899  0.1602  0.0441 -0.3665
16812TIP3    H171927   5.736   0.267   1.953 -1.5542 -0.9377 -1.2724
16812TIP3    H271928   5.804   0.353   1.848  0.8285 -0.4301  0.5979
16813TIP3   OH271929   3.859   3.847   0.165 -0.7029  0.7496  0.5647
16813TIP3    H171930   3.779   3.797   0.148  0.2592 -1.0099  1.0031
16813TIP3    H271931   3.864   3.853   0.261  0.5463 -0.6602  0.6148
16814TIP3   OH271932   0.940   5.464  15.308  0.2717 -0.6898  0.1295
16814TIP3    H171933   0.938   5.542  15.364 -2.2560  0.6092 -1.5555
16814TIP3    H271934   0.854   5.423  15.321  0.6901 -1.9179 -0.7518
16815TIP3   OH271935   3.175   1.655  12.105  0.1087  0.0638  0.2105
16815TIP3    H171936   3.180   1.675  12.198  3.6003  0.9798 -0.0247
16815TIP3    H271937   3.208   1.565  12.098 -1.4592 -0.5153 -0.0650
16816TIP3   OH271938   2.854   2.417   2.525  0.3044 -0.1117 -0.2042
16816TIP3    H171939   2.859   2.323   2.507 -2.2703 -0.4610  0.4321
16816TIP3    H271940   2.779   2.447   2.473 -0.2207  1.1310  1.1872
16817TIP3   OH271941   3.567   6.421   0.687 -0.4319  0.5027 -0.0247
16817TIP3    H171942   3.510   6.371   0.628  1.6034 -2.2130  0.1418
16817TIP3    H271943   3.630   6.463   0.629 -0.4835  0.6453  0.0220
16818TIP3   OH271944   6.779   6.434   3.784 -0.4729 -0.2941 -0.0793
16818TIP3    H171945   6.776   6.523   3.821 -0.2685 -0.7958  1.1975
16818TIP3    H271946   6.790   6.377   3.860  2.2640 -1.2417 -1.0555
16819TIP3   OH271947   1.951   6.209   3.572 -0.4776 -0.2666 -0.6368
16819TIP3    H171948   2.037   6.170   3.564 -0.4841 -0.3230 -0.4319
16819TIP3    H271949   1.945   6.269   3.498 -0.0106  0.2130 -0.2955
16820TIP3   OH271950   5.469   6.725   1.474  0.1129  0.1391  0.2557
16820TIP3    H171951   5.483   6.794   1.409  1.3861  0.5566  0.9315
16820TIP3    H271952   5.530   6.656   1.448 -0.5460 -0.3730  0.0736
16821TIP3   OH271953   5.818   3.289   4.837  0.2365  0.2351 -0.2327
16821TIP3    H171954   5.737   3.273   4.789 -0.2574  1.9360 -0.0418
16821TIP3    H271955   5.856   3.202   4.850 -2.2498 -0.7890  0.9187
16822TIP3   OH271956   3.353   4.388   5.892 -0.7906 -0.2978 -0.0289
16822TIP3    H171957   3.442   4.354   5.894 -0.6920 -0.0395  0.0833
16822TIP3    H271958   3.356   4.465   5.950 -0.5549  0.9963 -1.6759
16823TIP3   OH271959   1.950   0.263   1.191 -0.5822  0.4955  0.1285
16823TIP3    H171960   1.953   0.331   1.259  2.9829  0.8263 -0.1718
16823TIP3    H271961   1.950   0.312   1.109  0.7971  0.1852 -0.0784
16824TIP3   OH271962   0.246   4.730  13.016 -0.0334 -0.3675 -0.1455
16824TIP3    H171963   0.268   4.701  12.928 -1.9578  1.8235 -1.4590
16824TIP3    H271964   0.323   4.778  13.046  0.1570  0.0027 -1.1942
16825TIP3   OH271965   1.808   1.889   0.212  0.4130  0.0474 -0.2277
16825TIP3    H171966   1.900   1.903   0.234  0.2844  2.5913 -0.9736
16825TIP3    H271967   1.797   1.794   0.214  2.7527 -0.2762  0.9780
16826TIP3   OH271968   5.193   6.505   1.804  0.1852  0.9680  1.0179
16826TIP3    H171969   5.167   6.414   1.818 -0.7437  0.5391 -2.5555
16826TIP3    H271970   5.144   6.554   1.869 -1.0591 -0.8672  1.5432
16827TIP3   OH271971   5.769   0.710  13.240  0.3444  0.6627 -0.6493
16827TIP3    H171972   5.777   0.760  13.158  1.6112  0.2342 -0.8068
16827TIP3    H271973   5.779   0.619  13.214 -0.1053  0.4639 -0.1281
16828TIP3   OH271974   4.864   1.420  13.400  0.2689  0.2372  0.2911
16828TIP3    H171975   4.944   1.470  13.419  1.5207 -0.7230 -1.9860
16828TIP3    H271976   4.889   1.329  13.416  0.0632 -0.1912 -1.5433
16829TIP3   OH271977   4.913   6.267  14.098 -0.2359 -0.1589 -0.3533
16829TIP3    H171978   4.843   6.324  14.066 -0.1729  1.9223  2.8271
16829TIP3    H271979   4.993   6.316  14.081  0.0883 -0.6563 -0.2576
16830TIP3   OH271980   1.518   1.672  10.714 -0.2546 -0.2682  0.0491
16830TIP3    H171981   1.471   1.750  10.685 -2.0215 -1.0152  0.7628
16830TIP3    H271982   1.450   1.604  10.719  1.0012 -1.5114  0.7077
16831TIP3   OH271983   0.397   3.728   3.931 -0.0871  0.2706 -0.3806
16831TIP3    H171984   0.455   3.667   3.886 -0.4180 -0.2648 -0.0835
16831TIP3    H271985   0.391   3.695   4.021  0.1739  1.0537 -0.0611
16832TIP3   OH271986   2.938   2.010   3.118  0.3926 -0.1725  0.7194
16832TIP3    H171987   2.872   2.000   3.050  0.1404  1.4135  0.6889
16832TIP3    H271988   3.021   1.986   3.075  0.3798  1.7514 -0.4822
16833TIP3   OH271989   2.829   5.753   2.555  0.2494 -0.3593 -0.1721
16833TIP3    H171990   2.794   5.801   2.480  0.5855  1.8097  0.9723
16833TIP3    H271991   2.915   5.791   2.571  0.1399 -0.6675  1.3899
16834TIP3   OH271992   1.891   1.588   4.591  0.1609  0.2404  0.3447
16834TIP3    H171993   1.966   1.540   4.555  0.3302 -0.7444  1.9053
16834TIP3    H271994   1.896   1.674   4.551  2.1159  0.1792  0.3620
16835TIP3   OH271995   2.000   1.373  12.018 -0.1192  0.8373 -0.0556
16835TIP3    H171996   2.030   1.300  12.072  0.5168  1.3142  0.2464
16835TIP3    H271997   1.946   1.425  12.076  1.6726  2.1011  0.5746
16836TIP3   OH271998   6.068   3.453  12.841  0.6675 -0.2239 -0.0952
16836TIP3    H171999   6.110   3.427  12.759  0.5381 -1.0214  0.0803
16836TIP3    H272000   6.053   3.371  12.888 -3.4764 -0.4041 -1.2964
16837TIP3   OH272001   0.928   5.686  14.094 -0.3847  0.0685 -0.0442
16837TIP3    H172002   0.842   5.721  14.073  0.9171  2.8060 -1.3683
16837TIP3    H272003   0.931   5.602  14.049 -1.5106  1.0495 -2.1120
16838TIP3   OH272004   0.083   2.359   1.329  0.4016 -0.2678  0.3299
16838TIP3    H172005  -0.003   2.399   1.344  1.6064  2.2033  0.9941
16838TIP3    H272006   0.138   2.389   1.401  2.4580  0.1463 -1.3079
16839TIP3   OH272007   1.681   5.939   3.271 -0.5129  0.9118  0.0497
16839TIP3    H172008   1.612   5.902   3.215  0.5565  0.7854 -1.2245
16839TIP3    H272009   1.653   6.030   3.284 -0.1913  1.2972 -1.7228
16840TIP3   OH272010   1.091   5.928   1.203  0.3623 -0.0281  0.1368
16840TIP3    H172011   1.044   5.885   1.132  0.7373  2.0744 -1.4718
16840TIP3    H272012   1.171   5.961   1.162  1.4385 -0.2459  1.9482
16841TIP3   OH272013   2.178   3.349   1.113  0.0018 -0.6102 -0.4947
16841TIP3    H172014   2.221   3.425   1.152  0.5657 -0.4031 -1.4837
16841TIP3    H272015   2.152   3.295   1.188 -2.3827  1.5324  0.3665
16842TIP3   OH272016   2.054   6.622  16.493 -0.0570 -0.3981 -0.4179
16842TIP3    H172017   2.112   6.679  16.442  0.9608  0.1202  1.2160
16842TIP3    H272018   2.006   6.682  16.551  1.2217 -1.1485  1.5240
16843TIP3   OH272019   1.089   4.411   0.515  0.0938 -0.0291  0.1043
16843TIP3    H172020   1.153   4.423   0.584  0.4330  2.0991 -0.5130
16843TIP3    H272021   1.005   4.427   0.557  0.2818  1.0404  0.0987
16844TIP3   OH272022   3.495   6.296   3.502  0.0883 -0.1230 -0.2469
16844TIP3    H172023   3.470   6.358   3.570  2.0945 -2.0276  2.4809
16844TIP3    H272024   3.566   6.339   3.455 -0.3730  0.6910 -0.2183
16845TIP3   OH272025   4.120   5.295  14.524 -0.5087  0.3819  0.7982
16845TIP3    H172026   4.148   5.369  14.469 -0.9780  0.4491  0.6491
16845TIP3    H272027   4.079   5.234  14.463  0.0110 -0.0741  0.9012
16846TIP3   OH272028   1.764   3.568  11.487  0.3215 -0.4709 -0.2300
16846TIP3    H172029   1.686   3.586  11.434 -0.4364 -0.5052  0.8327
16846TIP3    H272030   1.773   3.645  11.543  1.8540  0.1237 -1.2484
16847TIP3   OH272031   3.567   2.025  14.034  0.0418  0.2656  0.0323
16847TIP3    H172032   3.509   2.003  14.107  1.7746 -1.1761  1.0542
16847TIP3    H272033   3.509   2.060  13.966 -1.6819  1.2645  1.9138
16848TIP3   OH272034   1.876   4.646   4.293  0.2471 -0.9190  0.0542
16848TIP3    H172035   1.957   4.609   4.256 -0.3801 -1.3737 -0.9008
16848TIP3    H272036   1.848   4.582   4.358  1.6923  0.1796  1.8585
16849TIP3   OH272037   3.412   0.576   0.639  0.1938  0.3158 -0.1277
16849TIP3    H172038   3.425   0.483   0.618 -0.7000  0.0171  0.5774
16849TIP3    H272039   3.323   0.595   0.607 -0.6069  0.2488  1.9213
16850TIP3   OH272040   0.046   5.883  15.813 -0.3262  0.8620  0.0388
16850TIP3    H172041   0.109   5.869  15.743 -0.4834 -1.0314  0.2254
16850TIP3    H272042  -0.036   5.905  15.768 -0.5950 -1.0061 -0.4317
16851TIP3   OH272043   1.934   0.676  14.558 -0.3856 -0.3179 -0.8824
16851TIP3    H172044   1.931   0.588  14.521  0.1212  0.1097 -2.0066
16851TIP3    H272045   1.905   0.732  14.486 -0.1884  0.4787 -0.3496
16852TIP3   OH272046   3.521   4.314   3.676  0.3731  0.1465  0.0347
16852TIP3    H172047   3.477   4.316   3.761 -0.6857  2.6703 -0.4596
16852TIP3    H272048   3.586   4.385   3.681 -0.0822  0.7171 -1.3848
16853TIP3   OH272049   0.575   0.615   1.376  0.0275 -0.2397 -0.0596
16853TIP3    H172050   0.507   0.662   1.327 -0.4620 -0.1440  0.6861
16853TIP3    H272051   0.536   0.528   1.392  0.0550 -0.1636  0.4248
16854TIP3   OH272052   5.066   5.427   2.085  0.0853  0.0386  0.2921
16854TIP3    H172053   5.043   5.477   2.163 -0.1027 -1.3081  1.1397
16854TIP3    H272054   4.985   5.383   2.060  0.6828 -1.4327  0.7972
16855TIP3   OH272055   5.278   6.290  13.425  0.0118 -0.4169 -0.1170
16855TIP3    H172056   5.266   6.249  13.511 -1.5378 -0.9783 -0.5648
16855TIP3    H272057   5.352   6.243  13.387  1.8812  1.0195  1.5634
16856TIP3   OH272058   6.092   1.346  13.743 -0.1923  0.1154  0.0601
16856TIP3    H172059   6.161   1.412  13.747 -0.8814  0.9941 -1.6467
16856TIP3    H272060   6.126   1.280  13.682 -1.4264  1.3493 -2.0885
16857TIP3   OH272061   3.384   3.603  12.398  0.3137  0.0271  0.1844
16857TIP3    H172062   3.430   3.659  12.461 -0.5512  1.9217 -0.7637
16857TIP3    H272063   3.426   3.622  12.314  1.1156 -2.0823  0.0475
16858TIP3   OH272064   0.631   0.852   2.757  0.6343  0.2751 -0.3914
16858TIP3    H172065   0.583   0.913   2.812  0.8029  0.9110 -0.9307
16858TIP3    H272066   0.718   0.847   2.797  1.1545  1.6921 -1.2597
16859TIP3   OH272067   5.273   6.306  13.050 -0.2390 -0.1760  0.1326
16859TIP3    H172068   5.344   6.243  13.058  1.7274  1.4577 -2.5802
16859TIP3    H272069   5.237   6.291  12.962 -1.9940  0.2797  0.7405
16860TIP3   OH272070   5.082   3.647   2.468  0.2292  0.3583  0.1627
16860TIP3    H172071   5.021   3.610   2.405 -1.9599  1.9799  1.1836
16860TIP3    H272072   5.159   3.590   2.464 -0.5766 -0.6867 -2.5248
16861TIP3   OH272073   5.057   4.943  12.824  0.1522  0.4054 -0.4141
16861TIP3    H172074   5.150   4.921  12.827  0.6104  1.9767 -1.7189
16861TIP3    H272075   5.028   4.912  12.739 -0.5228 -0.0356 -0.0283
16862TIP3   OH272076   5.634   2.625  11.157 -0.3241  0.8020  0.1041
16862TIP3    H172077   5.695   2.643  11.085  2.4833  0.0910  2.1452
16862TIP3    H272078   5.654   2.692  11.222 -2.0048  0.7317  0.7487
16863TIP3   OH272079   0.316   2.697   0.951 -0.0350 -0.5235  0.1595
16863TIP3    H172080   0.233   2.663   0.986 -1.3177  1.1220 -1.1409
16863TIP3    H272081   0.376   2.623   0.958 -2.9256 -3.6617 -3.5566
16864TIP3   OH272082   2.146   4.374  13.122  0.5595  0.3070  0.0624
16864TIP3    H172083   2.157   4.420  13.039 -0.4208 -0.6534 -0.6341
16864TIP3    H272084   2.189   4.430  13.187 -0.2800  2.0132 -0.7865
16865TIP3   OH272085   5.348   0.892  13.031 -0.1467  0.6828 -0.1318
16865TIP3    H172086   5.264   0.899  13.077  0.4529  0.8462  0.9929
16865TIP3    H272087   5.412   0.921  13.096  0.8724 -0.3160 -0.6631
16866TIP3   OH272088   0.739   2.491  13.834 -0.5696  0.3089 -0.0407
16866TIP3    H172089   0.706   2.468  13.921  0.4567  3.0616  1.2063
16866TIP3    H272090   0.664   2.531  13.791 -0.4642  1.1849  0.5555
16867TIP3   OH272091   6.750   6.512  14.410  0.4150 -0.5337 -0.0406
16867TIP3    H172092   6.836   6.536  14.376 -0.1499 -0.3387 -1.3677
16867TIP3    H272093   6.720   6.591  14.455  0.8062 -0.5133  0.1923
16868TIP3   OH272094   2.979   1.163  12.719  0.6990  0.0907  0.2039
16868TIP3    H172095   3.065   1.131  12.692  0.9502  0.9197  0.0041
16868TIP3    H272096   2.993   1.254  12.743 -0.0118  0.0731  0.7491
16869TIP3   OH272097   5.379   0.894   3.493  0.3384  0.4476  0.3370
16869TIP3    H172098   5.388   0.800   3.478  0.2325  0.4954 -0.0391
16869TIP3    H272099   5.353   0.901   3.585 -1.3725  0.0178 -0.0803
16870TIP3   OH272100   3.041   3.553  15.362 -0.5676 -0.1244  0.1915
16870TIP3    H172101   3.044   3.483  15.428 -1.8589  0.5389  1.0008
16870TIP3    H272102   3.092   3.519  15.289 -0.9157 -1.8029  0.6757
16871TIP3   OH272103   0.687   3.107  15.035  0.5954 -0.3661 -0.5188
16871TIP3    H172104   0.674   3.199  15.014 -0.9858 -0.3646  0.3567
16871TIP3    H272105   0.718   3.068  14.953  1.0570  0.8819 -0.9608
16872TIP3   OH272106   4.781   0.443   0.211  0.5814  0.1733  0.1991
16872TIP3    H172107   4.733   0.523   0.233 -0.9254 -0.6705  0.1397
16872TIP3    H272108   4.830   0.465   0.132 -1.1714  0.5565 -0.8301
16873TIP3   OH272109   5.033   6.001   5.051 -0.2867 -0.6391  0.1558
16873TIP3    H172110   4.942   6.002   5.022 -0.9817 -2.2521  2.0326
16873TIP3    H272111   5.084   6.022   4.973 -2.2157 -0.5646 -1.1465
16874TIP3   OH272112   1.004   6.686  14.201 -0.4474 -0.1823  0.3785
16874TIP3    H172113   1.028   6.632  14.126  0.7864  0.7624  0.0611
16874TIP3    H272114   0.992   6.773  14.164 -1.0861  0.0384  1.0896
16875TIP3   OH272115   4.736   0.567  15.808 -0.1829  0.4326  0.1631
16875TIP3    H172116   4.712   0.570  15.901 -2.0655 -1.9930 -0.1429
16875TIP3    H272117   4.764   0.477  15.794 -2.0610  0.1192 -2.0517
16876TIP3   OH272118   3.050   0.538   4.009 -0.6167 -0.2553  0.2403
16876TIP3    H172119   3.058   0.511   4.101  0.5092 -0.9821 -0.0599
16876TIP3    H272120   3.040   0.456   3.961 -0.7268  0.0955 -0.3391
16877TIP3   OH272121   0.026   2.725   0.778 -0.0174  0.0653  0.2134
16877TIP3    H172122   0.032   2.818   0.756  0.3712 -0.1121 -0.4817
16877TIP3    H272123   0.076   2.681   0.709  0.8461 -0.5711  1.2197
16878TIP3   OH272124   1.939   3.010  13.244  0.1932  0.0227  0.5379
16878TIP3    H172125   1.948   3.033  13.152  1.8040 -2.4517 -0.0107
16878TIP3    H272126   2.025   2.978  13.270 -0.7514 -1.2689  2.3333
16879TIP3   OH272127   2.611   0.218  10.906  0.1498  0.1042  0.4191
16879TIP3    H172128   2.696   0.260  10.902  0.8112 -1.2328 -0.3770
16879TIP3    H272129   2.585   0.207  10.815 -0.1812 -0.8227  0.6151
16880TIP3   OH272130   1.039   1.724  14.694  0.2369  0.2513  0.3014
16880TIP3    H172131   1.066   1.800  14.747 -0.0600 -0.6097  1.7425
16880TIP3    H272132   1.072   1.648  14.743 -0.4941 -0.5993 -0.4987
16881TIP3   OH272133   6.709   2.005  15.970  0.4860 -0.0771 -0.4828
16881TIP3    H172134   6.792   1.962  15.986  0.8027  0.7846  0.2727
16881TIP3    H272135   6.715   2.036  15.879 -0.1534 -2.4415 -1.4062
16882TIP3   OH272136   2.423   5.987  16.836 -0.1402  0.2914  0.5950
16882TIP3    H172137   2.367   5.945  16.901 -0.3713  1.3477  1.0922
16882TIP3    H272138   2.477   6.048  16.886 -0.6914  1.5033 -0.2600
16883TIP3   OH272139   3.761   1.548  12.743  0.0318 -0.2779 -0.3073
16883TIP3    H172140   3.755   1.641  12.721  0.6651 -0.4173 -1.1098
16883TIP3    H272141   3.788   1.505  12.661 -0.2878 -1.1714  0.0413
16884TIP3   OH272142   2.825   5.995  10.602 -0.1441  0.0759  0.1493
16884TIP3    H172143   2.783   6.070  10.643  1.0983 -0.7162  3.0942
16884TIP3    H272144   2.753   5.940  10.571 -1.1788  0.6376  1.4749
16885TIP3   OH272145   3.453   1.180   4.743 -0.5010 -0.0878  0.0976
16885TIP3    H172146   3.425   1.269   4.765 -1.1232 -0.4801  0.9821
16885TIP3    H272147   3.539   1.191   4.704 -0.4352  0.8847  0.4789
16886TIP3   OH272148   6.828   6.488  12.962  0.1926 -0.2980  0.2254
16886TIP3    H172149   6.778   6.548  13.018  0.3888  0.8798 -0.8068
16886TIP3    H272150   6.905   6.465  13.015 -0.3032 -0.3068  0.9562
16887TIP3   OH272151   6.484   2.940  11.804 -0.2145  0.2119 -0.0724
16887TIP3    H172152   6.426   2.867  11.829 -1.2864  0.6999 -1.0487
16887TIP3    H272153   6.571   2.912  11.834 -0.7010 -1.1728  0.1590
16888TIP3   OH272154   5.155   1.056   2.787  0.1705  0.3212 -0.1095
16888TIP3    H172155   5.195   1.091   2.707 -2.1478  1.7684 -0.7156
16888TIP3    H272156   5.228   1.049   2.849  1.4138  2.8259 -1.1456
16889TIP3   OH272157   4.995   3.510   0.098  0.2941 -0.5809 -0.3679
16889TIP3    H172158   5.067   3.472   0.149  1.2357  0.4954 -0.8549
16889TIP3    H272159   4.929   3.533   0.164  1.2574  0.2885  0.3318
16890TIP3   OH272160   2.987   4.670  12.455 -0.5510  0.6639  0.2624
16890TIP3    H172161   2.984   4.661  12.360  0.5326 -0.9290  0.3450
16890TIP3    H272162   2.942   4.752  12.473 -0.1779  1.3374 -1.6827
16891TIP3   OH272163   1.991   0.863   1.870 -0.1553  0.1438 -0.4744
16891TIP3    H172164   1.935   0.864   1.792 -1.9491  0.6460  0.7351
16891TIP3    H272165   1.929   0.863   1.944  1.4616 -0.5372  0.9631
16892TIP3   OH272166   1.007   5.869  11.980 -0.0976  0.3547  0.0169
16892TIP3    H172167   0.973   5.793  12.028  1.6565 -0.5739 -0.1156
16892TIP3    H272168   0.933   5.929  11.974 -1.7559 -1.6319 -0.4728
16893TIP3   OH272169   2.880   3.181   5.550 -0.2670 -0.3039  0.1290
16893TIP3    H172170   2.803   3.140   5.591 -1.3485  0.6317 -0.9075
16893TIP3    H272171   2.880   3.270   5.584 -1.0195  0.4014 -1.6531
16894TIP3   OH272172   3.432   5.056  16.558  0.3314 -0.4124  0.6278
16894TIP3    H172173   3.436   4.976  16.609 -2.1045 -0.7654  0.4069
16894TIP3    H272174   3.430   5.126  16.623  1.3487 -0.5826  0.8568
16895TIP3   OH272175   2.549   2.832   5.794 -0.7381 -0.2252  0.2763
16895TIP3    H172176   2.547   2.876   5.879 -0.6988  0.4853 -0.0774
16895TIP3    H272177   2.474   2.773   5.796 -1.7305  0.9785  0.1995
16896TIP3   OH272178   6.306   0.758   0.210  0.2064 -0.0834  0.3107
16896TIP3    H172179   6.391   0.748   0.167  0.3076  1.8493 -0.0554
16896TIP3    H272180   6.251   0.800   0.144 -1.4033 -2.2709  0.1679
16897TIP3   OH272181   1.430   2.692   4.501  0.2900 -0.0549 -0.1390
16897TIP3    H172182   1.361   2.697   4.434  1.6758  0.4418 -1.5953
16897TIP3    H272183   1.412   2.766   4.559 -0.8060 -0.3579 -0.0743
16898TIP3   OH272184   3.376   5.399  16.079  0.1736  0.0346  0.8040
16898TIP3    H172185   3.386   5.494  16.073 -0.3530  0.0638  0.3214
16898TIP3    H272186   3.302   5.379  16.022  1.0816 -0.8146 -0.1153
16899TIP3   OH272187   5.785   2.468   5.512 -0.1828  0.1412  0.7804
16899TIP3    H172188   5.690   2.460   5.521 -0.0411 -2.2862  0.9592
16899TIP3    H272189   5.820   2.432   5.594  0.8875  0.5029  0.4980
16900TIP3   OH272190   5.109   1.050   0.024  0.5456  0.2209 -0.0230
16900TIP3    H172191   5.202   1.064   0.007  1.3571 -1.0548  2.7459
16900TIP3    H272192   5.073   1.022  -0.060  2.9501 -0.6184 -0.8568
16901TIP3   OH272193   4.307   5.326  14.908  0.6452  0.6800 -0.1525
16901TIP3    H172194   4.230   5.380  14.893  0.1294  0.0186  0.0863
16901TIP3    H272195   4.303   5.259  14.840  0.5809  0.1790  0.3392
16902TIP3   OH272196   5.899   1.183  13.119  0.2314  0.0124 -0.3611
16902TIP3    H172197   5.991   1.199  13.100  0.0728  0.3187 -0.8772
16902TIP3    H272198   5.861   1.159  13.034 -0.3146  0.5935 -0.2814
16903TIP3   OH272199   5.145   5.961  12.288  0.1974  0.0904  0.1562
16903TIP3    H172200   5.190   5.877  12.298  0.8793  0.4045 -0.2061
16903TIP3    H272201   5.155   5.982  12.195 -1.8075 -0.4385 -0.2186
16904TIP3   OH272202   3.933   2.008  11.162  0.1504  0.0321 -0.3472
16904TIP3    H172203   3.880   1.995  11.241  0.6387 -0.4184 -0.0884
16904TIP3    H272204   4.004   1.944  11.170 -0.2137 -0.5369 -1.5267
16905TIP3   OH272205   3.019   2.861   4.856 -0.2503 -0.2139  0.1779
16905TIP3    H172206   3.054   2.887   4.941 -1.3538  1.7972  0.0733
16905TIP3    H272207   2.970   2.937   4.825 -0.6123 -1.1939 -1.8809
16906TIP3   OH272208   3.998   5.205   5.517 -0.7617 -0.3797  0.1378
16906TIP3    H172209   4.046   5.283   5.489 -0.2866 -1.3354 -1.9125
16906TIP3    H272210   3.964   5.227   5.604  0.9328  1.3957  0.4072
16907TIP3   OH272211   0.470   2.019  12.188 -0.3272  0.5895  0.4320
16907TIP3    H172212   0.519   1.982  12.115  2.7062  1.6269  1.7682
16907TIP3    H272213   0.468   2.113  12.170  0.0936  0.8023  1.4371
16908TIP3   OH272214   4.255   0.391  13.929 -1.2018 -0.3757 -0.2756
16908TIP3    H172215   4.316   0.344  13.987 -0.4453  0.8063 -0.0777
16908TIP3    H272216   4.197   0.322  13.895 -0.4890 -1.3663  0.4298
16909TIP3   OH272217   2.878   5.292  12.676 -0.1975  0.1192 -0.2292
16909TIP3    H172218   2.907   5.327  12.761 -2.9760  1.2374  0.3624
16909TIP3    H272219   2.945   5.227  12.653  2.8571  2.6524  0.7694
16910TIP3   OH272220   5.462   4.566  12.543 -0.2470 -0.2318  0.8819
16910TIP3    H172221   5.503   4.649  12.567  0.3879 -0.7054  1.4721
16910TIP3    H272222   5.475   4.510  12.620 -0.7200 -0.8550  0.5110
16911TIP3   OH272223   4.348   4.233   5.770  0.2373  0.2841  0.0311
16911TIP3    H172224   4.345   4.322   5.807 -0.5885  0.2408  0.0829
16911TIP3    H272225   4.358   4.247   5.676 -1.5138  0.4869 -0.1595
16912TIP3   OH272226   1.788   1.294  13.458  0.2956  0.0857 -0.1406
16912TIP3    H172227   1.699   1.327  13.451  0.8529  1.8212  0.3378
16912TIP3    H272228   1.814   1.275  13.368 -0.3105  0.2992 -0.3611
16913TIP3   OH272229   6.742   0.015  12.080 -0.3099  0.1518 -0.5136
16913TIP3    H172230   6.714   0.102  12.110  0.2062 -0.3303  1.4794
16913TIP3    H272231   6.835   0.025  12.062 -0.4051  0.1778 -1.0121
16914TIP3   OH272232   5.070   6.102  12.584  0.1915 -0.2911 -0.1834
16914TIP3    H172233   5.096   6.099  12.492 -1.9367 -1.2693 -0.8002
16914TIP3    H272234   4.975   6.107  12.583  0.1621  1.2029  1.9840
16915TIP3   OH272235   2.708   6.669  11.327 -0.2846 -0.2077 -0.3657
16915TIP3    H172236   2.660   6.646  11.406 -0.4329  0.5291 -0.2312
16915TIP3    H272237   2.735   6.585  11.290 -0.9401 -0.5942  0.0112
16916TIP3   OH272238   2.225   2.614   2.980 -0.3232 -0.4904  0.2814
16916TIP3    H172239   2.167   2.582   3.050  0.4185 -1.3205  0.5384
16916TIP3    H272240   2.267   2.691   3.018 -1.1615  0.0614  0.1292
16917TIP3   OH272241   5.415   3.854  12.471 -0.5155 -1.0050  0.4372
16917TIP3    H172242   5.442   3.791  12.537 -0.5576 -0.0895  1.3456
16917TIP3    H272243   5.323   3.832  12.452  0.1872 -2.8427 -1.1874
16918TIP3   OH272244   2.714   1.190   1.403 -0.0034 -0.2269 -0.8428
16918TIP3    H172245   2.633   1.160   1.361 -0.7945  0.7672 -0.0583
16918TIP3    H272246   2.731   1.124   1.471 -0.6457  0.0368 -0.4230
16919TIP3   OH272247   2.647   4.608   1.887  0.6541  0.5785 -0.4996
16919TIP3    H172248   2.605   4.527   1.914  2.5109 -0.6651 -1.1880
16919TIP3    H272249   2.629   4.669   1.958 -0.5422 -0.5011  0.1616
16920TIP3   OH272250   6.415   5.288   5.815  0.0406  0.4973  0.2972
16920TIP3    H172251   6.450   5.219   5.871  0.5539  0.8881  0.4588
16920TIP3    H272252   6.354   5.242   5.757 -0.8518  0.1684  1.4683
16921TIP3   OH272253   5.173   6.182   4.004 -0.3425  0.3743  0.3341
16921TIP3    H172254   5.133   6.176   4.091  0.3439 -3.0426  0.5687
16921TIP3    H272255   5.112   6.134   3.947  0.9746 -0.6631 -0.2626
16922TIP3   OH272256   5.629   3.508   0.892 -0.1095  0.3268 -0.5234
16922TIP3    H172257   5.683   3.568   0.841  1.8192 -1.3830 -0.6228
16922TIP3    H272258   5.574   3.464   0.826 -0.1198  0.5903 -0.6910
16923TIP3   OH272259   2.996   0.513  11.979  0.2498 -0.5540  0.6518
16923TIP3    H172260   3.026   0.524  11.889  1.0161 -0.7754  0.8747
16923TIP3    H272261   2.963   0.423  11.983 -0.6631 -0.2455  0.3529
16924TIP3   OH272262   6.326   4.212   3.703 -0.4588 -0.2002  0.2176
16924TIP3    H172263   6.396   4.274   3.725  0.7556 -1.7786  1.1393
16924TIP3    H272264   6.362   4.127   3.730 -1.5823 -1.4651 -2.0048
16925TIP3   OH272265   3.432   0.326   4.575 -0.3720 -0.5016 -0.0205
16925TIP3    H172266   3.402   0.389   4.640 -0.8767 -1.7546  1.0290
16925TIP3    H272267   3.399   0.359   4.492  1.1310  1.6716  0.1714
16926TIP3   OH272268   0.190   5.124  17.009 -0.2344 -1.1677 -0.1034
16926TIP3    H172269   0.206   5.185  16.936  0.4357  0.4407  1.3130
16926TIP3    H272270   0.124   5.064  16.976 -2.7888  1.7832 -0.8352
16927TIP3   OH272271   6.309   5.711  14.370  0.7096 -0.0674  0.2439
16927TIP3    H172272   6.312   5.762  14.289 -0.1411  0.6272  0.6241
16927TIP3    H272273   6.399   5.684  14.385  0.7532 -0.9167 -1.3629
16928TIP3   OH272274   5.677   5.744   1.495  0.1086 -0.6062 -0.1307
16928TIP3    H172275   5.586   5.768   1.480  0.1584  0.8160  1.3882
16928TIP3    H272276   5.676   5.651   1.514 -1.2373 -0.3907  1.0197
16929TIP3   OH272277   3.112   4.954  11.545 -0.4311 -0.0984  0.5987
16929TIP3    H172278   3.203   4.944  11.572 -0.0138  0.5339 -0.4939
16929TIP3    H272279   3.094   4.876  11.492 -0.4041 -0.0419  0.5065
16930TIP3   OH272280   2.730   4.228   2.979  0.3029  0.0556 -0.3973
16930TIP3    H172281   2.823   4.204   2.989  0.2206  0.6015  3.0452
16930TIP3    H272282   2.683   4.153   3.015 -0.8338 -1.0459 -3.8032
16931TIP3   OH272283   3.360   5.310   5.999  0.0609  0.3019  0.0344
16931TIP3    H172284   3.364   5.258   6.079 -1.9837 -0.3358 -0.2209
16931TIP3    H272285   3.355   5.245   5.929  1.7519  0.8531 -0.6589
16932TIP3   OH272286   6.626   4.081  11.349 -0.0370 -0.4279  0.6812
16932TIP3    H172287   6.601   4.153  11.292  0.2173 -1.8225 -1.2966
16932TIP3    H272288   6.610   4.002  11.297  2.1110 -1.6964  1.7793
16933TIP3   OH272289   4.833   5.196  12.643  0.5234  0.3476  0.5067
16933TIP3    H172290   4.780   5.124  12.610  0.4334  0.4582  0.4069
16933TIP3    H272291   4.851   5.250  12.566  1.5882 -0.1947  0.3585
16934TIP3   OH272292   3.021   0.385  16.842  0.4036 -0.2769  0.6755
16934TIP3    H172293   2.967   0.369  16.764 -0.0348  1.3775  0.6053
16934TIP3    H272294   3.110   0.363  16.814  0.1586 -0.3333 -0.0879
16935TIP3   OH272295   0.360   1.862   0.790  0.0763 -0.1018  0.2835
16935TIP3    H172296   0.317   1.936   0.834  0.9484 -0.0978  1.1761
16935TIP3    H272297   0.296   1.831   0.727 -2.1039 -1.3803  2.8963
16936TIP3   OH272298   6.752   4.668   0.080  0.3080  0.2929  0.0746
16936TIP3    H172299   6.835   4.655   0.126 -0.3433 -0.1242  1.1718
16936TIP3    H272300   6.777   4.682  -0.012  1.4862 -1.7566  0.0293
16937TIP3   OH272301   3.637   3.324  11.332 -0.3800 -0.0279  0.0640
16937TIP3    H172302   3.679   3.252  11.378  2.1123  0.7904 -0.7914
16937TIP3    H272303   3.668   3.317  11.242 -0.7226  1.6301 -0.2186
16938TIP3   OH272304   2.271   5.380  16.479 -0.0381 -0.2253 -0.1444
16938TIP3    H172305   2.315   5.458  16.446  1.4421 -1.4791 -1.3048
16938TIP3    H272306   2.192   5.373  16.425  0.0715  0.1819 -0.3644
16939TIP3   OH272307   1.551   6.723   0.436 -0.1599 -0.6078 -0.3817
16939TIP3    H172308   1.550   6.630   0.459 -0.3224 -0.8685 -1.4220
16939TIP3    H272309   1.478   6.760   0.485 -0.7458 -1.2306 -0.7650
16940TIP3   OH272310   1.147   5.421   3.932 -0.3694 -0.4858 -0.3595
16940TIP3    H172311   1.225   5.365   3.934  1.6195  1.9941 -1.9241
16940TIP3    H272312   1.181   5.510   3.944 -3.0615  0.6373 -0.4146
16941TIP3   OH272313   0.707   0.582  11.946 -0.0268  0.1840  0.2112
16941TIP3    H172314   0.725   0.491  11.970  0.0694  0.6288  1.9515
16941TIP3    H272315   0.775   0.603  11.882  0.0673 -0.9074 -0.0724
16942TIP3   OH272316   3.447   5.414   3.075  0.1292  0.1515  0.7185
16942TIP3    H172317   3.445   5.509   3.063 -1.3935 -0.0756 -1.3701
16942TIP3    H272318   3.514   5.383   3.014  1.7246 -0.0534  2.4887
16943TIP3   OH272319   4.178   1.742  10.650 -0.2783 -0.6832  0.1361
16943TIP3    H172320   4.155   1.822  10.604  0.3863  1.7979  3.6934
16943TIP3    H272321   4.236   1.695  10.591 -0.6674  1.4633 -2.0723
16944TIP3   OH272322   0.208   1.720   4.049 -0.0693  0.0101 -0.1270
16944TIP3    H172323   0.231   1.681   3.964 -0.4822  1.7873 -1.1011
16944TIP3    H272324   0.292   1.738   4.091  0.1621 -0.1782 -0.4991
16945TIP3   OH272325   1.587   6.308   4.716 -0.3900  0.1889  0.4381
16945TIP3    H172326   1.574   6.400   4.735  0.0359  0.4963 -0.6766
16945TIP3    H272327   1.673   6.304   4.674  0.0011 -0.8384  1.2879
16946TIP3   OH272328   2.304   0.614  11.915 -0.1980 -0.3190 -0.4797
16946TIP3    H172329   2.211   0.625  11.894  0.2471  2.9934 -1.2530
16946TIP3    H272330   2.319   0.674  11.987  1.3493 -0.9324 -0.2636
16947TIP3   OH272331   3.982   2.410  12.609  0.2169 -0.6424  0.0231
16947TIP3    H172332   4.054   2.473  12.617 -0.1273 -0.0294 -1.5017
16947TIP3    H272333   4.020   2.338  12.559 -0.1873 -0.3612 -0.6995
16948TIP3   OH272334   4.073   4.950   0.130 -0.1143 -0.3965  0.0754
16948TIP3    H172335   4.109   5.019   0.185  0.4582  0.5172 -1.3715
16948TIP3    H272336   4.062   4.875   0.189  0.0511  0.6596  1.4972
16949TIP3   OH272337   0.589   0.404   3.286 -0.7156  0.0614  0.4785
16949TIP3    H172338   0.629   0.478   3.333  0.6511  0.5229 -1.3193
16949TIP3    H272339   0.536   0.445   3.218 -0.2928 -0.6064 -0.2596
16950TIP3   OH272340   3.602   1.620   1.003  0.2880 -0.0315 -0.0725
16950TIP3    H172341   3.573   1.679   1.072  0.7026  0.7697 -0.5644
16950TIP3    H272342   3.545   1.543   1.011 -1.7305  1.3320 -0.7792
16951TIP3   OH272343   1.789   4.023   2.954 -0.1100  0.3436 -0.2368
16951TIP3    H172344   1.813   4.035   2.862 -1.4821 -1.0983 -0.8406
16951TIP3    H272345   1.694   4.008   2.952 -0.3291  1.2544  1.5362
16952TIP3   OH272346   2.775   5.266   0.218 -0.7851  0.8571  0.1697
16952TIP3    H172347   2.692   5.221   0.234  0.7087 -2.5987 -0.7512
16952TIP3    H272348   2.773   5.288   0.125 -0.6318  0.6716  0.1222
16953TIP3   OH272349   3.570   3.207   6.472 -0.2341 -0.0804  0.2127
16953TIP3    H172350   3.639   3.145   6.497 -0.5610 -1.0835 -1.2682
16953TIP3    H272351   3.494   3.152   6.453 -0.7315  0.8229 -0.5049
16954TIP3   OH272352   2.447   3.422   1.014 -0.5096  0.0344  0.1397
16954TIP3    H172353   2.367   3.409   0.964 -0.5640 -1.3933  0.5368
16954TIP3    H272354   2.480   3.507   0.986  0.2852 -1.2627 -3.5108
16955TIP3   OH272355   2.846   1.050  14.933  0.4012 -0.0347  0.1235
16955TIP3    H172356   2.926   1.055  14.985  0.3007 -0.4873  0.3256
16955TIP3    H272357   2.776   1.075  14.993  0.6096  2.7206 -0.6577
16956TIP3   OH272358   5.406   4.960   0.173  0.2970  0.3431 -0.3237
16956TIP3    H172359   5.431   5.049   0.152  0.6003  0.4639  0.5237
16956TIP3    H272360   5.485   4.908   0.157  0.0705  0.1881 -0.9888
16957TIP3   OH272361   0.751   2.753  13.962 -0.2187 -0.2914 -0.1953
16957TIP3    H172362   0.691   2.805  13.908  1.2092  0.1438 -1.4385
16957TIP3    H272363   0.774   2.678  13.908  0.4862 -0.3631  0.1912
16958TIP3   OH272364   3.442   6.436   3.772 -0.6608  0.6782  0.1810
16958TIP3    H172365   3.356   6.441   3.814 -1.6436 -1.2836 -1.4188
16958TIP3    H272366   3.483   6.358   3.810  0.9277  2.1247  1.6591
16959TIP3   OH272367   1.435   6.299   4.951  0.7374  0.5088  0.3196
16959TIP3    H172368   1.503   6.281   4.886 -0.2089 -1.0338 -0.2942
16959TIP3    H272369   1.443   6.393   4.968  0.0234  1.3776 -3.2522
16960TIP3   OH272370   3.759   0.624   1.283 -0.3312  0.2102 -0.0851
16960TIP3    H172371   3.765   0.538   1.325 -1.1165  1.0360  1.8407
16960TIP3    H272372   3.702   0.675   1.341 -0.3813  1.8541 -1.5006
16961TIP3   OH272373   3.974   0.005   5.123 -0.4585 -0.0052 -0.4735
16961TIP3    H172374   3.940   0.021   5.211  0.7515  2.8281 -0.4059
16961TIP3    H272375   3.907  -0.050   5.081 -2.1914  0.5032  1.4483
16962TIP3   OH272376   6.143   2.556  16.341 -0.3084  0.2781  0.0795
16962TIP3    H172377   6.098   2.539  16.425  0.0182 -0.7246  0.0623
16962TIP3    H272378   6.115   2.644  16.317 -2.3769 -0.3213  0.0219
16963TIP3   OH272379   4.271   6.773  12.890 -0.0916 -0.8444 -0.1174
16963TIP3    H172380   4.242   6.846  12.944  2.0427 -1.1629  1.6174
16963TIP3    H272381   4.190   6.727  12.866 -1.3353  1.0665  0.1980
16964TIP3   OH272382   2.689   4.795   5.605  0.7593 -0.5795  0.0632
16964TIP3    H172383   2.637   4.715   5.600  1.8070 -1.2781  0.1533
16964TIP3    H272384   2.744   4.792   5.527  0.5698  0.2391 -0.1155
16965TIP3   OH272385   1.814   0.232   3.662 -0.4580  0.0374  0.3026
16965TIP3    H172386   1.781   0.257   3.575 -0.1267  1.2698  0.5044
16965TIP3    H272387   1.842   0.141   3.652 -1.4462 -0.1943 -0.5837
16966TIP3   OH272388   5.958   0.038   3.279 -0.3475 -0.1781 -0.0653
16966TIP3    H172389   5.999  -0.039   3.319  1.7976 -0.3766 -2.4313
16966TIP3    H272390   5.892   0.001   3.220  1.7332 -0.4139 -2.3769
16967TIP3   OH272391   1.127   2.350   5.479  0.2112  0.6971 -0.2991
16967TIP3    H172392   1.052   2.303   5.444  0.4887 -0.5865  0.7526
16967TIP3    H272393   1.188   2.357   5.405 -0.4890  0.8076 -0.8716
16968TIP3   OH272394   1.339   2.504  12.215  0.4103  0.6495 -0.1244
16968TIP3    H172395   1.254   2.467  12.237  0.1031  1.3644 -0.1073
16968TIP3    H272396   1.326   2.544  12.129  0.5826  1.2327  0.1192
16969TIP3   OH272397   6.606   5.830  14.409 -0.0414  0.2591  0.3895
16969TIP3    H172398   6.675   5.841  14.475 -0.5490 -1.0435  1.1597
16969TIP3    H272399   6.564   5.916  14.404  0.6606  0.6517  0.9984
16970TIP3   OH272400   2.553   5.857  16.295  0.3831 -0.0479  0.0805
16970TIP3    H172401   2.548   5.870  16.200  0.1732 -0.8221 -0.0226
16970TIP3    H272402   2.466   5.883  16.327  0.9328  1.6829  0.2673
16971TIP3   OH272403   4.184   5.194   5.238 -0.1485 -0.3061  0.3094
16971TIP3    H172404   4.177   5.099   5.250  2.8001 -0.7646 -0.8221
16971TIP3    H272405   4.248   5.222   5.304  0.2685  0.5886 -0.4498
16972TIP3   OH272406   0.651   0.555   3.914  0.3796  0.1771  0.7148
16972TIP3    H172407   0.686   0.538   4.001 -0.7700 -0.6982  1.0448
16972TIP3    H272408   0.620   0.645   3.918  0.4694  0.1913  1.1688
16973TIP3   OH272409   1.767   5.692  10.909  0.0908  0.0778  0.4602
16973TIP3    H172410   1.774   5.615  10.854  2.2607  0.5622 -0.0616
16973TIP3    H272411   1.844   5.688  10.966  0.7675  2.2374 -0.1729
16974TIP3   OH272412   6.289   6.800  13.344  0.3858  0.2728 -0.1074
16974TIP3    H172413   6.279   6.883  13.297  0.3786 -1.0401 -2.5798
16974TIP3    H272414   6.304   6.735  13.276  3.0324 -1.4329  1.8876
16975TIP3   OH272415   4.769   3.447  15.179  0.1977  0.1822 -0.1143
16975TIP3    H172416   4.698   3.383  15.180 -1.0354  1.5076  0.5604
16975TIP3    H272417   4.831   3.415  15.244 -1.6611  0.9544  2.1725
16976TIP3   OH272418   4.579   6.486   0.955 -0.8276  0.4658  0.7089
16976TIP3    H172419   4.655   6.459   0.903 -0.6226  1.2511  0.5823
16976TIP3    H272420   4.564   6.577   0.929 -0.3117  1.0958  2.4797
16977TIP3   OH272421   4.838   1.433  12.344 -0.7441  0.6447 -0.0045
16977TIP3    H172422   4.852   1.340  12.361  0.7519  0.8712  0.1623
16977TIP3    H272423   4.839   1.440  12.248  0.1968  0.6072 -0.0113
16978TIP3   OH272424   2.931   2.964   0.749  0.0596  0.9055  0.3295
16978TIP3    H172425   2.932   2.959   0.654 -0.7900  2.2545  0.2210
16978TIP3    H272426   2.887   3.047   0.768 -0.2444  0.4158  1.8977
16979TIP3   OH272427   4.788   3.307   1.633 -0.1272  0.0022  0.2207
16979TIP3    H172428   4.780   3.298   1.538 -0.7061 -1.6469  0.4103
16979TIP3    H272429   4.877   3.278   1.652 -0.0149  0.3228  0.2034
16980TIP3   OH272430   5.442   4.834   5.206  0.3687 -0.5611 -0.1772
16980TIP3    H172431   5.506   4.890   5.250  1.7218 -1.5515 -0.8129
16980TIP3    H272432   5.443   4.863   5.115  1.6337 -2.0011 -0.6845
16981TIP3   OH272433   1.003   0.532  10.401  0.1638 -0.0359  0.2795
16981TIP3    H172434   1.093   0.500  10.411  0.6000  0.9154 -0.4248
16981TIP3    H272435   0.969   0.484  10.325 -0.4168 -1.4029  1.3636
16982TIP3   OH272436   2.537   2.958  15.228  0.6636 -0.3791  0.4302
16982TIP3    H172437   2.525   3.052  15.215  0.9120 -0.3558  0.3549
16982TIP3    H272438   2.548   2.923  15.139 -2.0039 -0.8656  0.2114
16983TIP3   OH272439   1.069   2.404  15.220  0.4825  0.7460 -1.0726
16983TIP3    H172440   1.033   2.445  15.299 -0.5454 -0.4346 -0.8899
16983TIP3    H272441   1.160   2.432  15.218  0.9059 -0.2233  1.2612
16984TIP3   OH272442   0.706   2.770  16.230 -0.4619 -0.2602  0.0661
16984TIP3    H172443   0.749   2.831  16.290  0.9190 -1.6663  0.5980
16984TIP3    H272444   0.686   2.821  16.152  0.9875  0.7948  0.3456
16985TIP3   OH272445   2.399   1.805   2.459 -0.1577  1.0025  0.3700
16985TIP3    H172446   2.443   1.822   2.543  0.6809  0.3911  0.0701
16985TIP3    H272447   2.454   1.739   2.416 -0.9023  0.8691 -0.4076
16986TIP3   OH272448   4.657   2.668  13.359  0.3961 -0.2248 -0.1819
16986TIP3    H172449   4.682   2.694  13.448  1.0560 -1.1712 -0.0742
16986TIP3    H272450   4.694   2.736  13.303 -0.4813  0.6714  0.2902
16987TIP3   OH272451   5.141   2.146   0.349  0.8872 -0.1108 -0.0648
16987TIP3    H172452   5.088   2.213   0.393  0.5050  0.2622 -1.0720
16987TIP3    H272453   5.092   2.065   0.361 -1.0132  0.5292 -2.6496
16988TIP3   OH272454   4.969   4.445  14.692 -0.0900  0.0201  0.3134
16988TIP3    H172455   4.969   4.420  14.785  2.1264  0.6265  0.5298
16988TIP3    H272456   5.035   4.388  14.652  0.8969  1.5520 -0.3321
16989TIP3   OH272457   0.353   2.070   2.695  0.1188 -0.1224  0.0456
16989TIP3    H172458   0.283   2.011   2.725  0.4395  0.1561  1.4449
16989TIP3    H272459   0.417   2.013   2.653  0.2787 -0.7556  1.1088
16990TIP3   OH272460   3.568   5.479  14.640 -0.1610  0.3419 -0.7595
16990TIP3    H172461   3.598   5.509  14.726 -0.4727 -0.5191 -0.3327
16990TIP3    H272462   3.601   5.389  14.634  1.6960  1.0610 -2.4673
16991TIP3   OH272463   4.561   0.256   6.421 -0.0654 -0.2729 -0.0380
16991TIP3    H172464   4.606   0.198   6.360 -0.1262 -0.3506 -0.0098
16991TIP3    H272465   4.541   0.334   6.369 -0.2310 -0.3909 -0.1546
16992TIP3   OH272466   2.578   0.013   5.254  0.2726  0.2453  0.3502
16992TIP3    H172467   2.635  -0.064   5.254 -1.6362 -1.2296  0.4356
16992TIP3    H272468   2.594   0.055   5.170 -1.2916 -2.3402 -1.3671
16993TIP3   OH272469   3.465   6.084  10.467 -0.1008 -0.0355 -0.1809
16993TIP3    H172470   3.557   6.102  10.484 -0.0381  1.2226 -1.6319
16993TIP3    H272471   3.463   6.047  10.378 -0.9727 -0.3241 -0.0596
16994TIP3   OH272472   3.551   6.218  10.172 -0.1229  0.2601 -0.2577
16994TIP3    H172473   3.536   6.124  10.178  0.3272  0.1888 -0.1691
16994TIP3    H272474   3.646   6.227  10.180  0.2277  0.4641 -3.3763
16995TIP3   OH272475   3.229   0.099   6.314  0.0666 -0.4309 -0.8072
16995TIP3    H172476   3.278   0.145   6.245  0.8211  0.8748  0.5336
16995TIP3    H272477   3.296   0.054   6.365 -0.6236 -2.7307 -1.7942
16996TIP3   OH272478   5.970   1.051  15.865  0.3635  0.0816  0.6342
16996TIP3    H172479   5.970   1.109  15.941 -0.0071  0.1432  0.5886
16996TIP3    H272480   5.877   1.034  15.848  0.4711 -0.8365  0.8864
16997TIP3   OH272481   6.623   5.309  13.216  0.3944  0.9116 -0.5769
16997TIP3    H172482   6.717   5.313  13.202  0.7490 -1.1775  0.9201
16997TIP3    H272483   6.611   5.247  13.287 -2.2698 -0.9654 -2.4686
16998TIP3   OH272484   3.164   4.709  15.849  0.6442  0.9196  0.5015
16998TIP3    H172485   3.115   4.773  15.797 -0.1221 -0.8504 -1.0894
16998TIP3    H272486   3.256   4.736  15.839  0.4324  1.1815 -1.0423
16999TIP3   OH272487   6.654   5.965  12.064  0.1930  0.1892  0.1095
16999TIP3    H172488   6.587   5.982  11.999  0.7695  0.1216 -0.5137
16999TIP3    H272489   6.707   5.894  12.027  0.0814 -0.3813  0.9908
17000TIP3   OH272490   3.837   6.116   0.233  0.8096 -0.4008  0.2594
17000TIP3    H172491   3.849   6.199   0.279 -0.2798  1.3973 -2.3885
17000TIP3    H272492   3.772   6.069   0.285  0.4737  1.0145  1.1834
17001TIP3   OH272493   0.427   0.787   2.607 -0.6571  0.7990 -0.2829
17001TIP3    H172494   0.391   0.875   2.622  1.1940  1.2441  1.9814
17001TIP3    H272495   0.513   0.788   2.649 -0.8914 -2.3528  0.5345
17002TIP3   OH272496   3.608   6.409  12.331 -0.0913  0.1949  0.5337
17002TIP3    H172497   3.522   6.368  12.343  0.7961 -1.8982  0.2016
17002TIP3    H272498   3.669   6.347  12.371  1.4293  0.7356 -0.8436
17003TIP3   OH272499   2.188   1.064  13.311  0.5070  0.0353  1.1716
17003TIP3    H172500   2.223   0.975  13.307  0.0732 -0.1066  0.2923
17003TIP3    H272501   2.094   1.054  13.298  0.4673  0.6336  0.9603
17004TIP3   OH272502   6.643   2.793   4.418 -0.4971 -0.5889  0.3163
17004TIP3    H172503   6.728   2.772   4.458 -0.0306 -0.7661 -0.7420
17004TIP3    H272504   6.664   2.816   4.327 -1.5236 -0.0679  0.1985
17005TIP3   OH272505   2.921   4.416  12.595 -0.2894  0.3292  0.0154
17005TIP3    H172506   2.918   4.457  12.681 -0.3994  0.0164  0.1621
17005TIP3    H272507   2.941   4.487  12.534 -0.6528  0.6282  0.2452
17006TIP3   OH272508   2.404   0.853   2.012  0.2673 -0.2296  0.5246
17006TIP3    H172509   2.330   0.841   1.953  0.3438 -0.2271  0.4267
17006TIP3    H272510   2.370   0.906   2.083  0.3385  0.3290  0.1515
17007TIP3   OH272511   4.009   5.144   3.055 -0.5173 -0.0264 -0.2170
17007TIP3    H172512   3.970   5.213   3.002 -2.8491 -1.5260 -0.5885
17007TIP3    H272513   3.937   5.084   3.074  0.1563  0.2187  4.4760
17008TIP3   OH272514   2.367   4.450   4.556  0.1678  0.3582  0.2802
17008TIP3    H172515   2.307   4.385   4.592  2.2394 -1.8152  0.0686
17008TIP3    H272516   2.417   4.482   4.631 -1.4291  2.5021  0.5289
17009TIP3   OH272517   3.488   4.569   0.121 -0.3674  0.3062 -0.6719
17009TIP3    H172518   3.481   4.649   0.172 -1.4023 -0.7296  0.9237
17009TIP3    H272519   3.424   4.509   0.161  1.6418 -1.9330 -0.5665
17010TIP3   OH272520   6.695   0.684  15.206  0.0698 -0.4697  0.6592
17010TIP3    H172521   6.759   0.617  15.230 -0.3348 -0.1348  2.7870
17010TIP3    H272522   6.614   0.657  15.248  0.2325  2.0281  2.7879
17011TIP3   OH272523   5.406   2.200  12.728 -0.1571 -0.0847  0.4884
17011TIP3    H172524   5.334   2.153  12.685  2.4442 -0.8633 -3.5672
17011TIP3    H272525   5.470   2.132  12.748  0.8290  0.9417  0.9287
17012TIP3   OH272526   6.173   3.740  16.277 -1.1308  0.1059 -0.2148
17012TIP3    H172527   6.113   3.668  16.255 -1.4684  0.4811 -0.5270
17012TIP3    H272528   6.117   3.806  16.319 -0.7001 -0.0976  0.7081
17013TIP3   OH272529   5.383   6.508   2.043 -0.2094 -0.1613 -0.0439
17013TIP3    H172530   5.376   6.440   2.109 -0.2543 -0.7560 -0.6463
17013TIP3    H272531   5.373   6.462   1.960 -2.5476  0.8709 -0.4112
17014TIP3   OH272532   0.952   4.624  16.535  0.0195  0.0077 -0.2575
17014TIP3    H172533   0.919   4.712  16.556  0.8012  0.0764  0.7523
17014TIP3    H272534   1.008   4.601  16.609 -0.4113 -1.4798 -0.3581
17015TIP3   OH272535   2.821   4.505  14.472 -0.2916 -0.3307  0.0861
17015TIP3    H172536   2.750   4.486  14.534  1.4043 -0.9715  1.9568
17015TIP3    H272537   2.794   4.586  14.429 -1.5689  0.1572  1.6913
17016TIP3   OH272538   5.289   1.027  12.072 -0.9060 -0.0242  0.3058
17016TIP3    H172539   5.205   1.070  12.055 -0.4513  0.0381 -2.2228
17016TIP3    H272540   5.298   0.963  12.001  1.0938 -0.1518  0.6107
17017TIP3   OH272541   1.412   0.044  11.933 -0.3171  0.5882  0.0673
17017TIP3    H172542   1.481  -0.023  11.935 -1.8908 -1.1060  1.1529
17017TIP3    H272543   1.448   0.116  11.985  2.1976  1.5500 -2.7074
17018TIP3   OH272544   6.197   1.286  11.647 -0.3331  0.2188 -0.2308
17018TIP3    H172545   6.169   1.197  11.671 -0.6136  0.1442 -0.8182
17018TIP3    H272546   6.219   1.280  11.554  0.8913  0.4696  0.0332
17019TIP3   OH272547   2.010   4.007  12.891 -0.1576 -0.4844 -0.0501
17019TIP3    H172548   1.973   3.942  12.951  0.4796 -1.8589 -1.0830
17019TIP3    H272549   2.101   3.979  12.878 -0.1231  0.0976 -1.2117
17020TIP3   OH272550   6.405   0.002   6.468 -0.7780 -0.4317  0.4957
17020TIP3    H172551   6.479  -0.038   6.422 -0.3193  0.3225  0.5579
17020TIP3    H272552   6.445   0.068   6.524 -1.6005  1.0420 -0.5845
17021TIP3   OH272553   6.359   1.495   3.044 -0.0599  0.5001 -0.1576
17021TIP3    H172554   6.341   1.474   2.953  2.0281 -2.5131 -0.0354
17021TIP3    H272555   6.450   1.467   3.057 -0.3364  0.6936  2.8884
17022TIP3   OH272556   4.599   0.022  17.014 -0.0836 -0.7918 -0.3745
17022TIP3    H172557   4.657   0.044  16.941 -2.1564  0.1402 -1.8331
17022TIP3    H272558   4.638   0.065  17.090  2.4221 -2.2323 -0.7268
17023TIP3   OH272559   2.201   0.309  16.202 -0.1889  0.0054  0.1980
17023TIP3    H172560   2.250   0.262  16.270 -1.0358 -0.0063  0.8268
17023TIP3    H272561   2.204   0.401  16.230  0.6418  0.2043 -0.5099
17024TIP3   OH272562   3.261   2.371   1.904 -0.3051  0.0694 -0.1569
17024TIP3    H172563   3.245   2.371   1.999 -3.0712 -1.8625 -0.4840
17024TIP3    H272564   3.339   2.316   1.893 -0.8970 -1.0385  0.9322
17025TIP3   OH272565   1.421   2.987  15.378  0.2157  0.4626  0.0570
17025TIP3    H172566   1.378   2.917  15.329  1.1101  0.5942 -0.9623
17025TIP3    H272567   1.367   3.064  15.362 -0.6293  0.0816  0.9754
17026TIP3   OH272568   5.312   1.380  15.935  0.2949 -0.8766 -0.3663
17026TIP3    H172569   5.324   1.288  15.958  1.7271 -0.9977 -1.4113
17026TIP3    H272570   5.366   1.428  15.998  2.4228 -1.0570 -1.9170
17027TIP3   OH272571   2.695   0.741   0.875 -0.3368 -0.2559 -0.0664
17027TIP3    H172572   2.782   0.762   0.907 -0.2617 -2.1684  1.1113
17027TIP3    H272573   2.701   0.750   0.780  0.9111  0.3909  0.0599
17028TIP3   OH272574   3.147   1.398  13.701  0.1133 -0.1483 -0.0883
17028TIP3    H172575   3.096   1.411  13.781  0.4343  2.1755 -0.1955
17028TIP3    H272576   3.082   1.398  13.631 -0.0232 -0.6435  0.0321
17029TIP3   OH272577   2.397   1.486  10.834  0.3510 -0.2186 -0.2708
17029TIP3    H172578   2.482   1.523  10.812  0.6323 -0.7728 -0.1230
17029TIP3    H272579   2.341   1.563  10.849  1.3601  0.1931  1.7665
17030TIP3   OH272580   5.006   0.101   6.300  0.8787  0.4419 -0.0943
17030TIP3    H172581   5.010   0.006   6.291 -3.1354  0.2289 -1.8737
17030TIP3    H272582   5.033   0.135   6.215  2.0776  0.9490  0.4611
17031TIP3   OH272583   1.820   2.665   1.596  0.1667  0.0345 -0.9080
17031TIP3    H172584   1.886   2.603   1.565  0.9796  0.3679  0.1128
17031TIP3    H272585   1.742   2.611   1.613  0.9632 -0.7861  0.2853
17032TIP3   OH272586   5.360   5.577   2.721  0.1115 -0.1686 -0.2169
17032TIP3    H172587   5.370   5.546   2.810 -2.7208  0.1614  0.3254
17032TIP3    H272588   5.432   5.639   2.708  0.4279 -0.0262  1.9179
17033TIP3   OH272589   3.474   0.881   0.681 -0.2630  0.8595 -0.1168
17033TIP3    H172590   3.474   0.909   0.589  0.2027  1.8587  0.1740
17033TIP3    H272591   3.558   0.837   0.692  0.7609  2.7960  0.3928
17034TIP3   OH272592   1.705   3.256  14.395  0.0950 -0.0243 -0.2880
17034TIP3    H172593   1.780   3.260  14.455 -0.5522  0.8420  0.5072
17034TIP3    H272594   1.657   3.178  14.421 -0.3786  0.5437  0.5999
17035TIP3   OH272595   1.524   6.741   1.875  0.4612 -0.1341 -0.1132
17035TIP3    H172596   1.566   6.699   1.800 -2.8019 -0.5332 -1.8863
17035TIP3    H272597   1.569   6.826   1.882  3.9979 -1.8868  0.6022
17036TIP3   OH272598   4.183   4.778   5.858  0.0053 -0.0419  0.8925
17036TIP3    H172599   4.180   4.685   5.839 -0.4484  0.2524 -0.6726
17036TIP3    H272600   4.102   4.795   5.907 -0.3932 -0.3215  0.3470
17037TIP3   OH272601   1.798   5.019   0.381 -0.5656  0.0553  0.3887
17037TIP3    H172602   1.768   4.949   0.439 -1.7462  0.7349  0.6411
17037TIP3    H272603   1.841   5.081   0.440 -2.2577  1.0163  0.6635
17038TIP3   OH272604   1.555   1.896   2.473  0.5941 -0.1760 -0.1451
17038TIP3    H172605   1.520   1.917   2.560  0.8467  0.2464 -0.1406
17038TIP3    H272606   1.568   1.801   2.475 -0.2407 -0.2976 -0.0389
17039TIP3   OH272607   3.636   3.173   4.004  0.5004 -0.1603 -0.2505
17039TIP3    H172608   3.548   3.142   3.986  0.9441 -0.8532 -1.3477
17039TIP3    H272609   3.626   3.232   4.078 -0.7700 -0.8195  0.1383
17040TIP3   OH272610   3.604   4.887  14.777  0.3863 -0.4332 -0.3338
17040TIP3    H172611   3.683   4.856  14.733 -0.9817 -3.1214 -1.0958
17040TIP3    H272612   3.538   4.893  14.708 -0.5396  0.1297  0.5550
17041TIP3   OH272613   6.178   2.319  17.047 -0.0543  0.3061 -0.1819
17041TIP3    H172614   6.183   2.225  17.027 -1.1443  0.1931  0.0294
17041TIP3    H272615   6.109   2.352  16.991  0.5179  1.0498 -0.4576
17042TIP3   OH272616   4.751   6.733  14.703 -0.2954  0.0314  0.3483
17042TIP3    H172617   4.711   6.776  14.778  0.3140 -0.1947  0.8102
17042TIP3    H272618   4.706   6.648  14.698  0.6313 -0.5307  1.3272
17043TIP3   OH272619   6.525   0.842  16.793 -0.0834  0.3501  0.1086
17043TIP3    H172620   6.598   0.789  16.761 -2.7639 -4.0959  0.6112
17043TIP3    H272621   6.472   0.861  16.716 -0.6212 -0.3012  0.3086
17044TIP3   OH272622   2.542   2.684  14.437 -0.2473  0.4242  0.1566
17044TIP3    H172623   2.594   2.743  14.382  0.1769 -0.3663 -0.3048
17044TIP3    H272624   2.517   2.738  14.513  0.6947  1.0089  0.0692
17045TIP3   OH272625   5.575   6.327   1.029 -0.2205 -0.6690 -0.2132
17045TIP3    H172626   5.630   6.325   0.951 -0.4771  0.4539 -0.4369
17045TIP3    H272627   5.601   6.406   1.076 -0.4917 -1.0093  0.5256
17046TIP3   OH272628   6.724   6.371   3.166  1.3471  0.1285 -0.0771
17046TIP3    H172629   6.716   6.288   3.214 -1.1440  0.6310  0.5319
17046TIP3    H272630   6.682   6.436   3.223 -1.1061  0.8918 -2.5302
17047TIP3   OH272631   1.564   4.890   3.058  0.0016 -0.2253 -0.5896
17047TIP3    H172632   1.634   4.829   3.039  0.4956  0.2959 -0.4746
17047TIP3    H272633   1.606   4.962   3.104 -0.8494 -0.5627  0.7807
17048TIP3   OH272634   3.201   1.194   2.785  0.4559 -0.1490  0.3029
17048TIP3    H172635   3.284   1.147   2.789  0.1807 -0.5419  2.6437
17048TIP3    H272636   3.225   1.286   2.793  0.6726 -0.2680  1.0750
17049TIP3   OH272637   0.435   2.259   2.255 -0.0920  0.4290 -0.0065
17049TIP3    H172638   0.388   2.325   2.204 -2.0254 -1.6730 -1.1350
17049TIP3    H272639   0.477   2.204   2.190 -1.1494 -1.2813  0.6857
17050TIP3   OH272640   5.796   5.022   3.045 -0.3407  0.5263  0.1298
17050TIP3    H172641   5.883   5.040   3.081 -0.1838  0.4596 -0.2103
17050TIP3    H272642   5.736   5.042   3.116  0.0514 -1.0539  0.9327
17051TIP3   OH272643   3.409   2.488   1.238  0.2874 -0.0598 -0.5856
17051TIP3    H172644   3.481   2.491   1.175  0.4849  0.3121 -0.3434
17051TIP3    H272645   3.448   2.516   1.321 -0.5143  1.8541 -0.8095
17052TIP3   OH272646   3.038   6.613   5.357  0.2400 -0.4451 -0.2394
17052TIP3    H172647   3.123   6.658   5.352  0.3345 -0.4452  1.0484
17052TIP3    H272648   3.059   6.526   5.391 -0.3912  0.0537  1.5699
17053TIP3   OH272649   0.739   5.973   4.777 -0.3098  0.7409 -0.1955
17053TIP3    H172650   0.680   5.986   4.703 -0.5560  1.1988  0.0796
17053TIP3    H272651   0.822   6.012   4.748 -0.5447  1.3547 -0.0464
17054TIP3   OH272652   0.141   4.065   5.544 -0.1505 -0.4038 -0.4292
17054TIP3    H172653   0.168   4.033   5.631 -1.6484  0.4437  0.3910
17054TIP3    H272654   0.065   4.121   5.562  2.2966  3.8072 -1.7045
17055TIP3   OH272655   1.608   0.766   5.913 -0.1581  0.0319 -0.0211
17055TIP3    H172656   1.568   0.684   5.884 -0.3285  0.0269  0.2263
17055TIP3    H272657   1.547   0.800   5.978 -2.3144  2.4322 -3.0157
17056TIP3   OH272658   6.458   4.944  15.222 -0.1416  0.2779  0.4370
17056TIP3    H172659   6.512   4.930  15.144 -1.0739 -0.3381 -0.1231
17056TIP3    H272660   6.518   4.980  15.287  0.7635  0.3384 -0.4105
17057TIP3   OH272661   6.812   5.379   0.878 -0.0704  0.2530  0.5417
17057TIP3    H172662   6.727   5.335   0.870  0.4300 -0.7019  0.2456
17057TIP3    H272663   6.869   5.313   0.916  1.2324 -0.1106 -1.8136
17058TIP3   OH272664   1.641   6.523  12.739  0.1308  0.1165 -0.0241
17058TIP3    H172665   1.580   6.541  12.666  0.4310 -0.6312 -0.4797
17058TIP3    H272666   1.628   6.595  12.799 -0.9517  0.1741 -0.2901
17059TIP3   OH272667   2.396   5.800   3.338 -0.5610  0.0654  0.4746
17059TIP3    H172668   2.404   5.705   3.329  0.6664  0.3120 -1.8050
17059TIP3    H272669   2.310   5.820   3.301 -0.2317 -0.0408 -0.3658
17060TIP3   OH272670   4.885   5.937   2.499  0.2229  0.0094  0.0964
17060TIP3    H172671   4.960   5.954   2.442 -0.8759  0.4415 -1.2839
17060TIP3    H272672   4.815   5.991   2.463 -0.8560 -0.6356  1.1421
17061TIP3   OH272673   1.416   2.307  15.647 -0.0588 -0.0560  0.5417
17061TIP3    H172674   1.454   2.288  15.732 -1.7138 -1.0102  1.1232
17061TIP3    H272675   1.477   2.368  15.606  2.2680 -1.7624  1.2154
17062TIP3   OH272676   2.297   2.448  15.962  0.4718 -0.4754  0.2817
17062TIP3    H172677   2.309   2.519  15.898  0.3878  0.1868  0.9878
17062TIP3    H272678   2.385   2.432  15.995  0.3189  0.2028  1.0569
17063TIP3   OH272679   0.435   2.929   4.289 -0.4080 -0.6425  0.1544
17063TIP3    H172680   0.366   2.863   4.295 -0.4459 -0.5128  1.8090
17063TIP3    H272681   0.464   2.941   4.380 -1.2381  2.4752  0.1366
17064TIP3   OH272682   4.462   5.145   0.884  0.2556 -0.0421 -0.6045
17064TIP3    H172683   4.469   5.121   0.977  2.4256 -0.2743 -0.7785
17064TIP3    H272684   4.381   5.195   0.879 -0.5461 -1.0322  1.1817
17065TIP3   OH272685   0.085   6.459   2.533  0.2813 -0.6157  0.1318
17065TIP3    H172686   0.122   6.511   2.605 -1.3134  0.1804  0.4406
17065TIP3    H272687   0.151   6.462   2.465  0.2426  1.9807  0.0978
17066TIP3   OH272688   5.371   2.707  11.914  0.2662 -0.4458  0.0858
17066TIP3    H172689   5.327   2.656  11.846  0.5723 -0.2151 -0.2856
17066TIP3    H272690   5.364   2.652  11.993 -1.0778 -0.2180  0.1453
17067TIP3   OH272691   1.821   0.659  11.640  0.0601 -0.1193 -0.1873
17067TIP3    H172692   1.747   0.700  11.596  2.5143  2.1673 -2.5696
17067TIP3    H272693   1.816   0.690  11.730 -1.8005  0.0218 -0.3087
17068TIP3   OH272694   6.742   0.787  12.856  0.4626 -0.0270 -0.2200
17068TIP3    H172695   6.786   0.731  12.920  3.7525  3.3798  0.8585
17068TIP3    H272696   6.792   0.775  12.775  0.3401  0.3169 -0.3486
17069TIP3   OH272697   5.719   3.383  14.828  0.2762 -0.2851  0.0119
17069TIP3    H172698   5.633   3.348  14.804  0.3744  0.0304 -0.8283
17069TIP3    H272699   5.774   3.305  14.841  0.1250 -0.4711 -0.4539
17070TIP3   OH272700   5.256   0.123   5.210 -0.0164  0.5577 -0.0172
17070TIP3    H172701   5.260   0.137   5.115 -0.2460  0.9881  0.0308
17070TIP3    H272702   5.213   0.038   5.220  3.0935 -1.2250 -0.3749
17071TIP3   OH272703   1.631   2.796   2.735  0.2101  0.0713 -0.3413
17071TIP3    H172704   1.542   2.822   2.713  0.2530  0.6386  0.1433
17071TIP3    H272705   1.679   2.879   2.744  0.6804 -0.2147 -0.1700
17072TIP3   OH272706   1.670   6.664   6.099 -0.2586 -0.1570 -0.1917
17072TIP3    H172707   1.748   6.713   6.073  0.0654  2.5717  4.6983
17072TIP3    H272708   1.701   6.606   6.169 -1.9826 -2.0765 -0.9449
17073TIP3   OH272709   2.328   4.831   0.168  0.1276  0.1312 -0.0193
17073TIP3    H172710   2.251   4.779   0.148  1.0394 -0.3382 -2.6323
17073TIP3    H272711   2.306   4.919   0.138 -0.9355  1.1181  3.2426
17074TIP3   OH272712   6.481   2.996  15.182  0.0723  0.0230 -0.2831
17074TIP3    H172713   6.537   3.052  15.129  1.7673  0.8490  2.1915
17074TIP3    H272714   6.513   3.008  15.271 -1.9086 -2.1089  0.8201
17075TIP3   OH272715   0.826   0.350  14.608  0.1679  0.1543  0.0172
17075TIP3    H172716   0.839   0.386  14.696  1.0066  0.7592 -0.3363
17075TIP3    H272717   0.914   0.348  14.570  0.1167 -2.0343 -0.0946
17076TIP3   OH272718   5.970   5.914  16.095 -1.0965  0.6638  0.1860
17076TIP3    H172719   5.970   5.881  16.185 -0.4427  1.9663  0.6913
17076TIP3    H272720   6.056   5.888  16.061 -1.9411 -1.2321 -0.6430
17077TIP3   OH272721   3.752   6.284   3.203  0.1287 -0.4008  0.1656
17077TIP3    H172722   3.707   6.316   3.281 -2.3837  0.1855 -1.3907
17077TIP3    H272723   3.723   6.343   3.133 -0.0312 -2.5956 -1.7463
17078TIP3   OH272724   1.210   3.986  15.938  0.4881 -0.3857 -0.1009
17078TIP3    H172725   1.218   3.935  16.018 -0.8890 -0.2857  0.1245
17078TIP3    H272726   1.261   4.065  15.955  0.9339 -0.7631  0.3348
17079TIP3   OH272727   2.124   3.099   1.857  0.2667  0.4301  0.3320
17079TIP3    H172728   2.049   3.077   1.911 -2.1801  0.4719 -2.8055
17079TIP3    H272729   2.149   3.017   1.815  2.1771  0.3797  1.4171
17080TIP3   OH272730   2.456   1.584   5.160 -0.7237 -0.0083 -0.0091
17080TIP3    H172731   2.515   1.659   5.167  0.3195 -0.7504 -0.5772
17080TIP3    H272732   2.422   1.589   5.070  1.0558 -1.4091 -0.8156
17081TIP3   OH272733   6.257   6.100   1.763 -0.2008 -0.0086  0.1809
17081TIP3    H172734   6.311   6.076   1.839  0.1720 -0.3625 -0.1864
17081TIP3    H272735   6.241   6.017   1.718 -1.4831  0.0206  0.5487
17082TIP3   OH272736   0.413   5.371   3.424  0.5301 -0.2495  0.2194
17082TIP3    H172737   0.362   5.357   3.504  1.0607 -1.0346  0.4385
17082TIP3    H272738   0.352   5.352   3.353  0.1658  0.0621  0.4458
17083TIP3   OH272739   2.715   3.604  13.916 -0.8602 -0.0235  0.3709
17083TIP3    H172740   2.698   3.559  13.998  0.5178  1.2227  1.3789
17083TIP3    H272741   2.768   3.542  13.865 -0.4863 -0.2328  1.0140
17084TIP3   OH272742   0.137   2.657  14.408 -0.5295  0.5014 -1.1349
17084TIP3    H172743   0.167   2.720  14.474  3.6505 -2.3104  0.0894
17084TIP3    H272744   0.091   2.590  14.458  2.9752 -1.8361 -0.6632
17085TIP3   OH272745   1.861   4.945   5.976 -0.0192 -0.3989 -0.8505
17085TIP3    H172746   1.800   4.968   5.906  0.5236  0.4198 -1.0731
17085TIP3    H272747   1.878   5.028   6.021  0.6236 -0.6873 -0.5473
17086TIP3   OH272748   5.496   2.334  12.322  0.1252  0.5811  0.1856
17086TIP3    H172749   5.482   2.380  12.405  0.3194  0.6641  0.1737
17086TIP3    H272750   5.530   2.248  12.347  2.1897  1.3289  0.1478
17087TIP3   OH272751   6.447   2.838   3.356 -0.3466 -0.1095  0.2805
17087TIP3    H172752   6.390   2.830   3.280  0.1409  1.2201 -0.2500
17087TIP3    H272753   6.516   2.899   3.328 -0.2302  0.5069  1.8276
17088TIP3   OH272754   2.841   2.621  12.559 -0.3268  0.1181 -0.4903
17088TIP3    H172755   2.918   2.653  12.605 -0.4456  0.3799 -0.4695
17088TIP3    H272756   2.868   2.537  12.521 -0.5391 -0.6360  0.9499
17089TIP3   OH272757   1.783   2.997   4.178 -0.0387 -0.1037 -0.4837
17089TIP3    H172758   1.769   2.937   4.251 -0.8715 -2.3908 -2.4055
17089TIP3    H272759   1.864   2.966   4.136  0.1650  0.8566 -0.8291
17090TIP3   OH272760   1.963   2.821   2.520 -0.1487  0.1360 -0.0840
17090TIP3    H172761   1.966   2.795   2.612  1.2988  0.3620 -0.0583
17090TIP3    H272762   1.920   2.906   2.521 -1.9173 -0.6995  0.1575
17091TIP3   OH272763   0.089   4.723  14.921  0.3640 -0.4942  0.1411
17091TIP3    H172764   0.050   4.811  14.921  0.1355 -0.5769 -1.2127
17091TIP3    H272765   0.097   4.701  15.014 -1.6532  0.0428  0.4969
17092TIP3   OH272766   2.745   5.219   4.796 -0.0501 -0.2140  0.3899
17092TIP3    H172767   2.839   5.217   4.779 -0.1376  3.1223 -1.1623
17092TIP3    H272768   2.738   5.243   4.889  0.5467 -2.0250  0.9455
17093TIP3   OH272769   0.214   3.350  14.991 -0.2747 -0.3358 -0.2714
17093TIP3    H172770   0.143   3.407  14.959  0.3116  2.1733  2.5113
17093TIP3    H272771   0.202   3.348  15.086  1.5966 -2.4349 -0.0071
17094TIP3   OH272772   6.445   1.866  16.386  0.7904  0.6220 -0.0948
17094TIP3    H172773   6.518   1.872  16.324 -1.6354 -0.5078 -3.3550
17094TIP3    H272774   6.478   1.810  16.456  2.3072 -2.4039 -2.9207
17095TIP3   OH272775   3.644   3.741  16.171  0.1138  0.3764 -0.0212
17095TIP3    H172776   3.615   3.833  16.167  0.0708  0.3757  0.2734
17095TIP3    H272777   3.707   3.733  16.099 -0.0986  0.5601 -0.2302
17096TIP3   OH272778   3.365   2.693  16.779 -0.2238 -0.1900  0.0666
17096TIP3    H172779   3.374   2.765  16.842 -0.7902  1.4529 -1.6282
17096TIP3    H272780   3.274   2.663  16.790 -0.0271 -0.5765  0.6871
17097TIP3   OH272781   1.205   2.256   4.050  0.4460  0.4064  0.2617
17097TIP3    H172782   1.228   2.167   4.077 -1.1313 -0.1623 -0.1826
17097TIP3    H272783   1.286   2.292   4.015  1.1135 -0.8402  0.4639
17098TIP3   OH272784   3.962   0.865  15.684  0.3516  0.2827 -0.2149
17098TIP3    H172785   4.009   0.858  15.601  1.0123  0.9267  0.0936
17098TIP3    H272786   4.008   0.934  15.732 -1.5149  1.6562 -0.2880
17099TIP3   OH272787   6.514   0.113   3.336  0.2314 -0.1669  0.1513
17099TIP3    H172788   6.595   0.084   3.379  0.2449 -1.8821 -0.9204
17099TIP3    H272789   6.488   0.191   3.384  1.9411 -0.1939  1.2147
17100TIP3   OH272790   5.692   0.282  15.025 -0.0165  0.3181 -0.4507
17100TIP3    H172791   5.714   0.353  15.086 -1.0665  0.3784 -0.1223
17100TIP3    H272792   5.649   0.216  15.079 -2.8345  1.2357 -1.3798
17101TIP3   OH272793   1.253   1.200  14.549  0.3504 -0.3662  0.2646
17101TIP3    H172794   1.270   1.119  14.597  1.7718  0.2252  0.8276
17101TIP3    H272795   1.289   1.184  14.462  2.8449  0.4073  1.0562
17102TIP3   OH272796   0.241   4.822   4.469  0.1034 -0.5993  0.0749
17102TIP3    H172797   0.266   4.884   4.538 -3.3660  1.1452 -0.0305
17102TIP3    H272798   0.198   4.750   4.517  2.3085 -2.0772  0.0150
17103TIP3   OH272799   0.414   6.628   3.034 -0.1197 -0.1025  0.1997
17103TIP3    H172800   0.502   6.665   3.044 -0.5015  0.9402 -0.1672
17103TIP3    H272801   0.424   6.561   2.966  0.0843  1.1347 -1.0312
17104TIP3   OH272802   5.838   0.771  11.094  0.4050 -0.9296 -0.3126
17104TIP3    H172803   5.917   0.789  11.044  0.0502  0.6310 -0.3657
17104TIP3    H272804   5.777   0.733  11.031  1.2957 -2.7993 -0.1241
17105TIP3   OH272805   0.391   5.177   4.627 -0.1208  0.0205 -0.5432
17105TIP3    H172806   0.436   5.250   4.584  0.7167 -0.2312 -0.1123
17105TIP3    H272807   0.439   5.099   4.599 -1.0866 -0.3987 -1.0994
17106TIP3   OH272808   4.583   6.461   1.654  0.2271 -0.2931  0.4968
17106TIP3    H172809   4.568   6.555   1.644 -0.8152 -0.5498 -0.5821
17106TIP3    H272810   4.634   6.437   1.576 -0.1780 -0.7489  0.3647
17107TIP3   OH272811   5.123   6.486  13.304 -0.6277  0.3089 -1.1119
17107TIP3    H172812   5.175   6.416  13.342  0.3431  1.7183  0.3005
17107TIP3    H272813   5.059   6.508  13.372 -1.3078  0.3925 -1.7701
17108TIP3   OH272814   6.405   0.766   4.232 -0.3544  0.4824 -0.3092
17108TIP3    H172815   6.339   0.788   4.167  0.3661 -0.8990 -1.5596
17108TIP3    H272816   6.356   0.758   4.314 -1.7839 -0.7265 -1.2359
17109TIP3   OH272817   5.417   5.917  11.957  0.2690 -0.7691 -0.5679
17109TIP3    H172818   5.461   5.882  12.035  3.9088  1.5309 -1.3399
17109TIP3    H272819   5.408   5.841  11.899  1.0853 -1.8100  0.6196
17110TIP3   OH272820   5.430   0.375  17.008 -0.2075 -0.6371  0.4564
17110TIP3    H172821   5.352   0.352  17.057 -0.4298 -2.0444 -0.4806
17110TIP3    H272822   5.439   0.304  16.943  0.7609  0.4845 -0.6923
17111TIP3   OH272823   3.146   5.332   5.237 -0.0908  0.0402  0.2315
17111TIP3    H172824   3.060   5.374   5.235  0.0191  0.3695  1.4122
17111TIP3    H272825   3.208   5.405   5.226  0.0481 -0.1316 -0.1296
17112TIP3   OH272826   2.578   3.054  13.487 -0.0015 -0.0620 -0.1082
17112TIP3    H172827   2.572   3.120  13.418 -1.1182 -1.4804 -1.4144
17112TIP3    H272828   2.537   3.096  13.563 -2.5052  0.1085 -1.4437
17113TIP3   OH272829   0.718   2.652  11.960 -0.0415  0.2480  0.6920
17113TIP3    H172830   0.685   2.645  12.050  0.0437  0.2861  0.7263
17113TIP3    H272831   0.701   2.567  11.921 -1.0666  0.5704  0.4076
17114TIP3   OH272832   3.763   0.762  12.659 -0.1036 -0.2635  0.2735
17114TIP3    H172833   3.855   0.784  12.674  0.2980 -0.9820 -0.9928
17114TIP3    H272834   3.763   0.715  12.576 -1.6570 -0.0699  0.1408
17115TIP3   OH272835   3.931   4.986  15.846  0.3818  0.9390 -0.0488
17115TIP3    H172836   3.911   4.991  15.752  1.0882  0.0867 -0.2725
17115TIP3    H272837   3.846   4.979  15.889  0.0340  1.6939 -0.5959
17116TIP3   OH272838   2.610   6.763   3.832  0.1074 -0.2041 -0.0366
17116TIP3    H172839   2.517   6.746   3.818  0.5058 -2.4001 -0.4214
17116TIP3    H272840   2.617   6.791   3.923 -0.8061 -1.1362  0.3319
17117TIP3   OH272841   5.024   2.666  15.735 -0.2283 -0.4804  0.6682
17117TIP3    H172842   4.999   2.647  15.825 -0.6055 -1.2627  0.4030
17117TIP3    H272843   4.942   2.666  15.686 -0.0795  0.3902  0.3927
17118TIP3   OH272844   0.724   0.895   1.512  0.0832  0.1631 -0.3710
17118TIP3    H172845   0.799   0.891   1.572 -1.8089 -1.0069  2.1403
17118TIP3    H272846   0.649   0.873   1.567 -1.9580 -0.0509 -3.0428
17119TIP3   OH272847   2.037   5.088   2.286  0.6381 -0.7925 -0.2327
17119TIP3    H172848   2.017   5.104   2.379 -2.0481 -0.9919 -0.6928
17119TIP3    H272849   2.037   4.992   2.278 -1.2000 -0.7979 -0.7447
17120TIP3   OH272850   5.844   4.386   1.698  0.4917  0.0028 -0.1958
17120TIP3    H172851   5.754   4.394   1.731  0.3537  0.9400 -0.7607
17120TIP3    H272852   5.865   4.473   1.666  1.1807 -0.4958 -1.1385
17121TIP3   OH272853   0.493   4.932   5.649  0.1879  0.4144  0.3449
17121TIP3    H172854   0.504   4.857   5.590 -0.7736  1.6577 -1.4962
17121TIP3    H272855   0.553   4.914   5.721 -1.1209 -2.9041  0.7856
17122TIP3   OH272856   0.311   0.039   3.132 -0.3127  0.1828  0.0270
17122TIP3    H172857   0.378   0.084   3.185 -2.8450  1.7033  2.2068
17122TIP3    H272858   0.354  -0.041   3.103  2.7708  1.5515  0.3913
17123TIP3   OH272859   3.779   1.727   4.151 -0.3021  0.1657 -0.2897
17123TIP3    H172860   3.844   1.659   4.139  0.4502  0.8455 -0.1484
17123TIP3    H272861   3.698   1.690   4.116  0.1026 -0.7738 -0.2468
17124TIP3   OH272862   0.380   0.038  11.698 -0.8680  0.2329  0.1903
17124TIP3    H172863   0.354  -0.025  11.631  0.3137 -0.2119  0.1379
17124TIP3    H272864   0.335   0.119  11.673 -0.1573  0.1757 -1.3604
17125TIP3   OH272865   0.985   1.406   5.302 -0.4329  0.2560 -0.2904
17125TIP3    H172866   0.947   1.412   5.390  0.6094  0.2771  0.1627
17125TIP3    H272867   0.953   1.485   5.258  0.5459  1.2310  0.6753
17126TIP3   OH272868   4.308   4.153  14.612 -0.2461 -0.9471 -0.0543
17126TIP3    H172869   4.297   4.192  14.699 -1.0172 -1.3478  0.0422
17126TIP3    H272870   4.394   4.183  14.583 -1.2531  1.8069 -0.4942
17127TIP3   OH272871   3.636   6.227  11.094 -0.3827 -0.3243 -0.3906
17127TIP3    H172872   3.717   6.180  11.115 -0.6054  0.2499  2.0780
17127TIP3    H272873   3.637   6.236  10.998  2.5611 -0.1662 -0.4289
17128TIP3   OH272874   3.369   1.287  16.296 -0.1180 -0.0148  0.7541
17128TIP3    H172875   3.327   1.272  16.381  0.9797 -0.0394  1.3260
17128TIP3    H272876   3.419   1.208  16.279 -2.3757 -1.1371 -1.2491
17129TIP3   OH272877   2.615   5.533   3.585  0.1972  0.3816 -0.2558
17129TIP3    H172878   2.687   5.481   3.550 -0.5607  1.1370 -3.1948
17129TIP3    H272879   2.537   5.482   3.567 -0.1987  0.3918  1.2717
17130TIP3   OH272880   6.141   4.389   3.790  0.8460 -0.3962  0.4236
17130TIP3    H172881   6.062   4.346   3.820  0.2103  0.6869  0.3594
17130TIP3    H272882   6.202   4.318   3.771  0.0105 -1.2267  0.8007
17131TIP3   OH272883   5.595   1.931   5.887  0.6650 -0.0073  0.4929
17131TIP3    H172884   5.639   1.867   5.943  1.8748  1.6732  1.5657
17131TIP3    H272885   5.508   1.894   5.872  1.0145 -1.4630  1.8162
17132TIP3   OH272886   2.482   3.025  16.918 -0.6941 -0.1275  0.5798
17132TIP3    H172887   2.563   3.009  16.966 -0.4175 -0.4259  0.0355
17132TIP3    H272888   2.426   3.074  16.978  0.2830  0.9959  0.6048
17133TIP3   OH272889   2.417   4.440   2.657 -0.1801 -0.1855  0.3886
17133TIP3    H172890   2.440   4.355   2.694 -0.6011 -0.9995 -1.1286
17133TIP3    H272891   2.364   4.482   2.725 -2.5365 -2.3913  0.0736
17134TIP3   OH272892   4.504   3.171  12.360 -0.0622 -0.3917  0.2687
17134TIP3    H172893   4.494   3.214  12.275 -0.1045 -0.9969 -0.0433
17134TIP3    H272894   4.456   3.088  12.350 -1.8235  0.4058  1.5456
17135TIP3   OH272895   2.967   0.021  10.647 -0.7933 -0.3459 -0.2119
17135TIP3    H172896   2.939   0.077  10.574 -1.9217 -0.4691  0.1111
17135TIP3    H272897   2.898  -0.046  10.653 -0.6630 -0.3891  0.9136
17136TIP3   OH272898   2.856   2.101  13.277  0.0493  0.2864 -0.3932
17136TIP3    H172899   2.942   2.069  13.302 -0.3155  0.1503  0.7417
17136TIP3    H272900   2.855   2.193  13.306 -0.6682 -0.1009  0.8955
17137TIP3   OH272901   6.183   2.496  14.058 -0.2593  0.1586 -0.2214
17137TIP3    H172902   6.167   2.404  14.035 -1.1669  0.2230  0.1160
17137TIP3    H272903   6.128   2.511  14.136 -0.1446  0.9942 -0.2964
17138TIP3   OH272904   1.188   2.616  14.328  0.2232 -0.2394 -0.9494
17138TIP3    H172905   1.183   2.554  14.401  1.1545  0.3705 -0.3415
17138TIP3    H272906   1.098   2.622  14.296 -0.1418 -0.8082 -0.0847
17139TIP3   OH272907   4.250   4.568   3.846 -0.6672  0.0304  0.0207
17139TIP3    H172908   4.185   4.553   3.777  0.1446 -0.4139 -0.6713
17139TIP3    H272909   4.301   4.643   3.815  0.4291 -0.8689 -0.4506
17140TIP3   OH272910   6.584   1.281  11.520  0.7122  0.2044  0.3370
17140TIP3    H172911   6.561   1.364  11.563  0.4938 -0.2356  1.0745
17140TIP3    H272912   6.669   1.258  11.556 -0.4815 -1.3421  2.3204
17141TIP3   OH272913   2.707   5.751  14.810 -0.7622  0.2041  0.9289
17141TIP3    H172914   2.767   5.680  14.834 -2.2992 -1.6690 -0.3538
17141TIP3    H272915   2.620   5.716  14.831 -1.5761  1.7290  0.2292
17142TIP3   OH272916   2.040   3.264   0.375 -0.3789 -0.0073  0.5339
17142TIP3    H172917   2.031   3.283   0.282  0.2724  1.1683  0.6923
17142TIP3    H272918   2.108   3.323   0.405 -1.3972  0.4872  1.9996
17143TIP3   OH272919   2.209   3.643   4.303 -0.1764  0.2705 -0.0335
17143TIP3    H172920   2.270   3.586   4.350  0.2205  1.4270  0.9444
17143TIP3    H272921   2.185   3.595   4.225  2.5842  0.0406 -0.8479
17144TIP3   OH272922   4.360   6.812  15.672 -0.3312  0.1524  0.1615
17144TIP3    H172923   4.419   6.870  15.720  0.7967 -0.7097 -0.1432
17144TIP3    H272924   4.342   6.859  15.591  0.6008  0.0905 -0.0994
17145TIP3   OH272925   6.558   6.257  10.980 -0.3475  0.2561 -0.1618
17145TIP3    H172926   6.604   6.328  11.024 -0.7191  1.2076 -1.2597
17145TIP3    H272927   6.592   6.258  10.891 -0.8825 -0.4767 -0.3800
17146TIP3   OH272928   4.678   1.880  16.307  0.1049  0.2906 -0.0168
17146TIP3    H172929   4.603   1.820  16.307  1.3872 -1.3811 -0.1598
17146TIP3    H272930   4.754   1.823  16.316  1.5853  1.6464 -2.6951
17147TIP3   OH272931   0.703   4.062   2.044 -0.1838  0.3538  0.2442
17147TIP3    H172932   0.656   4.047   1.962 -0.5933 -0.5154  0.6139
17147TIP3    H272933   0.634   4.059   2.111  0.0578  1.7079  0.5636
17148TIP3   OH272934   5.168   5.479  16.982 -0.3744  0.0220  0.4423
17148TIP3    H172935   5.121   5.556  16.950  1.4501  1.0188  0.0235
17148TIP3    H272936   5.213   5.510  17.060  2.2676  0.1238 -1.0209
17149TIP3   OH272937   4.937   1.032  16.445 -0.1933  0.4271 -0.1033
17149TIP3    H172938   4.936   1.122  16.478 -0.2158  0.4766 -0.2369
17149TIP3    H272939   4.845   1.007  16.439 -0.2604  0.9122 -1.4381
17150TIP3   OH272940   3.844   3.826   3.884 -0.0386 -0.1437  0.4792
17150TIP3    H172941   3.852   3.778   3.966  0.1143 -0.1172  0.4797
17150TIP3    H272942   3.804   3.764   3.824  0.7770 -0.4942  0.2865
17151TIP3   OH272943   1.663   6.297   3.308 -0.0277  0.6035 -0.0999
17151TIP3    H172944   1.568   6.298   3.322 -0.3715  0.4673 -2.1205
17151TIP3    H272945   1.692   6.385   3.331 -0.5480  0.5081  0.9840
17152TIP3   OH272946   4.104   2.421   6.040  0.1942 -0.2322  0.3919
17152TIP3    H172947   4.082   2.512   6.059 -0.6375 -0.1781 -0.7598
17152TIP3    H272948   4.154   2.425   5.959  0.7008 -0.7539  0.6695
17153TIP3   OH272949   5.807   4.636   9.342  0.2016 -0.4198  0.1376
17153TIP3    H172950   5.763   4.565   9.388  1.0467 -1.5378 -0.7137
17153TIP3    H272951   5.894   4.601   9.322 -0.0083  0.1408 -1.9460
17154TIP3   OH272952   4.407   6.172  12.590 -0.5592 -0.1374  0.2442
17154TIP3    H172953   4.396   6.149  12.682 -1.5006 -1.8447 -0.2388
17154TIP3    H272954   4.414   6.088  12.545 -1.7785  0.5920 -1.4169
17155TIP3   OH272955   3.746   1.483   5.772  0.1059  0.3004 -0.1529
17155TIP3    H172956   3.691   1.533   5.832  0.4422 -0.2943  0.6626
17155TIP3    H272957   3.813   1.444   5.827  0.1609 -0.6247 -0.8490
17156TIP3   OH272958   0.669   4.177  13.818 -0.2097  0.2916  0.4168
17156TIP3    H172959   0.652   4.116  13.746  1.5871  0.5077 -0.2467
17156TIP3    H272960   0.615   4.253  13.798 -0.1695  0.1192 -0.4030
17157TIP3   OH272961   3.090   6.604   6.105 -0.6867  0.0337  0.3415
17157TIP3    H172962   3.051   6.688   6.081 -1.2490 -0.2740  0.1641
17157TIP3    H272963   3.155   6.626   6.172 -0.5568  0.6520  0.0251
17158TIP3   OH272964   3.963   4.312  12.818 -0.4250 -0.0066 -0.9747
17158TIP3    H172965   3.989   4.386  12.872  1.2128 -2.3503  1.7534
17158TIP3    H272966   3.881   4.282  12.857  0.3087 -1.1862 -0.2873
17159TIP3   OH272967   6.814   5.164  10.861 -0.1742  0.3672 -0.0822
17159TIP3    H172968   6.856   5.229  10.917  2.2888  0.3357 -1.7632
17159TIP3    H272969   6.886   5.122  10.814 -2.0314 -0.3123 -2.5120
17160TIP3   OH272970   5.668   4.719  15.297  0.6453 -0.2386  1.0160
17160TIP3    H172971   5.706   4.799  15.260  0.5879 -0.8934 -0.5351
17160TIP3    H272972   5.692   4.722  15.390  1.2879  1.1977  0.8339
17161TIP3   OH272973   3.201   1.682  13.704  0.1219  0.4266 -0.8933
17161TIP3    H172974   3.217   1.588  13.697  1.2163  0.6452 -1.5659
17161TIP3    H272975   3.276   1.722  13.660  0.3727  1.6509  0.5884
17162TIP3   OH272976   1.746   5.937  12.317  0.4194  0.0479  0.5217
17162TIP3    H172977   1.841   5.945  12.304  0.1972  0.4814 -1.1176
17162TIP3    H272978   1.709   5.955  12.231 -1.1387 -0.6396  1.0129
17163TIP3   OH272979   6.698   1.015  10.680  0.2605  0.0858  0.5930
17163TIP3    H172980   6.722   0.994  10.590 -0.2864 -0.1874  0.5029
17163TIP3    H272981   6.628   0.953  10.701  0.3890  0.1376  1.2102
17164TIP3   OH272982   2.179   2.230  15.408  0.5726  0.0646 -0.3957
17164TIP3    H172983   2.126   2.277  15.473  1.0624  1.4785 -0.9874
17164TIP3    H272984   2.132   2.242  15.326  1.2635  0.4281 -0.7403
17165TIP3   OH272985   5.305   0.588  10.866 -0.2656 -0.3007 -0.1174
17165TIP3    H172986   5.398   0.582  10.888 -0.3374  0.5798  0.4580
17165TIP3    H272987   5.286   0.681  10.866 -1.1745 -0.4779 -0.1242
17166TIP3   OH272988   0.573   1.016  14.152 -0.3573 -0.0801 -0.1561
17166TIP3    H172989   0.532   0.998  14.237 -1.0584  0.1973 -0.4379
17166TIP3    H272990   0.555   1.108  14.135  0.9675  0.2421  0.0323
17167TIP3   OH272991   1.347   3.522   2.057  0.1238  0.0525 -0.3841
17167TIP3    H172992   1.321   3.612   2.078  0.5941  0.1658 -0.2786
17167TIP3    H272993   1.346   3.476   2.142 -0.0617 -0.0292 -0.4298
17168TIP3   OH272994   1.241   5.377  16.520  0.0091 -0.0687 -0.1327
17168TIP3    H172995   1.201   5.291  16.506  1.4400 -0.6252 -0.9087
17168TIP3    H272996   1.316   5.380  16.461 -0.1620  1.8365 -0.3323
17169TIP3   OH272997   3.074   3.761  12.139  0.1750  0.8925 -0.2695
17169TIP3    H172998   2.986   3.730  12.164  1.3359 -1.7770  0.8809
17169TIP3    H272999   3.128   3.744  12.216  1.5088  3.8393 -0.4143
17170TIP3   OH273000   6.009   5.362   2.906 -0.8412  0.0217 -0.3867
17170TIP3    H173001   6.023   5.384   2.814 -0.9891 -1.1036 -0.7026
17170TIP3    H273002   5.920   5.326   2.909 -1.3162  1.1894  0.4391
17171TIP3   OH273003   5.730   2.462   4.808  0.2762  0.4128  0.2050
17171TIP3    H173004   5.691   2.376   4.796  0.9441  0.0064  0.8413
17171TIP3    H273005   5.758   2.463   4.900 -0.7987  1.7602  0.5519
17172TIP3   OH273006   1.040   5.934  16.526 -0.2240  0.0154 -0.0363
17172TIP3    H173007   1.098   6.004  16.497 -0.1922 -0.4777 -1.1977
17172TIP3    H273008   1.084   5.897  16.603  1.4348 -0.8895 -1.3784
17173TIP3   OH273009   1.432   5.059   2.868 -0.3426 -0.1155 -0.8265
17173TIP3    H173010   1.337   5.047   2.865 -1.0808  3.1547  2.1153
17173TIP3    H273011   1.462   4.997   2.935 -0.3357 -1.1563 -1.7640
17174TIP3   OH273012   2.885   1.634  16.632  0.0306  0.3039  0.0529
17174TIP3    H173013   2.829   1.584  16.573  1.3244 -0.9822 -0.1442
17174TIP3    H273014   2.900   1.576  16.707  0.0693  1.1173  0.6877
17175TIP3   OH273015   4.769   2.627  11.405  0.1306 -0.3792 -0.3734
17175TIP3    H173016   4.805   2.698  11.457 -1.2317 -0.5874  0.9038
17175TIP3    H273017   4.812   2.636  11.320  1.2277  0.9296  0.2800
17176TIP3   OH273018   2.449   0.334   4.955  0.3829 -0.0468 -0.9284
17176TIP3    H173019   2.365   0.336   5.001  0.4575  0.4220 -0.8011
17176TIP3    H273020   2.495   0.412   4.987  1.4510 -1.0610  0.0749
17177TIP3   OH273021   6.170   2.012  12.776  0.1061  0.2267  0.3290
17177TIP3    H173022   6.116   2.091  12.772 -0.9015 -0.4481  0.2421
17177TIP3    H273023   6.171   1.988  12.869 -1.2630 -0.7599  0.1170
17178TIP3   OH273024   1.301   3.489  11.832 -0.3121  0.9541  0.6853
17178TIP3    H173025   1.349   3.492  11.915 -0.0685 -2.4400  0.8090
17178TIP3    H273026   1.215   3.455  11.856 -0.6026  0.9652 -0.2987
17179TIP3   OH273027   4.876   1.544  16.589 -0.1666 -0.3601 -0.3656
17179TIP3    H173028   4.824   1.625  16.591  2.3139  1.3343  0.4466
17179TIP3    H273029   4.825   1.482  16.642 -0.1545  2.0811  2.8337
17180TIP3   OH273030   3.579   4.611   5.697  0.4880  0.9649  0.6225
17180TIP3    H173031   3.670   4.589   5.715  0.0958 -1.2116  0.2399
17180TIP3    H273032   3.563   4.575   5.610 -0.6041  1.7885  0.4611
17181TIP3   OH273033   1.644   2.305   3.099  0.2243  0.0720  0.0004
17181TIP3    H173034   1.554   2.327   3.074 -0.1704 -3.1219 -2.0035
17181TIP3    H273035   1.696   2.380   3.071 -1.5742  1.0651 -0.8337
17182TIP3   OH273036   1.440   5.586   3.409  0.2356 -0.2466  0.7971
17182TIP3    H173037   1.457   5.680   3.423  0.2255 -0.1149 -0.0710
17182TIP3    H273038   1.471   5.545   3.490  0.3573  0.4902  1.1392
17183TIP3   OH273039   2.954   5.636  14.581  0.1745 -0.4405 -0.6298
17183TIP3    H173040   2.872   5.613  14.537 -0.0081  0.6295 -0.8791
17183TIP3    H273041   2.931   5.637  14.674 -0.7044  1.9996 -0.8034
17184TIP3   OH273042   5.379   3.475  13.817  0.1731 -0.1334 -0.5929
17184TIP3    H173043   5.290   3.458  13.848  0.7238 -0.6741  0.7744
17184TIP3    H273044   5.390   3.570  13.826 -0.6133  0.1032 -1.8279
17185TIP3   OH273045   2.430   1.122  16.909  0.1380 -0.2965 -0.8132
17185TIP3    H173046   2.370   1.050  16.886 -0.2218 -0.5501  0.8280
17185TIP3    H273047   2.512   1.078  16.930  0.3512 -0.0961 -1.2131
17186TIP3   OH273048   3.068   4.968   2.349 -0.0992  0.3438  0.7073
17186TIP3    H173049   3.101   4.885   2.383  1.2005  1.1146  1.4630
17186TIP3    H273050   2.979   4.949   2.319  0.0806 -1.2455  1.0889
17187TIP3   OH273051   1.039   6.277  16.767  0.5664  0.1042 -0.5163
17187TIP3    H173052   1.020   6.365  16.797 -0.0854 -0.2618  0.1639
17187TIP3    H273053   1.135   6.274  16.761  0.5694  0.9953 -1.0089
17188TIP3   OH273054   2.669   4.977  16.368  0.5645 -0.1258 -0.4406
17188TIP3    H173055   2.620   4.895  16.356  0.4453  0.1245 -1.8408
17188TIP3    H273056   2.630   5.017  16.446  0.8395 -1.5409  0.4592
17189TIP3   OH273057   1.833   4.738   6.171 -0.2676 -0.1777  0.0009
17189TIP3    H173058   1.761   4.760   6.230  0.5029  1.2911  0.4532
17189TIP3    H273059   1.847   4.817   6.119  1.0096 -0.4109 -0.0588
17190TIP3   OH273060   2.587   0.933  14.572 -0.0874  0.2981 -0.2630
17190TIP3    H173061   2.503   0.956  14.532  0.0047  2.3384  0.5994
17190TIP3    H273062   2.652   0.948  14.503 -0.4646 -2.4390 -1.3231
17191TIP3   OH273063   4.410   2.002   0.780 -1.0104 -0.0113 -0.4113
17191TIP3    H173064   4.496   1.972   0.807 -1.3369 -0.8813 -0.3119
17191TIP3    H273065   4.359   1.922   0.766 -2.0087  0.4808  0.2366
17192TIP3   OH273066   3.695   4.249   2.385 -0.0701 -0.1002 -0.3240
17192TIP3    H173067   3.635   4.176   2.370 -0.0687 -0.4887  1.3601
17192TIP3    H273068   3.644   4.310   2.439  0.8170 -0.1142  0.5386
17193TIP3   OH273069   5.613   1.231  13.833 -0.0381  0.4362 -0.0830
17193TIP3    H173070   5.546   1.165  13.849  0.6139 -1.1432 -3.1069
17193TIP3    H273071   5.693   1.180  13.818  1.0236  2.0547 -0.1190
17194TIP3   OH273072   5.428   3.645   1.032 -0.1548 -0.5275 -0.3862
17194TIP3    H173073   5.490   3.591   0.983 -0.3531 -0.0248 -1.2120
17194TIP3    H273074   5.387   3.584   1.093  1.0786 -0.8871  0.1108
17195TIP3   OH273075   3.788   5.553  16.623 -0.4355 -0.4277 -0.4284
17195TIP3    H173076   3.809   5.630  16.676 -1.2947 -1.3075  1.2931
17195TIP3    H273077   3.692   5.546  16.628 -0.4589 -1.0470 -1.4058
17196TIP3   OH273078   5.795   1.329  12.590 -0.0228 -0.5641  0.7740
17196TIP3    H173079   5.834   1.242  12.598  0.2621 -0.6086 -0.8462
17196TIP3    H273080   5.714   1.315  12.541  0.3907  0.1621 -0.1516
17197TIP3   OH273081   6.793   0.768   4.705  0.2816  0.1828 -0.4593
17197TIP3    H173082   6.843   0.804   4.779  0.9829  0.0837 -0.8722
17197TIP3    H273083   6.702   0.785   4.727  0.5955  3.3512 -1.1876
17198TIP3   OH273084   1.385   4.054   2.725  0.1881 -0.1336  0.2667
17198TIP3    H173085   1.329   4.095   2.659  0.8635 -2.2938 -1.7639
17198TIP3    H273086   1.458   4.115   2.736  0.7459 -0.2952 -2.0426
17199TIP3   OH273087   0.989   2.373   3.960 -0.1641  0.0118  0.1538
17199TIP3    H173088   1.066   2.319   3.974 -0.0435  0.0906 -0.1797
17199TIP3    H273089   1.023   2.453   3.918 -0.5139 -0.2914 -0.7433
17200TIP3   OH273090   5.995   2.731   4.019  0.4483 -0.0958  0.0578
17200TIP3    H173091   6.017   2.687   4.101  0.0321 -1.6755 -0.6232
17200TIP3    H273092   6.078   2.762   3.984  0.4115  2.5017  2.0533
17201TIP3   OH273093   0.259   1.784  13.931  0.1425  0.2473 -0.2303
17201TIP3    H173094   0.260   1.745  13.844 -1.8565 -0.3208 -0.0479
17201TIP3    H273095   0.349   1.815  13.945  1.4718 -2.9228 -0.9774
17202TIP3   OH273096   1.857   3.319   2.721  0.1043  0.4666  0.5754
17202TIP3    H173097   1.846   3.331   2.627  2.0876  0.6272  0.3088
17202TIP3    H273098   1.839   3.405   2.759  0.0945  0.6113  0.2441
17203TIP3   OH273099   2.194   6.575   3.719  0.2099  0.6675 -0.3424
17203TIP3    H173100   2.256   6.503   3.730  0.0905  0.6487  0.2434
17203TIP3    H273101   2.224   6.642   3.780  0.3775  1.1591 -0.9562
17204TIP3   OH273102   6.262   6.857  14.476 -0.4702  0.1688 -0.6068
17204TIP3    H173103   6.225   6.870  14.388  0.4266  1.0669 -0.8725
17204TIP3    H273104   6.188   6.825  14.528 -1.0564 -0.2470 -1.6490
17205TIP3   OH273105   1.749   1.119  13.873  0.0533  0.2008  0.6280
17205TIP3    H173106   1.655   1.136  13.874  0.0029 -0.0760  0.6988
17205TIP3    H273107   1.764   1.060  13.947  0.1875 -0.2518  0.2444
17206TIP3   OH273108   6.240   2.265   4.235 -0.0855  0.1226  0.1682
17206TIP3    H173109   6.149   2.253   4.207  0.0149 -2.0782  0.5934
17206TIP3    H273110   6.245   2.219   4.319  1.3132  0.6726  0.4077
17207TIP3   OH273111   1.048   1.537  14.921  0.0706 -0.4537  0.4623
17207TIP3    H173112   1.066   1.463  14.865  0.0949 -1.4929  1.7942
17207TIP3    H273113   0.994   1.502  14.992  0.6546  0.6288  1.4941
17208TIP3   OH273114   3.067   0.369   5.594 -0.0820 -0.5108 -0.1211
17208TIP3    H173115   3.004   0.304   5.624  2.1780 -1.7013  2.4806
17208TIP3    H273116   3.132   0.318   5.544 -0.4921  0.4981 -1.7558
17209TIP3   OH273117   1.770   0.867   4.552  0.7034 -0.3833  0.5903
17209TIP3    H173118   1.685   0.902   4.579 -1.0479 -1.7866 -2.5425
17209TIP3    H273119   1.834   0.927   4.590 -1.8278  2.5992  0.5571
17210TIP3   OH273120   1.658   4.522   5.493  0.3429 -0.4161 -0.5797
17210TIP3    H173121   1.639   4.439   5.449 -1.0718  0.3266 -1.4160
17210TIP3    H273122   1.696   4.578   5.425 -0.7119  0.3269 -0.5793
17211TIP3   OH273123   2.294   0.902   3.231 -0.5920 -0.0255  0.3993
17211TIP3    H173124   2.268   0.994   3.241 -1.1697 -0.3915  3.1208
17211TIP3    H273125   2.329   0.878   3.316  0.3335 -2.1421 -0.5099
17212TIP3   OH273126   2.692   5.200  13.501 -0.3076  0.0490 -0.8649
17212TIP3    H173127   2.642   5.163  13.573  1.0107 -0.4981 -0.2020
17212TIP3    H273128   2.687   5.295  13.514  1.9614 -0.0349  1.4850
17213TIP3   OH273129   1.527   4.831   5.449  0.1185 -0.2458  0.1965
17213TIP3    H173130   1.489   4.761   5.396 -1.4974  0.4358  0.4012
17213TIP3    H273131   1.506   4.807   5.539  1.3307 -0.4999  0.4344
17214TIP3   OH273132   4.119   3.775  16.322 -0.5957  0.7128 -0.2037
17214TIP3    H173133   4.045   3.737  16.369  0.2607  0.1930  0.7898
17214TIP3    H273134   4.186   3.787  16.390  1.0587 -0.9882 -1.4371
17215TIP3   OH273135   3.686   2.928  15.783 -0.5119 -0.3187 -0.0811
17215TIP3    H173136   3.653   3.006  15.737  1.6911  1.4241  1.0690
17215TIP3    H273137   3.629   2.918  15.859 -0.4957  0.5349  0.0522
17216TIP3   OH273138   5.134   0.222  11.024  0.3265 -0.7347  0.2421
17216TIP3    H173139   5.221   0.182  11.014  1.0288  0.5342  1.0942
17216TIP3    H273140   5.091   0.170  11.092  0.4909 -1.2223 -0.0199
17217TIP3   OH273141   2.314   2.118  16.010  0.4623  0.3006 -0.3800
17217TIP3    H173142   2.325   2.024  15.992  1.5412  0.3349  0.0022
17217TIP3    H273143   2.290   2.156  15.926  2.2961  0.0087 -1.0707
17218TIP3   OH273144   4.650   4.291  13.157  0.1087  0.0372  0.2753
17218TIP3    H173145   4.719   4.266  13.219 -0.5542 -0.8772  0.6537
17218TIP3    H273146   4.681   4.374  13.120  1.7784 -0.7397 -0.1418
17219TIP3   OH273147   1.598   1.248   5.632 -0.9843 -0.2921  0.0097
17219TIP3    H173148   1.506   1.242   5.607 -1.5244  0.0647  1.7442
17219TIP3    H273149   1.623   1.337   5.608 -0.9373 -0.5263 -0.8623
17220TIP3   OH273150   5.061   6.430   5.966  0.0004 -0.2563 -0.0529
17220TIP3    H173151   5.153   6.454   5.953 -0.5550  1.5477 -1.0516
17220TIP3    H273152   5.031   6.488   6.037 -0.7309  0.2357 -0.7496
17221TIP3   OH273153   6.618   5.196   0.851 -0.4831  0.1254 -0.5269
17221TIP3    H173154   6.554   5.238   0.794 -0.1420 -1.0470 -1.8280
17221TIP3    H273155   6.566   5.139   0.907 -0.6983  0.2851 -0.5617
17222TIP3   OH273156   0.861   0.139  16.351  0.4259 -0.0351  0.1565
17222TIP3    H173157   0.889   0.057  16.311  0.9976  0.8566 -1.3816
17222TIP3    H273158   0.780   0.161  16.306 -0.1730 -0.1566  1.1515
17223TIP3   OH273159   6.266   3.577   0.419 -0.3857 -0.4344 -0.0286
17223TIP3    H173160   6.240   3.606   0.507 -3.2055 -1.3274 -0.4571
17223TIP3    H273161   6.248   3.483   0.419  3.1522 -1.2641 -0.4724
17224TIP3   OH273162   5.659   1.402   3.269  0.1452  0.3069  0.0468
17224TIP3    H173163   5.659   1.467   3.339  0.3908  1.6455 -1.1535
17224TIP3    H273164   5.749   1.401   3.237 -0.1265  0.2721 -0.7357
17225TIP3   OH273165   5.053   0.172  11.321 -0.0301  0.4696 -0.6202
17225TIP3    H173166   5.088   0.093  11.362 -0.8285 -0.0439 -0.9106
17225TIP3    H273167   5.104   0.244  11.359  0.1637 -0.1126  0.2397
17226TIP3   OH273168   6.353   2.006  14.576 -0.2565 -0.0573  0.2204
17226TIP3    H173169   6.305   1.974  14.653  0.0201 -0.7245  0.1195
17226TIP3    H273170   6.336   2.100  14.575 -1.1840 -0.2061  0.4621
17227TIP3   OH273171   3.025   1.697  14.880  0.2362 -0.5526  0.0786
17227TIP3    H173172   2.975   1.616  14.883  1.3216 -1.3473 -1.6396
17227TIP3    H273173   3.113   1.670  14.851  0.6606  1.2094 -0.4202
17228TIP3   OH273174   6.110   1.390   5.929  0.1685  0.1126 -0.2081
17228TIP3    H173175   6.144   1.305   5.901 -0.8851 -1.6747  3.3489
17228TIP3    H273176   6.185   1.435   5.968  0.4457  0.3391 -0.9739
17229TIP3   OH273177   6.102   6.252  12.046  0.3160 -0.6871 -0.3911
17229TIP3    H173178   6.103   6.258  11.951  0.9544  0.0274 -0.3458
17229TIP3    H273179   6.179   6.199  12.068  0.2515 -0.7309 -0.2681
17230TIP3   OH273180   5.420   5.189   5.676 -0.0149 -0.3004  0.0094
17230TIP3    H173181   5.488   5.175   5.742 -0.4682 -2.1509  0.1519
17230TIP3    H273182   5.370   5.107   5.676 -1.0457  0.2880 -1.4672
17231TIP3   OH273183   4.170   3.019  15.927  0.6243 -0.0410  0.1850
17231TIP3    H173184   4.146   2.926  15.924  1.3313 -0.2205 -0.1792
17231TIP3    H273185   4.142   3.049  16.013  2.3752 -1.1709  1.2134
17232TIP3   OH273186   0.886   0.450   3.048  0.0788 -0.1052 -0.0528
17232TIP3    H173187   0.968   0.442   3.000  0.8035 -0.3727  1.2031
17232TIP3    H273188   0.871   0.364   3.086 -1.2837 -0.3240 -1.0271
17233TIP3   OH273189   6.706   5.526   1.225  0.1809  0.4350  0.1860
17233TIP3    H173190   6.799   5.504   1.215 -0.1491 -1.6321  1.3400
17233TIP3    H273191   6.665   5.446   1.257 -2.1270  1.1480 -0.8025
17234TIP3   OH273192   5.878   5.571   0.658 -0.2816 -0.2217 -0.6906
17234TIP3    H173193   5.942   5.529   0.601 -0.4756 -1.4402 -0.0404
17234TIP3    H273194   5.930   5.610   0.728 -0.0882  0.8410 -1.3824
17235TIP3   OH273195   1.878   4.612  11.437  0.7174  0.1969 -0.0965
17235TIP3    H173196   1.789   4.639  11.413  0.8371  0.1257 -0.6373
17235TIP3    H273197   1.871   4.585  11.528  0.3993  1.1555  0.1742
17236TIP3   OH273198   1.995   2.862   4.084 -0.9709 -0.0583  0.6401
17236TIP3    H173199   2.053   2.938   4.072  0.7047 -1.2231  1.0617
17236TIP3    H273200   2.014   2.805   4.010 -0.4915 -1.1148  1.5584
17237TIP3   OH273201   3.367   2.059   5.088  0.5301 -0.1034 -0.4128
17237TIP3    H173202   3.296   2.065   5.152  0.5002 -1.0107 -0.3554
17237TIP3    H273203   3.446   2.048   5.140  0.4835 -1.0479 -0.5207
17238TIP3   OH273204   6.325   4.586  13.729 -0.3171  0.2488 -0.1979
17238TIP3    H173205   6.279   4.657  13.685 -0.4120  0.7891  0.7295
17238TIP3    H273206   6.266   4.561  13.801 -1.1093 -1.9878 -1.5274
17239TIP3   OH273207   1.326   1.151  16.942  0.0505  0.0039 -0.2928
17239TIP3    H173208   1.272   1.202  16.881  0.5058  0.0267 -0.6879
17239TIP3    H273209   1.393   1.212  16.972  0.9461 -0.4965 -1.2108
17240TIP3   OH273210   5.545   0.387  15.685 -0.4043  0.4098  0.5103
17240TIP3    H173211   5.531   0.329  15.760 -0.7958 -0.4411 -0.2082
17240TIP3    H273212   5.467   0.442  15.682 -0.3011  0.5787  0.8357
17241TIP3   OH273213   0.333   6.512   3.932  0.8296  0.0797  0.4336
17241TIP3    H173214   0.378   6.593   3.908  2.0547 -1.1134 -1.6131
17241TIP3    H273215   0.320   6.467   3.849 -0.0299 -1.7366  1.4991
17242TIP3   OH273216   6.431   0.523  16.185 -0.1756  0.1842  0.0138
17242TIP3    H173217   6.341   0.520  16.152 -0.6944 -0.7837  1.4515
17242TIP3    H273218   6.477   0.457  16.133 -0.7403 -0.6236  0.5346
17243TIP3   OH273219   1.128   2.912   2.521  0.1181  0.5259  0.4846
17243TIP3    H173220   1.201   2.957   2.565  1.1799 -0.8110  0.1547
17243TIP3    H273221   1.055   2.919   2.583  1.2553 -0.3143  1.9865
17244TIP3   OH273222   3.506   5.793   4.785  0.1834  0.4774 -0.3733
17244TIP3    H173223   3.412   5.790   4.803  0.4190 -0.5052  0.8719
17244TIP3    H273224   3.532   5.701   4.777  1.4521  0.5656  1.8714
17245TIP3   OH273225   1.259   2.212   5.115 -0.2993 -0.3031 -0.7353
17245TIP3    H173226   1.189   2.277   5.123  0.1204  0.1721 -0.9174
17245TIP3    H273227   1.235   2.160   5.039 -0.3033  0.0406 -0.9675
17246TIP3   OH273228   1.532   1.425   2.188 -0.1961 -0.1982  0.3365
17246TIP3    H173229   1.526   1.399   2.096 -0.0100 -1.9909  0.7838
17246TIP3    H273230   1.450   1.393   2.227  0.0740 -0.1619  0.9405
17247TIP3   OH273231   5.434   5.993  17.040  0.0273  0.3913  0.4333
17247TIP3    H173232   5.344   5.974  17.014  0.2132 -2.4893  1.5639
17247TIP3    H273233   5.427   6.016  17.133  0.1840  3.3580 -0.1996
17248TIP3   OH273234   3.053   4.484   5.255  0.1929  0.6613 -1.0146
17248TIP3    H173235   3.080   4.547   5.188 -0.0561  0.9972 -0.8079
17248TIP3    H273236   3.115   4.498   5.327  0.2988  0.4861 -1.0722
17249TIP3   OH273237   2.289   3.719   0.363  0.5238  0.4177  0.4360
17249TIP3    H173238   2.199   3.747   0.346  0.3339 -0.2761  0.2436
17249TIP3    H273239   2.291   3.698   0.456  0.4462  0.3071  0.4132
17250TIP3   OH273240   4.193   4.500   2.854  0.1030 -0.5084  0.3803
17250TIP3    H173241   4.153   4.456   2.929  0.3043 -0.8851  0.2722
17250TIP3    H273242   4.272   4.542   2.890  0.2547 -0.7742  0.3624
17251TIP3   OH273243   3.202   2.461   3.834 -0.1625 -0.4647 -1.3859
17251TIP3    H173244   3.183   2.371   3.808 -0.5218 -0.1861 -2.0997
17251TIP3    H273245   3.272   2.489   3.776  0.1630 -0.3742 -0.9607
17252TIP3   OH273246   5.207   0.251  13.842 -0.0361 -0.2434  0.2219
17252TIP3    H173247   5.299   0.225  13.837 -0.0136  0.0137 -0.8360
17252TIP3    H273248   5.179   0.260  13.751 -0.6574  1.3069  0.5375
17253TIP3   OH273249   3.025   2.902   1.056 -0.5000 -0.7005 -0.3459
17253TIP3    H173250   2.989   2.874   0.972 -0.1552 -2.2178 -0.0165
17253TIP3    H273251   3.076   2.827   1.087  1.5213  0.7217  0.0203
17254TIP3   OH273252   4.852   3.133  16.184 -0.1827  0.5190 -0.2030
17254TIP3    H173253   4.860   3.107  16.276  1.6575 -1.0382 -0.7187
17254TIP3    H273254   4.826   3.053  16.139  0.7740  0.7632 -1.2510
17255TIP3   OH273255   2.585   0.766  11.264 -0.7280  0.8659 -0.0002
17255TIP3    H173256   2.512   0.713  11.232  1.8671 -2.8379 -0.5299
17255TIP3    H273257   2.618   0.810  11.185  0.2196 -1.0383 -0.7199
17256TIP3   OH273258   4.417   1.243  14.282 -0.3417 -0.0510  0.2163
17256TIP3    H173259   4.505   1.274  14.305 -0.8963  3.6607 -1.8149
17256TIP3    H273260   4.424   1.218  14.189 -1.3256 -0.2766  0.1887
17257TIP3   OH273261   6.082   2.148   1.564  0.4219 -0.1691  0.3745
17257TIP3    H173262   6.031   2.129   1.643  1.9579  0.4127  1.5694
17257TIP3    H273263   6.126   2.231   1.584 -0.3457  0.8092 -1.7269
17258TIP3   OH273264   3.894   1.328  15.551  0.1345  0.0635 -0.0963
17258TIP3    H173265   3.865   1.248  15.507  1.2358  0.2121 -1.1369
17258TIP3    H273266   3.980   1.346  15.515  1.4998 -0.2447  2.7078
17259TIP3   OH273267   2.289   2.817   1.750  0.3086 -0.2385 -0.1318
17259TIP3    H173268   2.339   2.834   1.830  2.8738 -2.1104 -1.2331
17259TIP3    H273269   2.343   2.851   1.679 -1.6005  0.7336 -1.2224
17260TIP3   OH273270   6.009   1.384   1.329 -0.2827  0.0429 -0.0533
17260TIP3    H173271   6.056   1.395   1.412  0.5357 -0.7306 -0.4008
17260TIP3    H273272   6.078   1.370   1.264 -0.9339  0.2237 -0.8022
17261TIP3   OH273273   3.783   1.263   0.539  1.0498  0.7507 -0.1425
17261TIP3    H173274   3.866   1.304   0.517  0.9708 -0.1675 -2.3463
17261TIP3    H273275   3.807   1.183   0.586  1.4143  0.5613 -0.6478
17262TIP3   OH273276   5.020   3.557   0.496 -0.1185 -0.1903  0.0805
17262TIP3    H173277   5.046   3.465   0.487 -0.3898 -0.6132  2.7486
17262TIP3    H273278   5.038   3.578   0.588 -2.2058  1.7317  0.1321
17263TIP3   OH273279   4.341   4.078   2.072 -0.2544 -0.1357  0.4667
17263TIP3    H173280   4.323   4.157   2.122 -1.0267 -0.8577  1.3756
17263TIP3    H273281   4.270   4.018   2.096 -0.4763 -0.6224 -1.2573
17264TIP3   OH273282   4.492   4.372   6.427  0.0853 -0.2673  0.6516
17264TIP3    H173283   4.415   4.319   6.445  0.0584 -0.8575 -1.0084
17264TIP3    H273284   4.463   4.433   6.359  0.6682  0.5406  1.1178
17265TIP3   OH273285   3.728   4.874   1.863 -0.2437 -0.9247 -0.3655
17265TIP3    H173286   3.725   4.802   1.800 -1.5342 -2.4292  1.3009
17265TIP3    H273287   3.722   4.831   1.949 -2.4595  1.2144  0.6760
17266TIP3   OH273288   0.442   1.764   2.894 -0.2088 -0.3448  0.3922
17266TIP3    H173289   0.410   1.854   2.900 -3.0235 -1.2803  1.2344
17266TIP3    H273290   0.409   1.732   2.810  1.9815 -0.2506 -0.5745
17267TIP3   OH273291   1.772   6.742  10.752  0.6049 -0.0955 -0.2217
17267TIP3    H173292   1.708   6.675  10.728  0.0133 -0.8564  3.0351
17267TIP3    H273293   1.857   6.702  10.735  0.2402 -1.2560  0.5783
17268TIP3   OH273294   3.808   3.758   1.367  0.0540 -0.9955 -0.0199
17268TIP3    H173295   3.717   3.744   1.395  0.5108 -0.1740  2.0516
17268TIP3    H273296   3.844   3.669   1.359  0.1295 -1.3632  3.1300
17269TIP3   OH273297   3.673   4.574  12.311 -0.6734 -0.7734 -0.0849
17269TIP3    H173298   3.622   4.525  12.247 -0.2039 -0.7945 -0.4506
17269TIP3    H273299   3.741   4.617  12.260  0.0696 -1.2697  0.4602
17270TIP3   OH273300   1.897   0.496  11.005  0.3615  0.3943  0.3591
17270TIP3    H173301   1.804   0.475  11.002  0.8914 -2.3056 -0.3970
17270TIP3    H273302   1.939   0.417  11.038  2.6107  0.4371 -2.0200
17271TIP3   OH273303   2.029   5.413  11.027 -0.0965 -0.1556 -0.3085
17271TIP3    H173304   2.082   5.487  10.996 -0.4310 -0.4636 -1.7166
17271TIP3    H273305   2.021   5.356  10.950 -1.6757 -0.5811  0.1335
17272TIP3   OH273306   4.728   5.469  15.899  0.5142  0.2244 -0.2058
17272TIP3    H173307   4.816   5.505  15.911 -0.1667  1.3540  1.8793
17272TIP3    H273308   4.724   5.395  15.958  0.2364 -0.2045 -0.7490
17273TIP3   OH273309   5.664   1.677  12.037 -0.0359 -0.3427 -0.6085
17273TIP3    H173310   5.717   1.663  11.958  0.6709 -1.3067  0.0193
17273TIP3    H273311   5.681   1.600  12.091 -2.9070 -1.2610 -0.8363
17274TIP3   OH273312   4.587   4.990   6.897 -0.1016 -0.1037  0.4510
17274TIP3    H173313   4.599   5.070   6.948 -0.9842  0.4290 -0.1369
17274TIP3    H273314   4.554   5.021   6.812  3.2912 -0.7699 -1.2816
17275TIP3   OH273315   1.401   2.436   1.279 -0.0653  0.4610 -0.1348
17275TIP3    H173316   1.387   2.423   1.185 -1.3740  1.0037 -0.0399
17275TIP3    H273317   1.435   2.353   1.310  0.2767  0.2368 -1.0729
17276TIP3   OH273318   3.687   4.121  12.116  0.6542  0.2860 -0.1020
17276TIP3    H173319   3.705   4.098  12.207  0.4695 -0.0495 -0.1463
17276TIP3    H273320   3.770   4.107  12.070  0.6227 -0.0028 -0.0709
17277TIP3   OH273321   2.647   4.548  12.685 -0.1097  0.2761 -0.2500
17277TIP3    H173322   2.629   4.454  12.692 -0.7907  0.4558  0.5312
17277TIP3    H273323   2.721   4.563  12.745  0.4974  0.1171 -0.9449
17278TIP3   OH273324   0.814   3.645  15.043  0.5639 -0.2749 -0.5631
17278TIP3    H173325   0.800   3.665  14.951  0.4563  2.3288 -0.0645
17278TIP3    H273326   0.747   3.696  15.089  0.3144 -1.8742  0.9696
17279TIP3   OH273327   5.666   3.163  11.814 -0.4375 -0.6809 -0.3398
17279TIP3    H173328   5.731   3.182  11.747 -0.1457 -0.3618  0.0293
17279TIP3    H273329   5.664   3.068  11.820 -1.3359 -0.7825 -1.6455
17280TIP3   OH273330   6.682   6.685   3.021  0.1041  0.1166 -0.0233
17280TIP3    H173331   6.709   6.776   3.023  3.5708 -0.7908 -0.1256
17280TIP3    H273332   6.730   6.644   3.093 -0.7780 -1.7800 -0.4620
17281TIP3   OH273333   5.199   1.563   5.574  0.2601 -0.0081  0.4534
17281TIP3    H173334   5.200   1.468   5.561  1.6095 -0.0139  0.5094
17281TIP3    H273335   5.192   1.573   5.669  1.2174 -0.0831  0.5459
17282TIP3   OH273336   0.053   2.597   4.503 -0.0762 -0.3670  0.0345
17282TIP3    H173337   0.072   2.514   4.461  0.8958 -0.0941 -0.0891
17282TIP3    H273338   0.008   2.573   4.584  0.3219 -1.0165  0.0695
17283TIP3   OH273339   1.604   3.391   3.710  0.2109  0.3986  0.2015
17283TIP3    H173340   1.631   3.428   3.794  2.0767  0.2343 -0.2694
17283TIP3    H273341   1.668   3.425   3.647 -0.1816 -0.7398 -0.8593
17284TIP3   OH273342   3.845   6.446  13.402 -0.8541  0.0151 -0.0567
17284TIP3    H173343   3.819   6.365  13.358 -1.1584  0.1173 -0.0688
17284TIP3    H273344   3.843   6.512  13.332  0.0404 -0.0904 -0.1931
17285TIP3   OH273345   0.649   1.500  13.756  0.2853 -0.1862 -0.1246
17285TIP3    H173346   0.647   1.580  13.705 -1.8822 -0.0742  0.0206
17285TIP3    H273347   0.730   1.505  13.807  0.5222  1.5780 -0.6192
17286TIP3   OH273348   3.556   1.268  12.520 -0.4100  0.0611  0.0884
17286TIP3    H173349   3.647   1.296  12.533  0.2007 -1.8617  0.2961
17286TIP3    H273350   3.553   1.180  12.558 -2.3255  0.0228 -0.0756
17287TIP3   OH273351   1.997   6.332  12.299 -0.1449 -0.0956 -0.4990
17287TIP3    H173352   2.074   6.319  12.355  0.4035  2.5481 -0.4951
17287TIP3    H273353   1.924   6.300  12.352  0.3810  2.0293  1.7149
17288TIP3   OH273354   0.862   0.749   5.766  0.0946  0.1314  0.0051
17288TIP3    H173355   0.924   0.682   5.796  0.5803  0.2157 -0.7829
17288TIP3    H273356   0.776   0.717   5.795  0.5733  0.4035  1.7977
17289TIP3   OH273357   5.338   3.677  11.526  0.1212 -0.1183 -0.2862
17289TIP3    H173358   5.318   3.631  11.445  2.6049  1.8778 -2.2064
17289TIP3    H273359   5.286   3.757  11.521  1.2710  0.6287 -0.6129
17290TIP3   OH273360   4.500   5.598   4.385 -0.2614  0.0948 -0.1438
17290TIP3    H173361   4.424   5.553   4.347 -2.3749  1.4533  2.1725
17290TIP3    H273362   4.465   5.644   4.461  2.9364  0.8140  1.0552
17291TIP3   OH273363   4.491   3.767   3.992  0.3221  0.3500  0.0398
17291TIP3    H173364   4.540   3.763   4.073  0.2398  0.9625  0.1291
17291TIP3    H273365   4.417   3.707   4.005  0.8011 -0.2336  0.0699
17292TIP3   OH273366   3.878   1.205  14.118  0.2594 -0.2780 -0.4317
17292TIP3    H173367   3.934   1.255  14.059 -1.6634  1.7558 -0.6803
17292TIP3    H273368   3.904   1.235  14.206 -0.7920  1.1684 -0.5738
17293TIP3   OH273369   2.174   4.348   4.214 -0.0708 -0.1237 -0.2170
17293TIP3    H173370   2.087   4.365   4.178 -0.6018 -0.7608  0.7178
17293TIP3    H273371   2.177   4.253   4.227  0.2315  0.0367  1.0426
17294TIP3   OH273372   2.469   6.513   0.262 -0.1698  0.6159  0.1714
17294TIP3    H173373   2.539   6.455   0.229 -0.5270 -0.0082  0.4862
17294TIP3    H273374   2.511   6.564   0.331 -0.4684 -1.1827  1.7915
17295TIP3   OH273375   0.589   0.250   4.166  0.5197 -0.1677 -0.1634
17295TIP3    H173376   0.592   0.154   4.170 -1.0064 -0.2049  0.3749
17295TIP3    H273377   0.590   0.269   4.072 -2.2238 -0.8694 -0.4014
17296TIP3   OH273378   1.124   4.011   1.541 -0.1730 -0.2402 -0.0300
17296TIP3    H173379   1.046   3.956   1.554  0.7357 -2.0074 -1.5517
17296TIP3    H273380   1.186   3.954   1.495  1.8111  1.3068  0.6055
17297TIP3   OH273381   1.802   5.655  16.438  0.2688  0.8757  0.1820
17297TIP3    H173382   1.862   5.709  16.387  0.2662 -0.4896 -1.3471
17297TIP3    H273383   1.722   5.652  16.385  0.7548 -1.7582 -0.5180
17298TIP3   OH273384   6.502   1.383  16.418 -0.4774  0.4080  0.5518
17298TIP3    H173385   6.466   1.362  16.504 -3.5303  1.6983 -0.2613
17298TIP3    H273386   6.450   1.458  16.388  1.7744  1.2469 -1.6405
17299TIP3   OH273387   6.776   3.421  12.691  0.2674 -0.8032  0.1283
17299TIP3    H173388   6.786   3.328  12.710  0.0784 -0.7682  0.4157
17299TIP3    H273389   6.859   3.461  12.718 -0.3732 -0.5964  1.9412
17300TIP3   OH273390   3.820   5.700   2.018  0.9743 -0.7098 -0.1298
17300TIP3    H173391   3.757   5.647   1.968  1.5696 -0.0401 -1.6333
17300TIP3    H273392   3.818   5.786   1.976  0.8866  0.1664  1.5429
17301TIP3   OH273393   4.883   1.333  11.422 -0.2803 -0.3710 -0.2655
17301TIP3    H173394   4.806   1.381  11.393 -1.7753 -2.9982 -0.9233
17301TIP3    H273395   4.936   1.321  11.343 -0.6209 -0.9946 -0.4073
17302TIP3   OH273396   6.458   6.255  16.779 -0.0573 -0.0262 -0.4796
17302TIP3    H173397   6.482   6.290  16.694 -0.8309  2.6579  0.3223
17302TIP3    H273398   6.479   6.325  16.841 -3.2009 -0.2753  1.0421
17303TIP3   OH273399   4.598   3.747  14.041  0.2002 -0.4690 -0.2881
17303TIP3    H173400   4.513   3.709  14.019 -0.5080 -0.9544  2.8287
17303TIP3    H273401   4.582   3.842  14.045 -0.6253 -0.6524  1.6698
17304TIP3   OH273402   6.020   1.019   4.370 -0.1547 -0.0901  0.2014
17304TIP3    H173403   6.114   1.032   4.380  0.0440  0.1207 -1.5325
17304TIP3    H273404   6.009   0.923   4.371  0.5077 -0.2716 -2.2718
17305TIP3   OH273405   1.326   6.487   1.099 -0.4425  0.1256 -0.6903
17305TIP3    H173406   1.274   6.562   1.128 -0.8388 -0.4023  0.0132
17305TIP3    H273407   1.415   6.506   1.128 -0.5990  0.1980 -0.2519
17306TIP3   OH273408   1.975   2.018   0.558 -0.2159  0.0203 -0.0409
17306TIP3    H173409   1.976   2.003   0.463 -0.1781 -0.5781  0.0512
17306TIP3    H273410   1.920   1.948   0.593 -0.9930  0.7837  0.2920
17307TIP3   OH273411   2.576   6.175   0.945  0.1244  0.0662 -0.1082
17307TIP3    H173412   2.588   6.113   1.017  3.4849 -0.7088 -1.1283
17307TIP3    H273413   2.481   6.182   0.934 -0.5261  0.0769  4.1572
17308TIP3   OH273414   5.432   6.754  14.381 -0.1834 -0.1055 -0.8473
17308TIP3    H173415   5.381   6.747  14.461 -1.1963  2.4399 -1.1714
17308TIP3    H273416   5.475   6.669  14.372  0.6331 -0.2497  2.8035
17309TIP3   OH273417   1.539   6.688   4.197 -0.1708 -0.6967  0.6259
17309TIP3    H173418   1.444   6.682   4.198 -0.1026 -2.6175  0.2819
17309TIP3    H273419   1.566   6.663   4.285  0.0146  0.4599  0.9119
17310TIP3   OH273420   0.174   2.141  10.983  0.1054 -0.2915  0.3657
17310TIP3    H173421   0.083   2.166  10.973 -0.9281 -3.8818 -0.7587
17310TIP3    H273422   0.194   2.161  11.075 -1.6722  0.8381  0.5583
17311TIP3   OH273423   6.778   5.831  11.858  0.3511 -1.1809 -0.1863
17311TIP3    H173424   6.803   5.887  11.784 -0.3091 -0.6666 -0.0322
17311TIP3    H273425   6.861   5.801  11.895  0.9683  2.6972  2.0627
17312TIP3   OH273426   0.993   1.758   3.061  0.0512 -0.3995  0.7755
17312TIP3    H173427   1.030   1.842   3.090  1.0040 -0.0400 -1.3167
17312TIP3    H273428   0.900   1.776   3.049 -0.2555 -0.3759  2.7725
17313TIP3   OH273429   0.085   6.779  15.191  0.2244 -0.5991  0.0049
17313TIP3    H173430   0.056   6.690  15.212  1.3873 -0.8595  0.5969
17313TIP3    H273431   0.178   6.770  15.171  0.4365  0.5222  0.3891
17314TIP3   OH273432   1.251   2.907   4.629  0.6117  0.6730 -0.1504
17314TIP3    H173433   1.275   2.932   4.540 -0.7072  0.1225 -0.6940
17314TIP3    H273434   1.163   2.870   4.620 -0.1178  1.8502  1.5779
17315TIP3   OH273435   2.551   3.665   0.970  0.1144 -0.2810  0.6156
17315TIP3    H173436   2.633   3.665   1.020  1.6044 -0.8959 -1.6683
17315TIP3    H273437   2.503   3.741   1.003  1.7387  0.2854  1.8138
17316TIP3   OH273438   2.595   3.598  16.508 -0.4354  0.2547 -0.5229
17316TIP3    H173439   2.500   3.591  16.513 -0.5698  1.2190 -1.4042
17316TIP3    H273440   2.611   3.688  16.478  0.7570  0.1808 -0.1493
17317TIP3   OH273441   4.627   4.945   0.263  0.0746  0.5617 -0.0504
17317TIP3    H173442   4.685   4.896   0.321  2.9659  1.0078 -2.3638
17317TIP3    H273443   4.539   4.932   0.300  0.6711 -5.4872  0.1342
17318TIP3   OH273444   3.711   1.191   3.694  0.2624 -0.2546 -0.1227
17318TIP3    H173445   3.734   1.167   3.604  0.8543 -0.3772  0.0606
17318TIP3    H273446   3.623   1.156   3.706  1.0125 -2.1866  0.0687
17319TIP3   OH273447   5.096   2.364   5.223 -0.4162  0.7308  0.2314
17319TIP3    H173448   5.037   2.293   5.199  1.0182 -0.4848  0.1205
17319TIP3    H273449   5.045   2.444   5.211 -1.4703 -0.1589 -1.5556
17320TIP3   OH273450   4.008   1.589  15.528 -0.0158  0.8303  0.3040
17320TIP3    H173451   3.946   1.551  15.590 -0.6668  1.0851 -0.1716
17320TIP3    H273452   3.956   1.601  15.448  1.1253 -0.7956 -0.7614
17321TIP3   OH273453   2.272   1.607  14.814  0.1125  0.0767  0.0053
17321TIP3    H173454   2.267   1.512  14.826 -0.6252 -0.1042 -1.4343
17321TIP3    H273455   2.334   1.637  14.880  0.0632 -1.3535  0.7367
17322TIP3   OH273456   1.738   6.526   3.450 -0.1234 -0.4976 -0.4466
17322TIP3    H173457   1.815   6.552   3.502 -1.6111  1.4696  0.8988
17322TIP3    H273458   1.665   6.573   3.490 -1.8300 -1.1882 -2.5826
17323TIP3   OH273459   1.439   2.662   5.924 -0.2692 -0.1474 -0.4235
17323TIP3    H173460   1.497   2.720   5.874 -1.3233  0.9444 -0.4109
17323TIP3    H273461   1.374   2.721   5.963 -0.4218 -1.1647  0.9079
17324TIP3   OH273462   6.252   4.900  14.039  0.2019 -0.4720  0.4945
17324TIP3    H173463   6.183   4.838  14.016  2.6897 -3.0121 -0.8280
17324TIP3    H273464   6.279   4.875  14.127 -1.5342  1.5911  1.6916
17325TIP3   OH273465   1.792   4.420  11.097 -0.8696 -0.6116 -0.3958
17325TIP3    H173466   1.754   4.333  11.104  0.3901 -1.2837 -1.3575
17325TIP3    H273467   1.724   4.479  11.128 -1.2964 -2.0209  1.5420
17326TIP3   OH273468   0.184   3.585   0.236 -0.4395  0.3839  0.5984
17326TIP3    H173469   0.096   3.621   0.244 -1.4701 -1.8418  0.2273
17326TIP3    H273470   0.227   3.607   0.319 -1.1420  1.9135  0.5898
17327TIP3   OH273471   4.162   3.568   3.609 -0.4324 -0.1111  0.0629
17327TIP3    H173472   4.089   3.567   3.671 -0.8015  0.4612 -0.3500
17327TIP3    H273473   4.240   3.579   3.664 -0.6944 -0.2970  0.4749
17328TIP3   OH273474   2.866   6.422   5.109  0.6871 -0.1454 -0.6242
17328TIP3    H173475   2.775   6.395   5.120  0.9411 -0.5990  0.3930
17328TIP3    H273476   2.865   6.516   5.125  0.2179  0.0756 -1.7818
17329TIP3   OH273477   2.469   1.483   3.677 -0.6416  0.2270  0.3358
17329TIP3    H173478   2.392   1.458   3.728 -0.2888  0.7148  1.1272
17329TIP3    H273479   2.543   1.454   3.729 -0.2646  1.2663  0.4065
17330TIP3   OH273480   6.849   0.148  15.020 -0.3913 -0.2434  0.1180
17330TIP3    H173481   6.881   0.063  15.051 -0.2150 -0.4642 -0.6502
17330TIP3    H273482   6.919   0.209  15.043  0.0180 -0.5087 -0.4035
17331TIP3   OH273483   2.741   3.118  16.021 -0.2691  0.1273 -0.2282
17331TIP3    H173484   2.765   3.204  15.987  2.4724 -0.1546  0.7672
17331TIP3    H273485   2.668   3.135  16.080  1.1358  2.0606  1.0586
17332TIP3   OH273486   6.166   3.586   6.117  0.2361  0.0059 -0.0984
17332TIP3    H173487   6.207   3.672   6.111  3.3622 -1.3488  0.0207
17332TIP3    H273488   6.169   3.566   6.211 -0.9973 -0.0510 -0.0547
17333TIP3   OH273489   4.406   2.430  11.457  0.0056 -0.2824  0.1977
17333TIP3    H173490   4.342   2.470  11.398 -0.6732  0.1812  1.2082
17333TIP3    H273491   4.474   2.396  11.400 -1.0094 -0.5279 -0.8928
17334TIP3   OH273492   3.140   2.879  11.887  0.6200 -0.8342  0.3280
17334TIP3    H173493   3.130   2.954  11.945  1.5652 -0.8403  0.5181
17334TIP3    H273494   3.055   2.836  11.888 -0.0639  0.4626 -0.1142
17335TIP3   OH273495   4.787   1.876  13.683 -0.6712 -0.1017 -0.1745
17335TIP3    H173496   4.774   1.909  13.594 -0.1965  0.6804  0.0381
17335TIP3    H273497   4.856   1.810  13.675 -2.1634 -1.6517 -0.7269
17336TIP3   OH273498   4.879   1.258   6.395  0.3450  0.3366 -0.4622
17336TIP3    H173499   4.883   1.232   6.487 -2.0688 -2.2402 -0.9206
17336TIP3    H273500   4.799   1.310   6.388  0.7320  0.8722 -1.0618
17337TIP3   OH273501   5.971   5.897   4.415  0.6826  0.2837 -0.1094
17337TIP3    H173502   5.984   5.871   4.506 -1.1726 -1.3852 -0.2535
17337TIP3    H273503   5.926   5.981   4.420 -0.7938 -0.5152  0.5882
17338TIP3   OH273504   6.849   2.889   2.448  0.0942  0.3653  0.3137
17338TIP3    H173505   6.843   2.961   2.386 -0.6235 -0.0075 -0.0689
17338TIP3    H273506   6.931   2.845   2.427 -0.3139  0.0278 -0.6235
17339TIP3   OH273507   3.132   6.087   5.283 -0.3448 -0.5664  0.0476
17339TIP3    H173508   3.052   6.039   5.304 -1.2261 -0.6015 -2.9130
17339TIP3    H273509   3.163   6.048   5.201  1.3287  1.0822 -0.1758
17340TIP3   OH273510   0.488   1.868  14.637  0.7134  0.2746 -0.0071
17340TIP3    H173511   0.449   1.797  14.688  0.2191 -0.1094 -0.9065
17340TIP3    H273512   0.551   1.825  14.579  1.7418  0.7813  0.7039
17341TIP3   OH273513   3.375   5.852  13.747 -0.1808  0.2384 -0.1580
17341TIP3    H173514   3.358   5.767  13.788 -1.3298  0.0036 -1.0584
17341TIP3    H273515   3.352   5.916  13.814  0.4197 -0.1579  0.4323
17342TIP3   OH273516   2.237   4.157   2.676 -0.3881  0.5199 -0.4930
17342TIP3    H173517   2.254   4.250   2.690  0.4452  0.5108 -1.3805
17342TIP3    H273518   2.207   4.125   2.761  1.5933  1.0995  0.4817
17343TIP3   OH273519   4.351   5.885  12.987  0.4340  0.3769  0.0952
17343TIP3    H173520   4.366   5.896  13.081 -0.3968  3.1335 -0.0081
17343TIP3    H273521   4.292   5.810  12.980  0.0563  0.4841  1.8144
17344TIP3   OH273522   2.808   6.309  12.972  0.0925  0.2195  0.2933
17344TIP3    H173523   2.769   6.343  12.892 -0.4782 -0.4464  0.2765
17344TIP3    H273524   2.735   6.273  13.022  0.6138 -0.6456  0.4679
17345TIP3   OH273525   6.377   3.347  13.587  0.0179 -0.1031  0.0292
17345TIP3    H173526   6.353   3.343  13.494  1.4196 -0.4403 -0.3381
17345TIP3    H273527   6.447   3.412  13.591  0.2600 -0.4007  0.7900
17346TIP3   OH273528   0.537   1.804  12.367 -0.5363 -0.3381 -0.2307
17346TIP3    H173529   0.580   1.722  12.343  2.0501  0.5004  1.1290
17346TIP3    H273530   0.536   1.855  12.287  1.3280 -0.3002 -0.2604
17347TIP3   OH273531   1.196   5.685   3.300 -0.1231  0.1806 -0.7655
17347TIP3    H173532   1.192   5.774   3.334 -1.1332 -0.4153  0.7865
17347TIP3    H273533   1.277   5.649   3.335  0.0012  0.3086 -0.9226
17348TIP3   OH273534   1.604   3.299  10.852  0.6990  0.4670 -0.1943
17348TIP3    H173535   1.687   3.291  10.805  0.0919 -1.2435 -1.0524
17348TIP3    H273536   1.538   3.304  10.784 -0.2158 -2.3190  0.3691
17349TIP3   OH273537   5.371   3.764  13.879 -0.1880 -0.3101 -0.2908
17349TIP3    H173538   5.446   3.812  13.914 -0.4433 -0.6248  0.7086
17349TIP3    H273539   5.295   3.810  13.913 -0.4832  0.1703 -1.5216
17350TIP3   OH273540   4.057   3.215  12.413  0.3439 -0.0571  0.0866
17350TIP3    H173541   4.016   3.140  12.457  2.6680 -2.2208 -1.1284
17350TIP3    H273542   4.117   3.251  12.478 -1.1709  1.2361  0.8619
17351TIP3   OH273543   3.881   4.645   3.979  0.3741  0.2422  0.6298
17351TIP3    H173544   3.836   4.673   4.058  0.8035 -0.0527  0.9875
17351TIP3    H273545   3.850   4.555   3.965 -1.0646  0.8882 -0.5599
17352TIP3   OH273546   6.836   0.342   3.285 -0.4106  0.4484  0.1281
17352TIP3    H173547   6.760   0.345   3.226  1.5711  1.4678 -2.5619
17352TIP3    H273548   6.832   0.425   3.332  0.4291  1.7803 -2.0072
17353TIP3   OH273549   5.853   3.120   0.539  0.4314  0.2793 -0.0864
17353TIP3    H173550   5.864   3.214   0.553 -1.6785  0.5279  0.1054
17353TIP3    H273551   5.759   3.105   0.547  0.6009 -1.6803 -1.2482
17354TIP3   OH273552   3.886   0.753   0.025  0.2181 -0.0720 -0.2609
17354TIP3    H173553   3.955   0.818   0.022  1.6484 -1.5467 -1.6520
17354TIP3    H273554   3.915   0.691   0.093 -0.8334  0.4020  0.6471
17355TIP3   OH273555   2.855   0.295  17.053 -0.0281 -0.0401  0.3586
17355TIP3    H173556   2.913   0.313  16.979  1.3699 -0.3245  1.3449
17355TIP3    H273557   2.901   0.227  17.103 -2.8608 -3.0503 -0.7196
17356TIP3   OH273558   0.508   4.087   0.863 -0.2138 -0.3351 -0.0323
17356TIP3    H173559   0.532   4.002   0.898  3.6890  0.3378 -0.6029
17356TIP3    H273560   0.495   4.072   0.769 -1.1066 -0.5364  0.1174
17357TIP3   OH273561   3.543   0.489  11.641  0.5213  0.1121 -0.0833
17357TIP3    H173562   3.501   0.427  11.700 -0.7656 -1.9349 -2.9350
17357TIP3    H273563   3.636   0.464  11.643  0.3360 -0.5742  0.3113
17358TIP3   OH273564   3.764   4.071  15.375 -0.0250 -0.1174  0.7149
17358TIP3    H173565   3.686   4.110  15.336 -0.3369 -1.1710  0.2513
17358TIP3    H273566   3.803   4.020  15.305 -0.3815 -1.7329  1.6344
17359TIP3   OH273567   1.718   3.006  11.515  0.7743 -0.1990 -0.0062
17359TIP3    H173568   1.755   3.059  11.586  0.5061 -0.0898  0.0541
17359TIP3    H273569   1.628   2.989  11.542  0.6416 -0.0769 -0.3626
17360TIP3   OH273570   0.141   3.267  13.312  0.0772 -0.7254 -0.3989
17360TIP3    H173571   0.210   3.215  13.353 -0.0414 -0.7088 -0.1813
17360TIP3    H273572   0.163   3.265  13.219  0.5724 -0.4198 -0.2885
17361TIP3   OH273573   4.581   6.670   3.823 -0.3727  0.8301  0.2161
17361TIP3    H173574   4.652   6.606   3.830 -1.2263  0.0051  1.8075
17361TIP3    H273575   4.615   6.736   3.762  1.2493 -0.1876 -0.0495
17362TIP3   OH273576   3.473   6.530   0.930  0.3339  0.4584  0.3720
17362TIP3    H173577   3.511   6.518   0.843 -0.8049 -1.5998  0.0847
17362TIP3    H273578   3.417   6.454   0.942 -2.1310  2.3335  1.5842
17363TIP3   OH273579   5.389   0.741   4.571 -0.1517  0.2147 -0.1969
17363TIP3    H173580   5.432   0.808   4.517 -0.4545 -0.1413 -0.9022
17363TIP3    H273581   5.384   0.664   4.513  0.6347 -0.5819  0.7502
17364TIP3   OH273582   5.629   4.725   2.847  0.0435 -0.4291  0.6216
17364TIP3    H173583   5.539   4.756   2.858  0.9282  1.9844  2.0496
17364TIP3    H273584   5.653   4.690   2.933  0.9226  0.4317  0.7520
17365TIP3   OH273585   5.614   5.001   1.578 -0.2056 -0.1630  0.9043
17365TIP3    H173586   5.629   4.945   1.654  1.7040  0.9960  1.4363
17365TIP3    H273587   5.568   5.077   1.614 -0.7837 -0.3537  0.5822
17366TIP3   OH273588   5.639   5.016   4.543  0.2715  0.1817 -0.2067
17366TIP3    H173589   5.553   5.036   4.581  0.7635  1.0009  0.5111
17366TIP3    H273590   5.641   4.920   4.537 -0.8373  0.1673 -0.5924
17367TIP3   OH273591   4.796   5.558   2.673  0.1387 -0.7421  0.3297
17367TIP3    H173592   4.877   5.606   2.689  0.9842 -1.9690 -0.0610
17367TIP3    H273593   4.771   5.524   2.759  0.0993 -0.4387  0.4364
17368TIP3   OH273594   1.192   1.583   4.365 -0.2870 -0.1646 -0.0106
17368TIP3    H173595   1.116   1.550   4.316  0.9339 -1.7862 -0.9203
17368TIP3    H273596   1.194   1.529   4.444 -1.5252  1.6128  1.3154
17369TIP3   OH273597   5.158   1.596   4.665 -0.4396 -0.4240  0.5940
17369TIP3    H173598   5.205   1.514   4.683 -0.2734 -0.4756 -0.0173
17369TIP3    H273599   5.203   1.661   4.719 -0.0445 -0.5882  0.4736
17370TIP3   OH273600   0.973   2.745  12.499  0.2904 -0.4437  0.0231
17370TIP3    H173601   1.000   2.723  12.410 -0.3656 -0.0864 -0.2735
17370TIP3    H273602   0.891   2.794  12.488 -0.9804 -2.2143  0.8912
17371TIP3   OH273603   5.183   6.234   0.593 -0.1888  0.4067 -0.3492
17371TIP3    H173604   5.180   6.319   0.638 -2.6592 -0.6736  1.8747
17371TIP3    H273605   5.110   6.237   0.531 -0.2039 -0.0169 -0.3564
17372TIP3   OH273606   0.905   5.335   4.705  0.4048 -0.0054  0.1108
17372TIP3    H173607   0.889   5.357   4.613 -1.8302 -0.2128  0.3904
17372TIP3    H273608   0.998   5.314   4.709  0.3953 -0.7795 -2.2794
17373TIP3   OH273609   1.786   5.510  12.301 -0.2657  0.0394 -0.1535
17373TIP3    H173610   1.705   5.462  12.317 -1.9301  2.8426  0.5499
17373TIP3    H273611   1.778   5.540  12.210 -0.5481  1.1690  0.2285
17374TIP3   OH273612   0.371   0.553  13.758 -0.4001 -1.5374 -0.0131
17374TIP3    H173613   0.315   0.477  13.770  0.7316 -2.4853 -0.5416
17374TIP3    H273614   0.343   0.591  13.675 -0.5027 -1.7830 -0.0896
17375TIP3   OH273615   5.580   5.063   0.675 -0.3908 -0.2211  0.0402
17375TIP3    H173616   5.514   5.043   0.609 -2.5338  1.6134  1.4725
17375TIP3    H273617   5.546   5.023   0.755  1.5050 -1.2831  0.3709
17376TIP3   OH273618   1.364   5.253   0.213  0.1076 -0.1861 -0.0846
17376TIP3    H173619   1.414   5.176   0.187  0.8419  0.4223 -0.5193
17376TIP3    H273620   1.358   5.247   0.309 -1.1282 -1.5405 -0.2153
17377TIP3   OH273621   2.587   2.550   5.483 -0.3322 -0.3547 -0.0493
17377TIP3    H173622   2.589   2.503   5.400 -0.1430 -0.8682  0.2364
17377TIP3    H273623   2.502   2.595   5.484 -0.4966 -0.6562 -0.3501
17378TIP3   OH273624   2.135   6.183  16.741  0.6464  0.1279  0.2577
17378TIP3    H173625   2.192   6.259  16.750 -2.0410  2.3545 -0.3595
17378TIP3    H273626   2.121   6.153  16.831  2.4713 -0.3142  0.4421
17379TIP3   OH273627   2.163   1.469   4.031 -0.3160  0.5538  0.0773
17379TIP3    H173628   2.169   1.454   3.937 -0.3228 -0.0278  0.1687
17379TIP3    H273629   2.131   1.386   4.067  3.5317 -0.7073  1.0647
17380TIP3   OH273630   4.289   2.504   5.049 -0.2929 -0.2122 -0.1546
17380TIP3    H173631   4.297   2.535   5.139 -1.9118 -1.4868  0.4906
17380TIP3    H273632   4.317   2.578   4.995  3.4640 -0.3469  1.3670
17381TIP3   OH273633   6.429   6.456  15.251  0.3580 -0.3954  0.0592
17381TIP3    H173634   6.395   6.544  15.264  0.5669 -0.4758  1.2816
17381TIP3    H273635   6.415   6.412  15.336  0.4478 -1.4657 -0.4591
17382TIP3   OH273636   3.025   2.941  12.348  0.2633 -0.3225  0.0296
17382TIP3    H173637   3.097   2.997  12.317  0.2464  0.5263  1.4469
17382TIP3    H273638   3.058   2.852  12.340  0.3496 -0.1428 -2.1448
17383TIP3   OH273639   5.740   4.625  15.561 -0.0351 -0.4664 -0.1090
17383TIP3    H173640   5.821   4.627  15.612 -0.8852 -1.1362  1.3302
17383TIP3    H273641   5.672   4.649  15.623 -1.2637 -2.4617 -0.5791
17384TIP3   OH273642   1.544   3.063   2.301  0.1609 -0.6429 -0.0463
17384TIP3    H173643   1.453   3.093   2.308  1.1161  2.2163  2.9077
17384TIP3    H273644   1.569   3.081   2.211 -1.1357  2.2706  0.0694
17385TIP3   OH273645   6.182   1.749   1.094 -0.0255 -0.3415  0.5692
17385TIP3    H173646   6.197   1.779   1.184  3.4241 -0.0008  0.0237
17385TIP3    H273647   6.233   1.669   1.086 -0.3293 -0.4176 -1.0686
17386TIP3   OH273648   0.433   3.671   4.827 -0.2043 -0.2462  0.4617
17386TIP3    H173649   0.344   3.705   4.819 -0.5469 -1.0843  0.5962
17386TIP3    H273650   0.473   3.689   4.742 -0.3853  0.4496  0.5199
17387TIP3   OH273651   1.195   1.183   2.826 -0.3511 -0.4508  0.1463
17387TIP3    H173652   1.262   1.119   2.848  1.4649  1.3702  0.1974
17387TIP3    H273653   1.210   1.203   2.734 -0.2852  0.5561  0.3672
17388TIP3   OH273654   5.682   1.980   3.366  0.0099 -0.3352  0.0800
17388TIP3    H173655   5.754   1.971   3.428 -1.0155  0.3476  1.4112
17388TIP3    H273656   5.722   2.019   3.288  0.6512  2.4964  1.7236
17389TIP3   OH273657   1.980   1.659  15.636 -0.7122  0.8050  0.1524
17389TIP3    H173658   1.965   1.703  15.553  2.6867 -0.5532 -1.4002
17389TIP3    H273659   2.016   1.727  15.693 -2.6171  1.6367  0.4308
17390TIP3   OH273660   0.561   0.068  11.228 -0.0822 -0.0779 -0.0914
17390TIP3    H173661   0.608  -0.016  11.226  0.2228  0.0088  1.9583
17390TIP3    H273662   0.630   0.134  11.232 -0.2875  0.3991 -2.7055
17391TIP3   OH273663   3.465   2.900  10.237 -0.0123 -0.2587  0.5329
17391TIP3    H173664   3.517   2.847  10.297  1.0879 -0.5364 -0.6213
17391TIP3    H273665   3.445   2.980  10.286 -1.2247 -1.4508  2.1030
17392TIP3   OH273666   0.459   5.100   0.866  0.7272 -0.2534  0.1953
17392TIP3    H173667   0.406   5.139   0.797  3.0122  0.5726 -1.1787
17392TIP3    H273668   0.425   5.011   0.874 -1.2594  0.4235 -0.1507
17393TIP3   OH273669   2.050   5.755  13.977 -0.3776 -0.3483 -0.4919
17393TIP3    H173670   1.996   5.731  13.902  1.0941  0.1666 -1.7896
17393TIP3    H273671   2.132   5.785  13.938  0.5329 -0.3004  1.3559
17394TIP3   OH273672   5.643   4.763   1.733  0.2945 -0.1072  0.0519
17394TIP3    H173673   5.719   4.710   1.709  0.7537  0.7415 -0.4153
17394TIP3    H273674   5.602   4.715   1.805  0.3513 -1.4094 -0.7339
17395TIP3   OH273675   3.264   3.340  14.919  0.3396 -0.3140 -0.6913
17395TIP3    H173676   3.270   3.346  14.823 -1.9753  0.3715 -0.8349
17395TIP3    H273677   3.222   3.256  14.935 -1.0208  0.4061 -0.3906
17396TIP3   OH273678   0.562   4.192  16.601 -0.1098  1.0308 -0.1865
17396TIP3    H173679   0.529   4.282  16.595 -0.6176  0.8964  0.5357
17396TIP3    H273680   0.500   4.148  16.659  0.2823  0.2757 -0.3395
17397TIP3   OH273681   0.736   6.247   3.045 -0.0125 -0.3105 -0.1041
17397TIP3    H173682   0.736   6.269   3.138  1.1191 -0.8802  0.0484
17397TIP3    H273683   0.726   6.332   3.001 -1.8742 -0.1627  0.5159
17398TIP3   OH273684   0.673   6.207   1.354 -0.1523 -0.0982  0.2975
17398TIP3    H173685   0.712   6.124   1.329  0.3708 -0.0043  0.7673
17398TIP3    H273686   0.722   6.233   1.433  0.8487  1.4798 -0.7927
17399TIP3   OH273687   3.700   5.287   6.332 -0.0633 -0.4558 -0.5595
17399TIP3    H173688   3.754   5.210   6.351  0.0712 -0.0802  0.6954
17399TIP3    H273689   3.715   5.306   6.239  0.3112 -1.6185 -0.7447
17400TIP3   OH273690   3.768   5.406   5.235 -0.3045 -0.2000  0.2967
17400TIP3    H173691   3.780   5.315   5.205  0.3393 -0.2966  0.8148
17400TIP3    H273692   3.692   5.402   5.294 -1.2109 -0.1158 -0.8263
17401TIP3   OH273693   1.262   1.812  16.307  0.3560 -0.6015  0.2821
17401TIP3    H173694   1.179   1.818  16.259 -0.1296 -0.5407  1.1096
17401TIP3    H273695   1.328   1.806  16.238 -0.1878  0.9644 -0.4364
17402TIP3   OH273696   1.261   2.097   2.287 -0.8950 -0.0765 -0.8798
17402TIP3    H173697   1.342   2.147   2.290  0.2396 -1.8582  1.3071
17402TIP3    H273698   1.192   2.164   2.286  0.5635  1.5402  0.0540
17403TIP3   OH273699   0.792   0.611  13.047 -0.2052 -0.0717  0.4819
17403TIP3    H173700   0.770   0.571  13.132 -1.3188  1.9412  1.2212
17403TIP3    H273701   0.887   0.604  13.041  0.0390  0.7397  2.4795
17404TIP3   OH273702   5.218   2.726   4.506 -0.0811 -0.4896  0.3969
17404TIP3    H173703   5.239   2.766   4.590 -0.8138 -0.8960  0.7893
17404TIP3    H273704   5.302   2.701   4.469  0.1937 -1.3216  1.5268
17405TIP3   OH273705   6.801   4.639   5.700 -0.4647 -0.0746  0.1000
17405TIP3    H173706   6.863   4.696   5.745  0.6648  0.0646 -1.5677
17405TIP3    H273707   6.854   4.588   5.640 -1.8660 -0.5049 -0.8227
17406TIP3   OH273708   3.518   5.043  14.050 -0.3364  0.1760 -0.3516
17406TIP3    H173709   3.522   5.110  14.118  1.4573 -1.0593  0.8593
17406TIP3    H273710   3.466   5.082  13.980 -0.6611  2.2089  0.9525
17407TIP3   OH273711   4.820   6.151  16.247 -0.6998  0.1027 -0.2173
17407TIP3    H173712   4.788   6.098  16.175 -0.6307  2.5328 -2.1581
17407TIP3    H273713   4.742   6.185  16.290 -0.7729 -2.0680  1.5710
17408TIP3   OH273714   2.185   3.690   5.447  0.0978  0.2833 -0.1648
17408TIP3    H173715   2.250   3.641   5.497 -0.4881  0.3709  0.6955
17408TIP3    H273716   2.232   3.718   5.368  0.8085 -0.5289 -0.0445
17409TIP3   OH273717   1.258   0.270   4.097  0.0072 -0.1099 -0.6186
17409TIP3    H173718   1.325   0.237   4.156 -1.5308 -1.3225  0.5431
17409TIP3    H273719   1.285   0.359   4.076  1.0292  0.0659  1.2608
17410TIP3   OH273720   2.204   5.570   5.451 -0.0183  0.6924  0.4421
17410TIP3    H173721   2.154   5.607   5.523  0.0451  1.4471  0.1118
17410TIP3    H273722   2.141   5.515   5.404 -1.0747  2.8908 -0.9267
17411TIP3   OH273723   2.896   4.160   4.871 -0.9047  0.1258 -0.6168
17411TIP3    H173724   2.817   4.203   4.904 -0.7210  0.5616 -0.7365
17411TIP3    H273725   2.910   4.086   4.930  0.8321  2.2643  1.8998
17412TIP3   OH273726   0.863   4.174   6.122 -0.8072  0.1026  0.4741
17412TIP3    H173727   0.783   4.212   6.086  1.1393  3.3249 -0.9136
17412TIP3    H273728   0.894   4.238   6.185  0.3749 -1.3656  1.4509
17413TIP3   OH273729   2.024   1.784  11.994  0.7806  0.6842 -0.0034
17413TIP3    H173730   1.967   1.720  12.036 -1.4510  1.6274 -1.4103
17413TIP3    H273731   2.068   1.828  12.066  0.6465 -0.8910  1.0829
17414TIP3   OH273732   3.610   5.719  15.126  0.0058  0.3576  0.4508
17414TIP3    H173733   3.620   5.814  15.128 -1.0031  0.4738  0.3772
17414TIP3    H273734   3.616   5.692  15.217  2.4115  0.2313  0.3165
17415TIP3   OH273735   0.577   4.020  14.188 -0.4312 -0.0367 -0.1845
17415TIP3    H173736   0.536   4.093  14.235  1.0035  0.4464  0.3908
17415TIP3    H273737   0.657   4.057  14.152  0.0410 -1.1959 -0.3695
17416TIP3   OH273738   2.793   3.648   3.516  0.3294 -0.4665 -0.7137
17416TIP3    H173739   2.769   3.730   3.472  1.0370 -2.0254 -4.2747
17416TIP3    H273740   2.711   3.617   3.554  0.0560  1.8142  0.7918
17417TIP3   OH273741   3.089   4.790   1.880 -0.3542 -0.4924 -0.4836
17417TIP3    H173742   3.110   4.697   1.879 -1.5079 -0.7538 -0.9049
17417TIP3    H273743   3.038   4.803   1.960  0.0289 -0.1578 -0.2847
17418TIP3   OH273744   4.714   2.311   5.112  0.1400 -0.1936 -0.0398
17418TIP3    H173745   4.763   2.247   5.163  0.7497  0.6056  0.3880
17418TIP3    H273746   4.627   2.313   5.154 -0.4684 -1.9831 -1.1187
17419TIP3   OH273747   4.941   1.981   4.401  0.0975  0.2303 -0.3283
17419TIP3    H173748   5.009   2.016   4.459 -0.8496  0.0776  0.8891
17419TIP3    H273749   4.978   1.992   4.313  0.7514  2.2557  0.1467
17420TIP3   OH273750   3.269   0.034   5.044  0.5079  0.4603  0.3908
17420TIP3    H173751   3.238   0.015   5.133  2.1455 -2.0212  0.5241
17420TIP3    H273752   3.334   0.103   5.056  0.4324  0.4253  1.0752
17421TIP3   OH273753   1.979   2.026  14.272 -0.1103 -0.1053  0.2725
17421TIP3    H173754   2.069   2.035  14.240  0.2218  2.1460  1.6683
17421TIP3    H273755   1.980   2.065  14.359 -2.1756 -1.2552  0.8816
17422TIP3   OH273756   2.035   2.426   5.068 -0.0867  0.1689 -0.0961
17422TIP3    H173757   1.955   2.431   5.121  0.4180 -0.6399  0.7780
17422TIP3    H273758   2.067   2.516   5.063  0.5774  0.1185  2.1693
17423TIP3   OH273759   6.480   6.569   4.058  0.1528 -0.1131 -0.2492
17423TIP3    H173760   6.490   6.663   4.043  0.8906 -0.2410 -0.5580
17423TIP3    H273761   6.486   6.559   4.153 -0.1050  0.1702 -0.2018
17424TIP3   OH273762   3.445   6.455   1.492  0.3187  0.0160 -0.6168
17424TIP3    H173763   3.456   6.387   1.558  1.1964  1.2497  0.5792
17424TIP3    H273764   3.428   6.408   1.411 -1.8345 -1.5430  0.6482
17425TIP3   OH273765   0.478   4.101  12.944  0.0436  0.0059  0.5978
17425TIP3    H173766   0.545   4.033  12.940 -0.0325  0.0009 -1.2403
17425TIP3    H273767   0.521   4.180  12.912 -1.5482 -0.7147 -4.1127
17426TIP3   OH273768   3.326   3.846  17.100  0.4403  0.1754  0.5706
17426TIP3    H173769   3.271   3.831  17.023 -0.8447  1.1357  1.2656
17426TIP3    H273770   3.392   3.776  17.096 -0.6996 -0.8972 -0.4083
17427TIP3   OH273771   2.319   1.695   6.331 -0.4705  0.1446 -0.4526
17427TIP3    H173772   2.225   1.712   6.339 -0.4991 -0.5444  1.2516
17427TIP3    H273773   2.334   1.621   6.390  0.8290 -1.0187 -2.1439
17428TIP3   OH273774   0.974   1.114  14.922 -0.1463 -0.5491  0.1250
17428TIP3    H173775   1.037   1.110  14.994  2.1108  0.4977 -1.6600
17428TIP3    H273776   0.936   1.201  14.929  0.2848 -0.3384 -0.0704
17429TIP3   OH273777   1.169   5.367  17.125 -0.8659 -0.4668  0.6083
17429TIP3    H173778   1.183   5.344  17.033 -0.9654  1.5228  0.0396
17429TIP3    H273779   1.235   5.318  17.173  0.0432 -0.5439 -0.6741
17430TIP3   OH273780   4.204   3.583   2.695  0.1600 -0.2957 -0.4405
17430TIP3    H173781   4.257   3.578   2.775  0.4120  0.7173 -0.5373
17430TIP3    H273782   4.266   3.564   2.625  0.1969 -0.0224 -0.4828
17431TIP3   OH273783   5.159   6.606   2.245  0.2771 -0.2378 -0.3950
17431TIP3    H173784   5.109   6.528   2.268  0.6484 -0.6924 -1.0912
17431TIP3    H273785   5.232   6.573   2.193 -0.5812  0.7455 -2.3168
17432TIP3   OH273786   6.016   2.345   2.738 -0.0366  0.3476 -0.0102
17432TIP3    H173787   6.012   2.338   2.833  0.0273  1.3248  0.0727
17432TIP3    H273788   5.944   2.403   2.714  0.2976  0.5711 -0.5016
17433TIP3   OH273789   5.257   6.739  13.373 -0.2521  0.3618  0.7041
17433TIP3    H173790   5.167   6.714  13.392 -1.1171  0.6147 -2.5195
17433TIP3    H273791   5.254   6.834  13.364  0.4696  0.4355  1.1896
17434TIP3   OH273792   2.279   2.176   5.244 -0.1263  0.1925  0.6214
17434TIP3    H173793   2.351   2.171   5.181  0.4651  0.3224  1.2774
17434TIP3    H273794   2.200   2.168   5.191  0.3921 -2.2987  0.1108
17435TIP3   OH273795   5.214   0.911  13.900  0.4751  0.1837  0.1778
17435TIP3    H173796   5.236   0.823  13.870  0.7184  0.2122  0.2760
17435TIP3    H273797   5.176   0.899  13.987  0.6323  0.1878  0.2476
17436TIP3   OH273798   2.553   3.780   1.585 -0.2564  0.1127 -0.1251
17436TIP3    H173799   2.562   3.785   1.680 -0.3183  1.1884 -0.1704
17436TIP3    H273800   2.632   3.821   1.551 -1.4884  2.2814 -0.5159
17437TIP3   OH273801   6.402   3.369   2.017  0.4405 -0.1247 -0.2877
17437TIP3    H173802   6.451   3.324   1.949  0.9094  0.3702 -0.2773
17437TIP3    H273803   6.423   3.321   2.097 -0.7245 -1.2004 -0.5840
17438TIP3   OH273804   6.002   2.779  16.273  0.3539  0.2135 -0.2186
17438TIP3    H173805   5.956   2.826  16.204 -0.9337 -2.0599 -1.0011
17438TIP3    H273806   5.972   2.821  16.354  1.6702  2.7218 -0.9399
17439TIP3   OH273807   5.885   4.022  11.424  0.2885  0.3940  0.1756
17439TIP3    H173808   5.909   4.089  11.489 -0.6364  0.2500  0.6885
17439TIP3    H273809   5.957   4.024  11.360  0.8544  1.0580  0.8037
17440TIP3   OH273810   2.441   1.608  15.155 -0.0488  0.2968  0.1379
17440TIP3    H173811   2.422   1.557  15.233  0.3138 -0.9697 -0.5717
17440TIP3    H273812   2.487   1.547  15.097  0.2880  1.3999 -0.7923
17441TIP3   OH273813   3.081   2.481   5.729  0.0755  0.1050 -0.5663
17441TIP3    H173814   2.995   2.478   5.770  1.0082 -1.9264  1.4426
17441TIP3    H273815   3.063   2.473   5.635 -1.8737 -1.6245 -0.0979
17442TIP3   OH273816   5.310   5.237   2.110 -0.0681  0.1202  0.6282
17442TIP3    H173817   5.279   5.327   2.118 -0.8750 -0.1795  1.0151
17442TIP3    H273818   5.234   5.188   2.078  0.5259 -0.3284 -0.1153
17443TIP3   OH273819   4.561   3.794   5.197  0.2782  0.0791  0.1753
17443TIP3    H173820   4.602   3.757   5.275  0.2615  0.9599  0.6194
17443TIP3    H273821   4.470   3.764   5.201  0.1920  0.4027  0.6800
17444TIP3   OH273822   3.186   6.206  14.550  0.3498 -0.3753 -0.2700
17444TIP3    H173823   3.225   6.122  14.524 -1.2728 -1.5141  0.8026
17444TIP3    H273824   3.105   6.211  14.500  0.4660  0.6055 -0.3746
17445TIP3   OH273825   0.625   3.321   4.214 -0.2602 -0.2616  0.4382
17445TIP3    H173826   0.532   3.308   4.236 -0.1867  0.4896  1.2421
17445TIP3    H273827   0.673   3.276   4.283 -0.0320  1.1472  1.2457
17446TIP3   OH273828   1.510   6.759  15.401 -0.4757  0.4244 -0.2851
17446TIP3    H173829   1.529   6.681  15.452 -0.4929  1.1092  0.7997
17446TIP3    H273830   1.576   6.823  15.429  0.0169  0.5667 -1.7163
17447TIP3   OH273831   4.229   5.542  13.217 -0.5843 -0.3867  0.2572
17447TIP3    H173832   4.216   5.579  13.130  0.7258 -0.3044  0.0733
17447TIP3    H273833   4.222   5.617  13.276  1.4649  0.1088 -0.0635
17448TIP3   OH273834   3.101   5.694   4.604 -0.6234 -0.0834 -0.6260
17448TIP3    H173835   3.078   5.604   4.629 -2.4335  0.2958 -0.7974
17448TIP3    H273836   3.025   5.726   4.556 -0.8832  2.2166  1.1079
17449TIP3   OH273837   5.626   5.095   1.323 -0.5169 -0.8180  0.2273
17449TIP3    H173838   5.566   5.169   1.325  0.3288 -0.1249  1.1581
17449TIP3    H273839   5.615   5.053   1.408 -1.0885 -1.8662 -0.3453
17450TIP3   OH273840   2.481   5.038  15.334  0.2924 -0.0009  0.3187
17450TIP3    H173841   2.464   4.955  15.378  1.8050 -0.0600  0.8705
17450TIP3    H273842   2.433   5.033  15.252 -2.5405  0.0549  1.8540
17451TIP3   OH273843   0.522   3.990   0.548 -0.0268  0.0398 -0.2784
17451TIP3    H173844   0.488   4.077   0.530  3.3428  1.6184  0.2329
17451TIP3    H273845   0.547   3.955   0.463 -2.2651 -0.9284 -0.5991
17452TIP3   OH273846   4.545   1.339   0.017 -0.4409 -0.7566  0.0032
17452TIP3    H173847   4.599   1.392   0.075  0.5786 -0.0582 -1.4996
17452TIP3    H273848   4.462   1.330   0.062 -1.0493  3.0075 -0.0414
17453TIP3   OH273849   5.217   6.049   4.865  0.2243  0.4995  0.1773
17453TIP3    H173850   5.239   5.957   4.877  2.3398  1.2338  2.5854
17453TIP3    H273851   5.205   6.058   4.770  0.6385 -2.0684 -0.1941
17454TIP3   OH273852   0.365   2.457   2.037 -0.4874 -0.3168 -0.2019
17454TIP3    H173853   0.441   2.433   1.985 -1.0674 -1.6104 -0.4907
17454TIP3    H273854   0.325   2.530   1.989  1.7075  1.8491  1.0693
17455TIP3   OH273855   5.869   2.838   1.567  0.3814  0.1385  0.2095
17455TIP3    H173856   5.912   2.815   1.649  0.6117 -0.9187 -0.1911
17455TIP3    H273857   5.903   2.775   1.504  0.1510  0.8947 -0.6811
17456TIP3   OH273858   0.377   0.107   3.521  0.2715 -0.3140 -0.4459
17456TIP3    H173859   0.288   0.125   3.552 -0.0383 -2.4054  0.0155
17456TIP3    H273860   0.385   0.158   3.441 -0.6431  1.4142  0.5129
17457TIP3   OH273861   2.900   2.103  14.766  0.2009 -0.0305  0.0761
17457TIP3    H173862   2.910   2.102  14.671  2.5136 -0.3042  0.2646
17457TIP3    H273863   2.987   2.127  14.799 -0.7980  1.0591  2.1069
17458TIP3   OH273864   4.038   0.209  14.836 -0.1090 -0.0484 -0.2852
17458TIP3    H173865   4.047   0.204  14.931 -1.2833  1.6285 -0.0463
17458TIP3    H273866   3.944   0.219  14.821 -0.2170 -2.4595 -1.7871
17459TIP3   OH273867   5.037   1.605   2.749  0.4473 -0.1639  0.1795
17459TIP3    H173868   5.038   1.539   2.680  1.3003 -1.1670  1.1117
17459TIP3    H273869   4.944   1.614   2.771 -0.0985  1.6888 -2.4295
17460TIP3   OH273870   2.403   1.787  12.568  0.2515  0.7549 -0.6133
17460TIP3    H173871   2.377   1.809  12.479 -1.9256 -0.0051 -0.2317
17460TIP3    H273872   2.405   1.691  12.569  1.3868  0.7725 -0.1311
17461TIP3   OH273873   1.628   5.822  13.697 -0.1390  1.2118 -0.1256
17461TIP3    H173874   1.656   5.832  13.606 -1.8134 -0.2612 -0.8740
17461TIP3    H273875   1.573   5.898  13.714  0.6025  1.7641 -0.1526
17462TIP3   OH273876   1.689   0.528  13.240 -0.2801  0.8640  0.1084
17462TIP3    H173877   1.690   0.435  13.217 -2.9919  1.1545 -1.5602
17462TIP3    H273878   1.714   0.573  13.159  1.1331  1.6625  0.9314
17463TIP3   OH273879   2.011   0.225   5.765  0.8906 -0.5885 -0.6198
17463TIP3    H173880   1.961   0.207   5.685  0.0514 -1.0890 -0.0117
17463TIP3    H273881   2.102   0.208   5.742  1.0995  2.1369 -2.3075
17464TIP3   OH273882   0.068   0.106  13.361  0.0065  0.0891  0.1974
17464TIP3    H173883  -0.018   0.065  13.369 -0.4764  1.0144 -0.0993
17464TIP3    H273884   0.129   0.033  13.357 -0.9458 -0.6889 -1.8257
17465TIP3   OH273885   1.656   6.805   3.232 -0.1445  0.3921 -0.3304
17465TIP3    H173886   1.728   6.745   3.213 -1.7116 -2.8197  2.5913
17465TIP3    H273887   1.581   6.768   3.185 -0.7448  1.2470 -0.0746
17466TIP3   OH273888   4.891   3.436   5.774  0.1386  0.1470 -0.4836
17466TIP3    H173889   4.888   3.379   5.850 -2.2330  0.5262 -0.2269
17466TIP3    H273890   4.980   3.426   5.740  0.6201 -1.5738  1.1322
17467TIP3   OH273891   2.456   3.115   4.049  0.2264 -0.8762  0.0123
17467TIP3    H173892   2.463   3.084   3.959 -2.4280  0.2390 -0.6754
17467TIP3    H273893   2.454   3.210   4.042 -1.5274 -0.7897  1.0333
17468TIP3   OH273894   4.937   6.255   0.474  0.1322  0.3503 -0.3490
17468TIP3    H173895   4.874   6.287   0.410  0.2559 -0.0726 -0.6829
17468TIP3    H273896   4.886   6.245   0.555  0.1007  1.4125 -0.2284
17469TIP3   OH273897   1.673   3.215  15.977  0.3472  0.0797  0.5110
17469TIP3    H173898   1.626   3.132  15.982  1.1996 -0.4197  0.4764
17469TIP3    H273899   1.671   3.239  15.885  0.3984 -0.0809  0.4683
17470TIP3   OH273900   5.444   2.185   3.140 -0.2820  0.1934  0.5581
17470TIP3    H173901   5.400   2.141   3.213 -1.1465 -0.6045 -0.4059
17470TIP3    H273902   5.378   2.246   3.106  0.2956  0.9430  0.7676
17471TIP3   OH273903   1.036   3.734   6.064 -0.5331  0.1295  0.2908
17471TIP3    H173904   0.978   3.658   6.052 -1.6879  1.1247 -0.8151
17471TIP3    H273905   1.063   3.757   5.975  2.4533 -0.9032  0.8450
17472TIP3   OH273906   3.548   3.752  15.901 -0.2514 -0.3106 -0.2393
17472TIP3    H173907   3.468   3.765  15.852  1.2289  2.0835 -2.3038
17472TIP3    H273908   3.548   3.822  15.967  0.4768  0.2526 -0.8123
17473TIP3   OH273909   4.390   0.674   1.148 -0.0282 -0.3427 -0.2037
17473TIP3    H173910   4.423   0.596   1.102  0.3697  0.0495 -0.5913
17473TIP3    H273911   4.455   0.742   1.130 -1.8305  0.9427 -2.4338
17474TIP3   OH273912   1.964   6.145   6.441 -0.0840  0.5223 -0.0752
17474TIP3    H173913   1.947   6.055   6.413  2.5025 -0.8999  2.3019
17474TIP3    H273914   2.054   6.162   6.414 -0.4365  2.3299 -0.2403
17475TIP3   OH273915   3.674   3.962  16.955  0.8266  0.3933  0.0447
17475TIP3    H173916   3.742   3.994  17.014 -0.9991  1.9770  1.3903
17475TIP3    H273917   3.623   3.900  17.007 -0.3742  1.2591 -0.0809
17476TIP3   OH273918   5.001   2.193   3.968 -0.7626 -0.1746 -0.3697
17476TIP3    H173919   5.076   2.142   3.936 -1.0437 -1.2578  0.6509
17476TIP3    H273920   5.036   2.281   3.982 -0.2110 -0.1165 -1.9221
17477TIP3   OH273921   0.053   1.602  16.833 -0.0476 -0.1160 -0.0737
17477TIP3    H173922   0.115   1.657  16.881  0.6151 -0.5043 -0.4760
17477TIP3    H273923  -0.033   1.636  16.859  0.3406  1.9880 -1.2827
17478TIP3   OH273924   0.647   2.229  15.054 -0.1048  0.4299 -0.2543
17478TIP3    H173925   0.638   2.206  14.962  0.1976  1.4842 -0.5644
17478TIP3    H273926   0.643   2.146  15.101  0.6893 -0.2086 -1.2933
17479TIP3   OH273927   0.029   0.714   2.950 -0.2234  0.0052 -0.3375
17479TIP3    H173928   0.044   0.786   2.889 -0.6001 -0.5716 -1.1299
17479TIP3    H273929   0.023   0.636   2.894  1.7690 -0.8917  0.6210
17480TIP3   OH273930   2.878   3.327   4.543  0.2750 -0.3764 -0.0744
17480TIP3    H173931   2.897   3.371   4.460  2.2664  1.4738  1.2501
17480TIP3    H273932   2.813   3.382   4.586  0.1722 -0.6602  0.1414
17481TIP3   OH273933   6.452   2.275  12.272  0.2333  0.7196  0.6700
17481TIP3    H173934   6.413   2.316  12.349 -0.5375 -1.5254  1.5535
17481TIP3    H273935   6.466   2.184  12.298 -0.0714 -0.1114 -1.8382
17482TIP3   OH273936   4.426   2.825  11.565 -0.1527  0.1340 -1.0619
17482TIP3    H173937   4.357   2.762  11.583 -1.1688  1.3595 -0.4568
17482TIP3    H273938   4.506   2.784  11.598 -0.8278 -0.7029 -0.4170
17483TIP3   OH273939   4.215   1.345   6.157  0.0503  0.4186 -0.0305
17483TIP3    H173940   4.225   1.437   6.131  0.6095  0.4860  0.4118
17483TIP3    H273941   4.272   1.335   6.233  1.1622 -0.6956 -0.9773
17484TIP3   OH273942   3.805   6.147  14.570  0.1575  0.1501 -0.0572
17484TIP3    H173943   3.841   6.232  14.596  0.7734  0.7365 -2.5719
17484TIP3    H273944   3.879   6.086  14.575  0.3239  0.3048 -0.5945
17485TIP3   OH273945   1.481   3.266   3.036 -0.4724 -0.2870  0.0255
17485TIP3    H173946   1.422   3.288   2.964 -0.3396 -0.9422 -0.2877
17485TIP3    H273947   1.525   3.348   3.057  1.1125 -0.5261 -2.1066
17486TIP3   OH273948   3.522   0.981  16.853 -0.2554 -0.2778 -0.4178
17486TIP3    H173949   3.451   0.921  16.872 -3.3114  2.6578 -1.4717
17486TIP3    H273950   3.510   1.004  16.761  2.4408 -0.0165 -0.7960
17487TIP3   OH273951   4.560   0.314  13.835  0.2138 -0.5218 -0.0825
17487TIP3    H173952   4.581   0.353  13.750 -1.2490 -1.7906 -1.0866
17487TIP3    H273953   4.536   0.389  13.890 -1.2803  0.1782 -1.5708
17488TIP3   OH273954   5.575   5.806  13.017  0.2281 -0.5760  0.3976
17488TIP3    H173955   5.537   5.801  12.929 -0.8119  2.0749  0.5994
17488TIP3    H273956   5.670   5.807  13.002  0.0857  1.9835 -0.9806
17489TIP3   OH273957   3.422   2.026  11.802  0.0386 -0.7115  0.0917
17489TIP3    H173958   3.471   2.061  11.876 -1.1343 -0.9674  1.0096
17489TIP3    H273959   3.460   1.939  11.787 -0.2480 -0.9838  0.9120
17490TIP3   OH273960   4.539   1.813  15.414  0.3073 -0.1092  0.4459
17490TIP3    H173961   4.498   1.736  15.454  0.8053  0.0490  1.2735
17490TIP3    H273962   4.475   1.883  15.426 -1.3452 -0.8737 -2.6007
17491TIP3   OH273963   5.517   2.587   2.738  0.2035 -0.1213  0.5037
17491TIP3    H173964   5.514   2.524   2.666 -0.0906 -2.2644  2.2585
17491TIP3    H273965   5.606   2.621   2.737 -0.3102  1.3630 -1.9732
17492TIP3   OH273966   5.311   4.274   3.863  0.2878  0.0482 -0.2516
17492TIP3    H173967   5.325   4.367   3.844 -0.7102 -0.1068 -2.0336
17492TIP3    H273968   5.254   4.274   3.940 -1.7658  1.0445 -1.6758
17493TIP3   OH273969   6.770   0.043  12.916 -0.1224  0.2773 -0.1406
17493TIP3    H173970   6.797  -0.010  12.991 -1.2219  0.9820  0.7953
17493TIP3    H273971   6.695  -0.005  12.879  0.4334 -0.0838 -0.8403
17494TIP3   OH273972   1.986   0.015  13.793  0.0321  0.5026 -0.4310
17494TIP3    H173973   1.891   0.004  13.792  0.1058 -0.2298 -0.0962
17494TIP3    H273974   2.018  -0.056  13.850  0.9750 -0.9302 -2.5947
17495TIP3   OH273975   4.942   1.321   1.385  0.2509  0.5461  0.0674
17495TIP3    H173976   4.878   1.387   1.358 -0.4448 -0.3104 -0.3945
17495TIP3    H273977   5.003   1.315   1.312 -0.8417 -0.7658 -0.7791
17496TIP3   OH273978   2.436   4.237  12.266 -0.1801  0.2799 -0.3167
17496TIP3    H173979   2.451   4.159  12.212  1.5260  0.3895 -0.0296
17496TIP3    H273980   2.508   4.296  12.244 -0.6827  1.2236  0.4943
17497TIP3   OH273981   5.687   1.812   2.161  0.2650 -0.2787 -0.2249
17497TIP3    H173982   5.632   1.783   2.088  2.2028 -0.8266 -1.5502
17497TIP3    H273983   5.625   1.834   2.231 -1.7153  0.8484 -2.2019
17498TIP3   OH273984   2.911   1.393   5.520 -0.5474 -0.0735  0.8771
17498TIP3    H173985   2.832   1.339   5.519 -0.3961 -0.3619 -1.4799
17498TIP3    H273986   2.976   1.342   5.472 -0.1885  1.8379 -0.8502
17499TIP3   OH273987   0.976   2.409   1.901  0.2331  0.3965 -0.1739
17499TIP3    H173988   1.021   2.492   1.885  2.3341 -0.8375 -1.0204
17499TIP3    H273989   0.930   2.391   1.819  0.2619  0.4212 -0.1953
17500TIP3   OH273990   3.574   5.548  15.693  0.1838 -0.4568 -0.0113
17500TIP3    H173991   3.490   5.586  15.669  0.6806  0.7770  0.1533
17500TIP3    H273992   3.559   5.453  15.691 -1.4151 -0.2515  0.7947
17501TIP3   OH273993   1.426   6.363   4.401 -0.2569  0.9550 -0.2969
17501TIP3    H173994   1.508   6.319   4.422 -0.3736  0.8049 -0.1442
17501TIP3    H273995   1.367   6.337   4.471 -0.4586  0.9960 -0.4506
17502TIP3   OH273996   1.980   5.560   1.234  0.0869  0.0767  0.0998
17502TIP3    H173997   1.914   5.494   1.255  0.2647 -0.0212  0.3575
17502TIP3    H273998   2.056   5.509   1.204  0.6097  0.0896  1.3308
17503TIP3   OH273999   2.237   4.260   4.664 -0.6369 -0.5294  0.2009
17503TIP3    H174000   2.147   4.231   4.646 -0.3470 -0.8059 -0.8585
17503TIP3    H274001   2.238   4.278   4.758 -2.0287  0.2625  0.0951
17504TIP3   OH274002   4.676   5.974  11.203  0.3567  0.4560 -0.2347
17504TIP3    H174003   4.687   6.040  11.271  1.5247 -0.6143  0.6565
17504TIP3    H274004   4.593   5.930  11.224  1.2179 -0.5700  1.1497
17505TIP3   OH274005   1.409   4.061  15.723  0.6298 -0.0589  0.3086
17505TIP3    H174006   1.423   4.045  15.816 -0.9772  2.9872  1.2112
17505TIP3    H274007   1.497   4.063  15.685  1.4009 -0.1383  2.0085
17506TIP3   OH274008   4.660   2.232  12.180 -0.3632  0.0501  0.5695
17506TIP3    H174009   4.671   2.138  12.195  0.1190  0.1426  0.8125
17506TIP3    H274010   4.569   2.241  12.151 -0.5851 -0.4168  1.1041
17507TIP3   OH274011   4.273   0.446  15.045  0.4897 -0.5133 -0.6503
17507TIP3    H174012   4.354   0.497  15.036  1.0573 -1.5658 -1.7035
17507TIP3    H274013   4.240   0.437  14.956 -0.5444 -0.4880 -0.2748
17508TIP3   OH274014   5.433   1.779  11.704  0.4039  0.0073 -0.3211
17508TIP3    H174015   5.437   1.745  11.614  1.4104  0.1221 -0.3301
17508TIP3    H274016   5.458   1.705  11.759  0.9338  0.2552 -0.2220
17509TIP3   OH274017   5.177   6.080  11.676  0.1008  0.3882 -0.3614
17509TIP3    H174018   5.260   6.110  11.713  1.2522 -3.0954  0.2727
17509TIP3    H274019   5.112   6.142  11.709  1.9893  1.2285  2.0696
17510TIP3   OH274020   4.239   2.771   2.622 -0.3407  0.3559 -0.3070
17510TIP3    H174021   4.278   2.743   2.539 -1.5672  1.0201 -1.1249
17510TIP3    H274022   4.154   2.807   2.598  0.2835  2.8727  0.9184
17511TIP3   OH274023   4.752   4.930  14.437 -0.1202  0.3448  0.5537
17511TIP3    H174024   4.757   5.010  14.384  1.1899  0.4014  0.7180
17511TIP3    H274025   4.843   4.902  14.445 -0.4126 -0.2698  1.8626
17512TIP3   OH274026   3.616   4.150  14.624  0.5202 -0.0038  0.1605
17512TIP3    H174027   3.521   4.162  14.621  0.4534 -0.4834  0.3604
17512TIP3    H274028   3.629   4.080  14.688  1.0575  0.5947  0.7214
17513TIP3   OH274029   0.035   3.049  12.641  0.3571 -0.3160 -0.1038
17513TIP3    H174030   0.015   3.074  12.731  0.3498 -1.1673  0.1384
17513TIP3    H274031  -0.010   2.966  12.628 -0.8707  0.5121 -1.3912
17514TIP3   OH274032   3.436   3.288   5.906  0.1022 -0.2314  0.2616
17514TIP3    H174033   3.471   3.367   5.949  0.5597 -0.1139 -0.3167
17514TIP3    H274034   3.458   3.217   5.965 -0.4940  0.0887  0.8922
17515TIP3   OH274035   0.282   3.389   0.070 -0.0483 -0.0986  0.5752
17515TIP3    H174036   0.224   3.433   0.132  1.2055  1.4663  0.7054
17515TIP3    H274037   0.344   3.457   0.043  1.6817 -1.6658  0.4089
17516TIP3   OH274038   0.377   4.430  10.970  0.2024 -0.5225  0.9281
17516TIP3    H174039   0.307   4.414  10.907  1.3553 -3.3421  0.2058
17516TIP3    H274040   0.390   4.346  11.014  3.4477 -0.3087  0.6412
17517TIP3   OH274041   4.388   4.942  13.262  0.5540  0.0359 -0.5871
17517TIP3    H174042   4.321   4.874  13.257 -0.0798  0.4206  1.8144
17517TIP3    H274043   4.463   4.899  13.302  0.6049  0.4139 -0.2701
17518TIP3   OH274044   1.717   4.918   3.322  0.6384  0.3472 -0.8681
17518TIP3    H174045   1.770   4.925   3.243  1.3036 -0.4437 -0.5110
17518TIP3    H274046   1.698   4.825   3.330  0.4514  0.4379 -0.1847
17519TIP3   OH274047   3.253   0.965  15.863 -0.2842 -0.4085 -0.3237
17519TIP3    H174048   3.168   0.921  15.863 -1.3272  1.4874 -1.4040
17519TIP3    H274049   3.290   0.948  15.777 -0.1920 -0.1009 -0.3484
17520TIP3   OH274050   2.021   4.987  12.081  0.0405 -0.1736  0.0282
17520TIP3    H174051   2.077   4.950  12.013 -1.0165  0.5898 -1.3164
17520TIP3    H274052   2.068   5.065  12.111  1.0054 -1.0786  0.9672
17521TIP3   OH274053   6.507   6.597  11.357 -0.3513 -0.2398 -0.2704
17521TIP3    H174054   6.586   6.546  11.372  0.0357  0.5131  0.2856
17521TIP3    H274055   6.436   6.543  11.392 -0.4343 -2.0179 -2.9022
17522TIP3   OH274056   0.562   1.288  11.199 -0.0613 -0.4429 -0.4871
17522TIP3    H174057   0.582   1.197  11.220  0.1238 -0.5392 -1.0618
17522TIP3    H274058   0.491   1.282  11.135 -0.3101 -0.1704 -0.2375
17523TIP3   OH274059   0.398   5.511  15.143 -0.1181  0.6778 -0.0789
17523TIP3    H174060   0.400   5.566  15.065 -0.4658 -1.5063 -1.7457
17523TIP3    H274061   0.311   5.470  15.141  0.8894 -1.6267 -0.2581
17524TIP3   OH274062   3.958   3.802   5.153 -0.3079 -0.2108  0.2432
17524TIP3    H174063   3.928   3.875   5.206  1.1279  0.9120 -0.4068
17524TIP3    H274064   4.005   3.745   5.214  1.3013  1.0506  0.2386
17525TIP3   OH274065   1.018   3.397   4.387  0.1188  0.0339  0.2502
17525TIP3    H174066   1.095   3.391   4.330 -0.6500  3.1382 -1.3627
17525TIP3    H274067   0.966   3.319   4.365  1.6233 -0.8137 -0.4664
17526TIP3   OH274068   5.976   6.233   3.033 -0.4619 -0.8609 -0.0149
17526TIP3    H174069   6.066   6.241   3.002 -0.4522 -0.6250  0.0726
17526TIP3    H274070   5.985   6.215   3.127 -0.5277  1.2470  0.4509
17527TIP3   OH274071   0.022   3.158   5.618 -0.1124 -0.4277 -0.1396
17527TIP3    H174072   0.071   3.124   5.693 -0.1319 -0.2540 -0.0482
17527TIP3    H274073   0.085   3.214   5.573 -0.4343  0.3594  0.3680
17528TIP3   OH274074   1.638   5.877   0.085 -0.0949  0.3741  0.0234
17528TIP3    H174075   1.687   5.919   0.156  0.7381  0.6869 -0.7217
17528TIP3    H274076   1.699   5.814   0.047 -1.2787 -1.4618  1.0248
17529TIP3   OH274077   6.803   1.160   4.928  0.3393  0.3612  0.4803
17529TIP3    H174078   6.844   1.201   4.851  0.5753 -1.5679 -0.4975
17529TIP3    H274079   6.794   1.068   4.903 -0.7680 -0.0664  2.3073
17530TIP3   OH274080   2.767   2.303  12.790  0.0304 -0.2899 -0.0056
17530TIP3    H174081   2.756   2.394  12.817 -0.1821  0.0127 -1.0657
17530TIP3    H274082   2.756   2.252  12.870 -0.7884  0.5608  0.4299
17531TIP3   OH274083   3.536   5.899   1.955  0.1802 -0.0114  0.2295
17531TIP3    H174084   3.497   5.945   2.029  0.1221 -0.7432  0.6583
17531TIP3    H274085   3.521   5.807   1.973 -0.1957 -0.1834 -0.9012
17532TIP3   OH274086   0.383   3.176   0.755 -0.2791 -0.5242 -0.0990
17532TIP3    H174087   0.372   3.140   0.843  3.0791 -0.1405  0.6253
17532TIP3    H274088   0.419   3.103   0.705 -1.6074 -0.5624 -1.0568
17533TIP3   OH274089   0.760   1.991  13.876 -0.5470  0.2291 -0.1500
17533TIP3    H174090   0.741   2.045  13.953  0.8751 -0.3166  0.6091
17533TIP3    H274091   0.793   2.053  13.812 -2.2289  0.7749 -0.5621
17534TIP3   OH274092   6.480   1.902  12.683  0.3374  0.2267  0.1150
17534TIP3    H174093   6.499   1.982  12.732 -0.8289  0.2645  0.5312
17534TIP3    H274094   6.566   1.865  12.664  0.8680  1.1774  0.5830
17535TIP3   OH274095   1.217   3.409  12.506  0.3489  0.0904  0.0087
17535TIP3    H174096   1.234   3.345  12.576 -0.8773 -0.3828 -0.1067
17535TIP3    H274097   1.280   3.479  12.522 -1.4333  1.1374  3.0090
17536TIP3   OH274098   4.993   5.039  12.138  0.6992 -0.6139 -0.8514
17536TIP3    H174099   5.079   5.019  12.176  0.4796 -0.4435 -0.2659
17536TIP3    H274100   4.948   5.090  12.205  0.6677  0.5362 -1.7226
17537TIP3   OH274101   6.025   5.348  16.835 -0.0469  0.1427  0.5561
17537TIP3    H174102   6.079   5.419  16.869  1.6717 -0.3644 -0.9659
17537TIP3    H274103   6.029   5.357  16.740 -1.8444 -0.5332  0.3738
17538TIP3   OH274104   6.174   5.522   0.723  0.1037 -0.0033  0.1518
17538TIP3    H174105   6.119   5.500   0.647  0.3564  2.9124 -0.9973
17538TIP3    H274106   6.259   5.483   0.703 -0.1797 -0.3419 -0.4486
17539TIP3   OH274107   5.924   1.468   4.348  0.4217  0.0221  0.1887
17539TIP3    H174108   5.861   1.398   4.362 -0.9476  1.1658 -0.0608
17539TIP3    H274109   5.915   1.525   4.425 -1.4771  2.0930 -1.4157
17540TIP3   OH274110   4.671   5.393  15.233 -0.2342  0.2455 -0.2743
17540TIP3    H174111   4.670   5.479  15.275 -1.2695 -0.7072  1.7774
17540TIP3    H274112   4.592   5.392  15.179  0.7715  1.2370 -1.8475
17541TIP3   OH274113   2.236   1.196   1.114 -0.0446  1.0503 -0.0186
17541TIP3    H174114   2.331   1.195   1.100 -0.1402  0.2106 -0.7664
17541TIP3    H274115   2.202   1.140   1.043 -1.2945  3.2060 -1.2147
17542TIP3   OH274116   1.949   2.342  13.449  0.0398  0.1566 -0.1905
17542TIP3    H174117   2.005   2.278  13.492  1.4824  1.3557 -0.1863
17542TIP3    H274118   1.995   2.363  13.367  0.5736  2.4774  0.6202
17543TIP3   OH274119   6.116   6.260  11.759 -0.1033  0.2558 -0.2885
17543TIP3    H174120   6.117   6.165  11.752  0.9862  0.3069 -1.1450
17543TIP3    H274121   6.076   6.291  11.678 -2.1037  0.5214  0.7322
17544TIP3   OH274122   3.429   3.198  15.806  0.1187 -0.3607 -0.4619
17544TIP3    H174123   3.450   3.291  15.798  0.2192 -0.1752  1.5365
17544TIP3    H274124   3.442   3.163  15.718 -0.4788  1.6146 -1.3992
17545TIP3   OH274125   5.204   4.304   2.704  0.5058  0.1652  0.7163
17545TIP3    H174126   5.117   4.343   2.711  0.5663  0.2196  1.1627
17545TIP3    H274127   5.219   4.298   2.610 -0.2692 -0.4783  0.6196
17546TIP3   OH274128   6.291   6.581  16.710  0.3012 -0.1885 -0.2624
17546TIP3    H174129   6.313   6.633  16.787  1.7707 -0.9045 -0.1655
17546TIP3    H274130   6.246   6.504  16.746  1.6947 -0.9146 -0.0120
17547TIP3   OH274131   3.502   1.444  14.652  0.4016 -0.4092 -0.1204
17547TIP3    H174132   3.459   1.498  14.586  0.4966  1.2785  1.1467
17547TIP3    H274133   3.463   1.357  14.641 -0.2238  0.0539 -1.7844
17548TIP3   OH274134   1.568   6.462   2.169  0.0749  0.5600 -0.1617
17548TIP3    H174135   1.589   6.449   2.076 -0.9147  0.4857 -0.3837
17548TIP3    H274136   1.564   6.557   2.179  2.7405  0.6790  0.4161
17549TIP3   OH274137   6.764   0.691  13.294  0.3904 -0.2619  0.0641
17549TIP3    H174138   6.824   0.714  13.365  0.6903  1.5101 -0.7058
17549TIP3    H274139   6.748   0.774  13.249  0.6554 -1.4263 -2.2932
17550TIP3   OH274140   4.040   5.156  13.215  0.2016 -0.0178  0.2978
17550TIP3    H174141   4.106   5.144  13.147 -1.7967 -0.0798 -1.7400
17550TIP3    H274142   3.996   5.071  13.220 -0.6308  0.4298  0.6151
17551TIP3   OH274143   6.453   6.793   1.709  0.0664  0.0349 -0.3906
17551TIP3    H174144   6.543   6.809   1.737 -0.5832  1.9929  0.7284
17551TIP3    H274145   6.401   6.805   1.788 -1.3384  0.5596 -1.3620
17552TIP3   OH274146   1.242   5.192  13.884 -0.5074 -0.3528  0.2045
17552TIP3    H174147   1.311   5.234  13.936 -0.4930 -0.4698  0.2802
17552TIP3    H274148   1.242   5.101  13.914  0.0428 -0.6154 -0.5683
17553TIP3   OH274149   2.227   2.792   2.024  0.6861  0.9426 -0.1936
17553TIP3    H174150   2.158   2.814   2.087 -0.1501 -1.6354 -0.1006
17553TIP3    H274151   2.309   2.805   2.072  0.1428  1.1141  0.7092
17554TIP3   OH274152   6.298   1.622   3.984 -0.2337  0.1328  0.1813
17554TIP3    H174153   6.348   1.591   4.060 -1.0501 -1.4806  0.1144
17554TIP3    H274154   6.207   1.599   4.005 -0.7479  1.4715 -0.4368
17555TIP3   OH274155   3.379   6.332  11.529 -0.0550 -0.1689 -0.4448
17555TIP3    H174156   3.439   6.386  11.477  1.0514 -2.1630 -1.3773
17555TIP3    H274157   3.297   6.333  11.479 -0.0173  0.5681 -0.4962
17556TIP3   OH274158   5.344   3.467  11.283 -0.3751 -0.5944  0.2080
17556TIP3    H174159   5.370   3.397  11.222 -1.5341 -1.5418  0.7460
17556TIP3    H274160   5.251   3.481  11.263  0.4404  2.9682 -1.9748
17557TIP3   OH274161   6.092   0.747   2.531  0.4613 -0.4991  0.6988
17557TIP3    H174162   6.015   0.792   2.495  0.3340 -0.4642  1.0115
17557TIP3    H274163   6.118   0.686   2.463  0.3414 -0.2920  0.4667
17558TIP3   OH274164   2.674   0.320   3.958 -0.5152 -0.2211  0.3073
17558TIP3    H174165   2.609   0.255   3.985  1.3088 -1.3756  2.2191
17558TIP3    H274166   2.684   0.377   4.034  1.3240 -0.6372  0.4226
17559TIP3   OH274167   0.622   1.262  15.749  0.6762 -0.2980  0.1004
17559TIP3    H174168   0.598   1.331  15.687  3.3847 -1.2289 -2.1988
17559TIP3    H274169   0.604   1.181  15.703 -0.4576 -1.1751  1.9487
17560TIP3   OH274170   4.803   1.541  11.728 -0.2751  0.6239 -0.1485
17560TIP3    H174171   4.811   1.450  11.757 -1.9799  0.3835 -0.2806
17560TIP3    H274172   4.788   1.591  11.808  1.7386  0.9925  0.0487
17561TIP3   OH274173   6.282   1.933  12.016  0.3351 -0.3706 -0.3141
17561TIP3    H174174   6.367   1.891  12.004 -0.7109 -2.5783 -0.5211
17561TIP3    H274175   6.295   2.023  11.986  2.4776 -0.7559 -0.6961
17562TIP3   OH274176   1.709   6.070   5.016  0.2556 -1.0975  0.2202
17562TIP3    H174177   1.659   6.000   5.058 -0.8540 -0.1375  0.5360
17562TIP3    H274178   1.728   6.132   5.087  1.1416 -1.0191 -0.0751
17563TIP3   OH274179   0.581   5.480  11.212  0.2940 -0.0175  0.1579
17563TIP3    H174180   0.497   5.508  11.177  0.0633  0.6504  1.1874
17563TIP3    H274181   0.557   5.425  11.288  0.7792 -0.6505 -0.1392
17564TIP3   OH274182   2.729   5.469  13.486  0.6731 -0.3910  0.0362
17564TIP3    H174183   2.818   5.481  13.451  0.8056  0.4128  0.6145
17564TIP3    H274184   2.678   5.539  13.444 -0.0069 -1.6145 -1.2766
17565TIP3   OH274185   0.454   4.219  16.964  0.0386 -0.0743  0.0658
17565TIP3    H174186   0.484   4.172  17.041 -1.5441  0.9821  1.3854
17565TIP3    H274187   0.535   4.248  16.921  0.9615  0.1470  1.8510
17566TIP3   OH274188   2.769   6.503   0.300 -0.0356 -0.0591  0.7894
17566TIP3    H174189   2.803   6.433   0.244 -0.5665  0.8017 -0.6601
17566TIP3    H274190   2.807   6.485   0.386  0.5403 -1.6161  0.2460
17567TIP3   OH274191   4.617   3.197   4.205 -0.0925  0.0295  0.4459
17567TIP3    H174192   4.615   3.108   4.170 -1.1475  0.3401 -0.3363
17567TIP3    H274193   4.687   3.195   4.270  0.4760 -1.1475 -0.1519
17568TIP3   OH274194   4.007   5.003  13.518  0.0507 -0.0253 -0.1713
17568TIP3    H174195   4.065   4.947  13.569  0.2255  0.4924  0.2061
17568TIP3    H274196   4.058   5.027  13.441  0.3825  0.5064  0.2063
17569TIP3   OH274197   0.419   2.706  15.423 -0.2833  0.0867 -0.1791
17569TIP3    H174198   0.392   2.675  15.509 -0.2163 -0.4017 -0.3292
17569TIP3    H274199   0.513   2.721  15.431 -0.1770 -0.4913 -0.3205
17570TIP3   OH274200   0.133   6.065  12.365 -0.3209  0.0419 -0.1418
17570TIP3    H174201   0.124   6.137  12.427 -0.9574  0.4751 -0.7246
17570TIP3    H274202   0.060   6.076  12.304 -2.1560 -2.7336  1.3483
17571TIP3   OH274203   4.699   2.993  14.931 -0.3254 -0.0602  0.3485
17571TIP3    H174204   4.681   2.941  15.009 -0.9866 -1.4605 -0.6932
17571TIP3    H274205   4.614   3.025  14.902 -0.4873 -1.7158 -1.2091
17572TIP3   OH274206   6.448   0.180   2.081 -0.0966 -0.1434  0.9222
17572TIP3    H174207   6.443   0.238   2.005 -1.0148 -0.3408  0.8248
17572TIP3    H274208   6.442   0.238   2.157  0.7890  0.0512  0.8608
17573TIP3   OH274209   6.652   3.350  16.485  0.6620  0.0079 -0.2616
17573TIP3    H174210   6.608   3.275  16.446  0.4975 -1.1849  2.0865
17573TIP3    H274211   6.608   3.364  16.569  0.4785  2.9510 -0.7353
17574TIP3   OH274212   0.144   1.971  12.683 -0.0744  0.2317  0.0033
17574TIP3    H174213   0.237   1.975  12.662  0.0795 -0.5668  0.5005
17574TIP3    H274214   0.139   1.999  12.775 -0.0315 -1.8711  0.6997
17575TIP3   OH274215   0.576   0.553   5.103  0.5679 -0.3382 -0.3460
17575TIP3    H174216   0.544   0.601   5.179  1.8183 -0.0606  0.0130
17575TIP3    H274217   0.638   0.489   5.138 -0.0026 -1.2649 -0.9755
17576TIP3   OH274218   5.367   2.395   2.867  0.9153  0.6662 -0.6908
17576TIP3    H174219   5.332   2.317   2.824 -0.0574  1.5728 -1.6316
17576TIP3    H274220   5.449   2.413   2.821  0.9449  0.4236 -0.7332
17577TIP3   OH274221   4.747   1.457  14.309  0.2040 -1.0861  0.3699
17577TIP3    H174222   4.762   1.468  14.403  3.2362  0.1804 -0.1250
17577TIP3    H274223   4.685   1.526  14.286  1.1751  0.0711  1.1201
17578TIP3   OH274224   6.606   0.779   5.222 -0.4835 -0.3180 -0.0573
17578TIP3    H174225   6.669   0.819   5.282 -0.4045 -0.4007 -0.0855
17578TIP3    H274226   6.526   0.829   5.235 -0.2962  0.0520 -0.3190
17579TIP3   OH274227   5.289   3.599   1.412 -0.4299 -0.7830 -0.2911
17579TIP3    H174228   5.295   3.507   1.387  0.0438 -1.0716  0.7887
17579TIP3    H274229   5.283   3.597   1.508  0.6507  0.3342 -0.1740
17580TIP3   OH274230   5.213   4.530  16.278 -0.1687  0.0548  0.1113
17580TIP3    H174231   5.187   4.621  16.294  1.1836  0.1494  2.1126
17580TIP3    H274232   5.308   4.532  16.275 -0.0689 -1.4085  1.1591
17581TIP3   OH274233   3.235   0.215   3.296  0.6447  0.6054  0.3547
17581TIP3    H174234   3.176   0.171   3.358  1.6346  0.3008  1.1046
17581TIP3    H274235   3.245   0.303   3.331 -1.1375  1.4206 -1.0143
17582TIP3   OH274236   0.944   1.610   2.651 -0.1400 -0.1681 -0.0865
17582TIP3    H174237   1.024   1.580   2.694  0.5776  2.5794  0.7149
17582TIP3    H274238   0.956   1.588   2.559  1.3596 -0.1709  0.0857
17583TIP3   OH274239   1.467   3.188   4.006 -0.7007 -0.1742 -0.5209
17583TIP3    H174240   1.394   3.211   4.064 -0.4709 -0.0168 -0.2911
17583TIP3    H274241   1.426   3.173   3.921 -1.5402 -3.7807  0.3506
17584TIP3   OH274242   1.083   1.280   0.539 -0.1552  0.2092 -0.2995
17584TIP3    H174243   1.024   1.345   0.501  0.2372  0.7444 -0.0044
17584TIP3    H274244   1.030   1.200   0.546 -0.8375  0.6815 -0.0448
17585TIP3   OH274245   2.402   5.330   2.358 -0.4598  0.3735 -0.0937
17585TIP3    H174246   2.491   5.364   2.370 -1.1108  1.9544  0.5996
17585TIP3    H274247   2.366   5.380   2.285 -0.2962 -1.3534 -1.4087
17586TIP3   OH274248   3.713   1.371  11.932 -0.0451  0.2562  0.0225
17586TIP3    H174249   3.780   1.438  11.940 -1.5175  2.0111 -1.4711
17586TIP3    H274250   3.637   1.407  11.978 -0.3407 -1.1920  0.7242
17587TIP3   OH274251   0.874   6.091  14.778 -0.2989 -0.4308 -0.1231
17587TIP3    H174252   0.949   6.099  14.720  1.1356  0.2259  1.7303
17587TIP3    H274253   0.892   6.013  14.831 -1.1827 -0.5649  0.0051
17588TIP3   OH274254   2.871   4.708   5.418  0.2454 -0.4420  0.1305
17588TIP3    H174255   2.816   4.657   5.358  2.1920 -0.8466 -1.4215
17588TIP3    H274256   2.904   4.780   5.365  0.0174  0.6637  1.4504
17589TIP3   OH274257   4.079   4.820   4.577  0.4273  0.5860 -0.3829
17589TIP3    H174258   4.123   4.875   4.642 -1.3221 -0.8394  2.2021
17589TIP3    H274259   4.150   4.775   4.531  1.7592  0.8082  1.3535
17590TIP3   OH274260   6.787   5.634   6.294 -0.1404  0.0469  0.5556
17590TIP3    H174261   6.723   5.613   6.362 -1.3694  0.7783 -0.3326
17590TIP3    H274262   6.771   5.727   6.275  2.2850  0.7145  1.4253
17591TIP3   OH274263   3.729   1.586  16.051 -0.3110  0.2353 -0.0655
17591TIP3    H174264   3.699   1.607  15.962  0.6432  1.8784 -0.0490
17591TIP3    H274265   3.669   1.518  16.081 -2.7238  1.8990 -0.7648
17592TIP3   OH274266   0.556   4.521  12.600  0.7252  0.3076  0.2665
17592TIP3    H174267   0.518   4.608  12.590  1.3624  0.4481 -1.1401
17592TIP3    H274268   0.616   4.512  12.526  2.0057 -0.6414  1.3653
17593TIP3   OH274269   1.785   4.657   5.253 -0.3925 -0.4856  0.2629
17593TIP3    H174270   1.715   4.681   5.191 -0.8380 -2.4639 -0.0566
17593TIP3    H274271   1.845   4.604   5.201  1.7554  1.6655  0.3659
17594TIP3   OH274272   4.479   2.048   2.747  0.3582  0.1812 -0.0452
17594TIP3    H174273   4.523   2.112   2.690  0.3972 -0.3082 -0.5702
17594TIP3    H274274   4.472   2.093   2.832 -0.9091  1.4304 -0.7661
17595TIP3   OH274275   2.188   4.284   1.835  0.4732 -0.2871  0.3854
17595TIP3    H174276   2.199   4.348   1.765 -0.7438 -0.3803  0.0777
17595TIP3    H274277   2.109   4.313   1.881 -0.1702 -1.6141  0.1688
17596TIP3   OH274278   0.445   5.473   4.150  0.2176 -0.2435 -0.0746
17596TIP3    H174279   0.403   5.471   4.235 -0.0233 -0.3517 -0.1939
17596TIP3    H274280   0.395   5.538   4.100 -0.5724 -1.2314 -0.6025
17597TIP3   OH274281   1.297   6.841   1.713 -0.2314  0.2249  0.1806
17597TIP3    H174282   1.356   6.786   1.764  0.3285  0.3756 -0.2809
17597TIP3    H274283   1.298   6.925   1.758 -1.6114 -0.3175  1.2670
17598TIP3   OH274284   1.052   2.206  12.680  0.6754  0.3404 -0.0169
17598TIP3    H174285   0.966   2.166  12.692  1.1351 -0.1696  1.8780
17598TIP3    H274286   1.064   2.209  12.585 -1.0633 -0.3424 -0.2953
17599TIP3   OH274287   6.482   3.330   5.312  0.5516 -0.4697 -0.1587
17599TIP3    H174288   6.553   3.311   5.251 -0.7550  0.7641 -2.1989
17599TIP3    H274289   6.432   3.400   5.269 -0.5160  0.3752  2.3216
17600TIP3   OH274290   0.570   0.625  12.175  0.1842  0.3340 -0.0467
17600TIP3    H174291   0.626   0.633  12.097 -0.9059  2.5979 -0.6660
17600TIP3    H274292   0.537   0.535  12.170  0.0978  0.4209 -2.2488
17601TIP3   OH274293   5.124   0.668   6.659 -0.1791  0.0323  0.3105
17601TIP3    H174294   5.043   0.625   6.630  1.3525 -2.6438 -0.2828
17601TIP3    H274295   5.160   0.708   6.580 -0.3554  0.2830  0.3544
17602TIP3   OH274296   0.131   2.864   4.640 -0.1347  0.2599  0.1397
17602TIP3    H174297   0.176   2.894   4.718  3.1269 -0.8703 -1.1373
17602TIP3    H274298   0.167   2.777   4.623 -1.4558  0.0534 -2.0822
17603TIP3   OH274299   3.900   1.077   2.393 -0.3577  0.1908  0.4905
17603TIP3    H174300   3.936   1.163   2.372  0.3649 -0.2701 -0.1940
17603TIP3    H274301   3.826   1.067   2.333  0.1233 -0.0446 -0.0696
17604TIP3   OH274302   6.422   3.800  16.383  0.0714 -0.0541  0.0898
17604TIP3    H174303   6.351   3.736  16.382  0.5479 -0.6410 -1.9727
17604TIP3    H274304   6.383   3.879  16.348  0.1247 -0.0047  0.1429
17605TIP3   OH274305   0.025   1.721  14.024 -0.0454  0.2679 -0.1683
17605TIP3    H174306   0.107   1.763  14.002  0.1683  0.4422  0.9156
17605TIP3    H274307   0.046   1.661  14.095 -0.5888 -0.7379 -0.8314
17606TIP3   OH274308   1.777   6.692  15.958  0.5580 -0.4011 -0.1881
17606TIP3    H174309   1.844   6.759  15.950  1.2901 -1.2181 -1.1828
17606TIP3    H274310   1.757   6.689  16.052  1.7194  0.0479  0.0838
17607TIP3   OH274311   5.092   2.411   4.096  0.1141  0.0692 -0.1022
17607TIP3    H174312   5.180   2.402   4.132  1.1572 -1.5760 -2.7398
17607TIP3    H274313   5.041   2.451   4.166  2.6812  0.0776  1.9067
17608TIP3   OH274314   2.017   0.488  13.095  0.5526  0.8918 -0.0965
17608TIP3    H174315   1.945   0.540  13.130  1.2955  0.7819  1.7175
17608TIP3    H274316   2.043   0.533  13.015 -1.3906  1.0282 -0.7016
17609TIP3   OH274317   1.917   3.285   3.880  0.6165 -0.5717 -0.0149
17609TIP3    H174318   1.851   3.310   3.945  1.0977 -2.0852  1.1106
17609TIP3    H274319   1.987   3.349   3.890 -0.0192  0.1509 -0.1602
17610TIP3   OH274320   1.406   3.747   3.118 -0.1471 -0.3524 -0.4485
17610TIP3    H174321   1.446   3.675   3.167 -0.0103  1.1415  1.7639
17610TIP3    H274322   1.312   3.725   3.117 -0.4863  0.5820  2.4675
17611TIP3   OH274323   2.041   6.845   3.735 -0.3049  0.7245  0.2417
17611TIP3    H174324   2.036   6.757   3.698  1.1772  1.3597 -1.6210
17611TIP3    H274325   2.050   6.903   3.659  0.1162  2.3520  1.4777
17612TIP3   OH274326   3.296   4.512  11.604 -0.4812  0.1091  0.0898
17612TIP3    H174327   3.325   4.602  11.589 -0.9969  0.2796  0.0889
17612TIP3    H274328   3.362   4.458  11.561  1.0664  0.3828  1.9354
17613TIP3   OH274329   3.628   2.545  16.024  0.3751 -0.1042  0.7034
17613TIP3    H174330   3.645   2.636  15.998  0.4207 -0.1406  0.6044
17613TIP3    H274331   3.643   2.495  15.944 -3.0171  0.1316 -0.2214
17614TIP3   OH274332   4.085   5.024  15.430  0.6428 -0.2458  0.2927
17614TIP3    H174333   4.102   4.974  15.350  2.0658 -0.6007  0.7812
17614TIP3    H274334   4.005   5.074  15.411  2.0226  1.2584 -2.1036
17615TIP3   OH274335   6.299   3.541  12.639  0.0505 -0.6767  0.0125
17615TIP3    H174336   6.312   3.550  12.734  2.5704  1.2921 -0.4204
17615TIP3    H274337   6.383   3.509  12.606 -0.5352 -0.6100 -1.6429
17616TIP3   OH274338   5.264   1.553   6.090  0.0407 -0.1175 -0.0621
17616TIP3    H174339   5.242   1.575   6.180  1.7062 -2.0636  0.9063
17616TIP3    H274340   5.358   1.541   6.090 -0.0821 -1.5215 -1.7428
17617TIP3   OH274341   0.091   5.371   4.389  0.4106  0.3604 -0.1155
17617TIP3    H174342   0.180   5.395   4.415  0.1270 -0.4125  1.6454
17617TIP3    H274343   0.099   5.350   4.295  2.3505 -0.9145  0.2824
17618TIP3   OH274344   4.396   5.077   5.957 -0.2674 -0.8240 -0.1223
17618TIP3    H174345   4.457   5.057   5.886 -0.9632 -1.1991 -0.6352
17618TIP3    H274346   4.422   5.019   6.028  0.5952 -0.2682  0.0269
17619TIP3   OH274347   6.544   2.268  11.338 -0.0250  0.5270  0.1866
17619TIP3    H174348   6.514   2.261  11.428  0.2766 -1.7541  0.1805
17619TIP3    H274349   6.634   2.301  11.345  0.0925  0.1003  0.7656
17620TIP3   OH274350   4.577   0.922   2.591 -0.6695  0.0097  0.7685
17620TIP3    H174351   4.499   0.950   2.543  0.1477  0.5508 -0.2685
17620TIP3    H274352   4.554   0.936   2.683 -1.5164  0.8928  0.4394
17621TIP3   OH274353   0.031   0.076  10.904 -0.2285  0.0765  0.0122
17621TIP3    H174354  -0.008   0.076  10.816 -0.6649  0.5442  0.2068
17621TIP3    H274355  -0.036   0.035  10.959 -0.7096  1.4411  0.4605
17622TIP3   OH274356   0.680   3.745  15.546  0.2409 -0.0164 -0.3221
17622TIP3    H174357   0.737   3.689  15.493  0.8264  0.6093 -0.3579
17622TIP3    H274358   0.723   3.747  15.632 -1.0238 -1.5441  0.4164
17623TIP3   OH274359   5.035   2.035  11.294  0.1231  0.1076  0.0958
17623TIP3    H174360   5.034   2.022  11.200  0.5604  0.2149  0.0739
17623TIP3    H274361   4.982   2.113  11.309  0.9931  0.7580 -0.1685
17624TIP3   OH274362   4.927   3.889   5.888  0.1757  0.4983 -0.0727
17624TIP3    H174363   4.977   3.884   5.970  0.5476  0.2405 -0.3110
17624TIP3    H274364   4.933   3.981   5.861 -1.3001  0.9590  1.0121
17625TIP3   OH274365   1.491   2.478   1.840  1.1563  0.3459  0.5425
17625TIP3    H174366   1.513   2.398   1.888  2.0224  0.3363  0.1425
17625TIP3    H274367   1.502   2.548   1.904 -0.3762  0.0860  1.1189
17626TIP3   OH274368   0.504   5.858   1.809  0.2828  0.1321  0.0727
17626TIP3    H174369   0.448   5.899   1.743  0.8957 -0.4291 -0.8179
17626TIP3    H274370   0.535   5.932   1.863  1.9861  1.0091 -1.9769
17627TIP3   OH274371   2.728   4.938   6.357 -0.3532 -0.4728  0.3590
17627TIP3    H174372   2.695   5.025   6.377 -0.3378 -0.6396  1.1341
17627TIP3    H274373   2.663   4.902   6.296  0.3316  0.5570 -1.0243
17628TIP3   OH274374   4.100   5.458   5.445  0.0544  0.0837 -0.3102
17628TIP3    H174375   4.075   5.447   5.353  1.2924 -1.9045 -0.4955
17628TIP3    H274376   4.167   5.526   5.443  0.3494 -0.2115 -0.9577
17629TIP3   OH274377   5.745   3.341  16.191  0.9440  0.1849  0.0617
17629TIP3    H174378   5.678   3.282  16.158  1.1386 -0.8025  1.3711
17629TIP3    H274379   5.721   3.427  16.155 -0.5170 -0.3046 -0.1897
17630TIP3   OH274380   6.322   3.097   2.907  0.0901  0.1391 -0.2621
17630TIP3    H174381   6.345   3.004   2.908 -0.5158 -0.0074  0.0831
17630TIP3    H274382   6.400   3.140   2.871  0.8133 -0.3807  0.6282
17631TIP3   OH274383   6.254   3.671   2.748  0.1739 -0.1625  0.3453
17631TIP3    H174384   6.265   3.683   2.843 -2.3023  1.7795  0.5023
17631TIP3    H274385   6.281   3.581   2.732 -0.3728 -0.9366  3.1209
17632TIP3   OH274386   3.561   2.401   0.894  0.1237 -0.2738  0.5306
17632TIP3    H174387   3.656   2.384   0.895  0.3312  0.2209 -2.3810
17632TIP3    H274388   3.552   2.491   0.925  0.4952 -0.5987  1.6243
17633TIP3   OH274389   5.380   1.594   4.954  0.2218 -0.4437  0.8427
17633TIP3    H174390   5.419   1.539   5.022  1.5705 -0.1629  0.3266
17633TIP3    H274391   5.449   1.603   4.888 -1.0503 -0.6767 -0.5532
17634TIP3   OH274392   0.253   6.370   6.501 -0.2234  0.2929 -0.1886
17634TIP3    H174393   0.298   6.289   6.478 -0.7254 -0.9729  2.7229
17634TIP3    H274394   0.319   6.421   6.548  0.1791  1.8034 -2.2653
17635TIP3   OH274395   5.943   3.535   5.635  0.0696  0.4456 -0.3563
17635TIP3    H174396   5.956   3.572   5.722  1.6845 -0.6531 -0.1033
17635TIP3    H274397   6.014   3.571   5.582  1.1573 -1.5412 -0.3213
17636TIP3   OH274398   5.711   3.363   3.949  0.0446  0.1065 -0.0789
17636TIP3    H174399   5.619   3.379   3.930 -0.3523 -0.1713  1.4370
17636TIP3    H274400   5.710   3.294   4.015  1.3527  0.0033 -0.1390
17637TIP3   OH274401   0.406   4.523   5.248  0.1797  0.0371  0.1645
17637TIP3    H174402   0.425   4.525   5.342 -1.9138  2.7669  0.6619
17637TIP3    H274403   0.340   4.454   5.239 -1.5153  1.4160  1.2487
17638TIP3   OH274404   3.947   1.694   0.485  0.1638 -1.0240  0.4045
17638TIP3    H174405   3.946   1.785   0.457  1.6954 -1.0445  0.2245
17638TIP3    H274406   3.889   1.692   0.561 -0.6486 -0.1150 -0.1602
17639TIP3   OH274407   4.101   5.343   1.222 -0.4181 -0.4849  0.1117
17639TIP3    H174408   4.193   5.337   1.197 -0.7228 -0.6438 -1.0221
17639TIP3    H274409   4.094   5.287   1.299  0.2715 -1.1309 -0.2817
17640TIP3   OH274410   1.757   4.832  15.172  0.0105  0.0693 -0.7530
17640TIP3    H174411   1.678   4.886  15.171 -0.7458 -0.8994  1.5794
17640TIP3    H274412   1.828   4.894  15.152 -0.9187  1.7688  0.9253
17641TIP3   OH274413   6.098   1.504  11.787 -0.0680 -0.0826 -0.8532
17641TIP3    H174414   6.169   1.557  11.823  0.2879 -2.7988  2.9487
17641TIP3    H274415   6.142   1.437  11.735 -0.1472  0.1163 -1.1856
17642TIP3   OH274416   0.845   4.891   5.624  0.0625 -0.3047  0.2286
17642TIP3    H174417   0.859   4.816   5.682  1.6061  0.5136  0.9877
17642TIP3    H274418   0.873   4.967   5.675  1.2535  0.4852 -1.4800
17643TIP3   OH274419   6.146   3.070  11.179  0.1301 -0.2144 -0.0046
17643TIP3    H174420   6.168   2.981  11.206  1.5963  0.5918  1.7064
17643TIP3    H274421   6.115   3.113  11.259  0.3077  1.0455 -0.5828
17644TIP3   OH274422   1.125   6.579   3.917 -0.1742 -0.0307  0.2307
17644TIP3    H174423   1.050   6.560   3.973 -0.1150 -2.4426 -0.3639
17644TIP3    H274424   1.127   6.506   3.855  2.9716 -0.4056  0.5774
17645TIP3   OH274425   6.167   3.161  15.707 -0.5682  0.2840  0.4592
17645TIP3    H174426   6.120   3.202  15.779 -0.9159 -1.8657  1.5397
17645TIP3    H274427   6.099   3.122  15.653 -0.2286  0.6824 -0.2713
17646TIP3   OH274428   6.636   3.502  13.494 -0.2810 -0.2151 -0.3824
17646TIP3    H174429   6.716   3.488  13.545 -0.6980 -0.1404  0.3009
17646TIP3    H274430   6.644   3.443  13.419 -0.4478 -1.5922  0.6601
17647TIP3   OH274431   4.412   1.744  15.853  0.5593 -0.4151 -0.1698
17647TIP3    H174432   4.337   1.774  15.905  1.2059  1.2091 -0.1372
17647TIP3    H274433   4.375   1.723  15.767  0.0334  0.1436 -0.0858
17648TIP3   OH274434   0.462   1.395  11.867 -0.2903  0.6111 -0.1570
17648TIP3    H174435   0.496   1.417  11.780  2.4590  0.5792  0.8270
17648TIP3    H274436   0.487   1.304  11.880 -1.7303  0.2480  0.2514
17649TIP3   OH274437   2.884   3.529  14.931  0.2194  0.2032 -0.3224
17649TIP3    H174438   2.913   3.441  14.907 -1.3193 -0.1454 -1.0089
17649TIP3    H274439   2.807   3.545  14.876 -1.0196  1.0015  1.5532
17650TIP3   OH274440   6.546   4.813  14.614 -0.1501 -0.0807 -0.1533
17650TIP3    H174441   6.465   4.865  14.612  1.8229  3.3217  0.0885
17650TIP3    H274442   6.550   4.778  14.703  0.3188  2.8558  1.0888
17651TIP3   OH274443   3.175   2.522  13.038 -0.4525 -0.5088  0.5161
17651TIP3    H174444   3.153   2.436  13.003 -1.7021 -0.4191  1.0135
17651TIP3    H274445   3.237   2.559  12.975 -1.0610 -1.1786 -0.5093
17652TIP3   OH274446   1.710   6.206   0.330 -0.1595 -0.0963  0.0531
17652TIP3    H174447   1.698   6.267   0.257 -1.0549 -0.0524  0.2230
17652TIP3    H274448   1.803   6.213   0.352 -0.1845  0.9883 -0.1268
17653TIP3   OH274449   6.184   5.936   1.287 -0.3195 -0.3612  0.1318
17653TIP3    H174450   6.089   5.939   1.274 -0.3325 -2.0093 -0.2964
17653TIP3    H274451   6.219   5.914   1.201  0.6006  1.6838 -0.0798
17654TIP3   OH274452   5.149   0.770  14.362  0.8019  0.3256 -0.2219
17654TIP3    H174453   5.237   0.786  14.330  1.6175  0.4693  1.9683
17654TIP3    H274454   5.160   0.741  14.452 -1.3915  0.2506  0.0923
17655TIP3   OH274455   0.432   1.551  12.821  0.6202  0.2332  0.0857
17655TIP3    H174456   0.416   1.480  12.883 -1.0277  1.0615  0.6587
17655TIP3    H274457   0.345   1.575  12.789  1.3834  0.1067 -2.2882
17656TIP3   OH274458   5.615   3.839  16.006 -1.0240 -0.0127 -0.0911
17656TIP3    H174459   5.573   3.875  16.084 -0.2194  1.3382 -0.2539
17656TIP3    H274460   5.569   3.880  15.932  0.1500  1.0135 -0.2760
17657TIP3   OH274461   2.955   3.997   0.710 -0.4189 -0.2367 -0.4873
17657TIP3    H174462   2.922   3.916   0.669  0.9054  0.1683 -2.4706
17657TIP3    H274463   2.939   4.065   0.644 -0.2069  0.8830  0.5848
17658TIP3   OH274464   0.653   5.311   0.924 -0.2558 -0.6714  0.1541
17658TIP3    H174465   0.594   5.239   0.901  0.1663 -1.0472  0.2365
17658TIP3    H274466   0.723   5.307   0.859  0.5555 -1.2840  1.0369
17659TIP3   OH274467   5.676   4.759  16.751 -0.1022  0.3636 -0.2234
17659TIP3    H174468   5.604   4.733  16.807 -1.7290  2.9801 -0.9144
17659TIP3    H274469   5.652   4.727  16.664 -0.5222  1.3442 -0.4775
17660TIP3   OH274470   3.152   5.884  17.024 -0.6783 -0.2393  0.3592
17660TIP3    H174471   3.135   5.951  17.090  1.9639 -1.3170  2.3295
17660TIP3    H274472   3.142   5.801  17.070 -0.6436 -1.1076 -1.1165
17661TIP3   OH274473   2.081   2.685   5.130  0.2799  0.1757 -0.0378
17661TIP3    H174474   2.175   2.673   5.124  0.4408  1.7734 -1.9225
17661TIP3    H274475   2.070   2.755   5.195  0.6444  1.6807 -1.5110
17662TIP3   OH274476   6.049   6.656   1.868  0.0748 -0.1757 -0.4605
17662TIP3    H174477   5.965   6.698   1.848 -0.6576 -0.6228  1.5007
17662TIP3    H274478   6.114   6.722   1.843 -0.9823  1.4402  0.7868
17663TIP3   OH274479   2.479   1.290   4.380  0.4134 -0.2679 -1.1322
17663TIP3    H174480   2.467   1.261   4.290  0.1121  2.3041 -2.0235
17663TIP3    H274481   2.389   1.299   4.414  0.4605  0.3104 -1.1477
17664TIP3   OH274482   0.926   5.561   5.887 -0.1784 -0.5525  0.4295
17664TIP3    H174483   1.019   5.580   5.897 -0.0876 -1.0926  0.6153
17664TIP3    H274484   0.922   5.468   5.864 -0.6184 -0.3068 -0.5672
17665TIP3   OH274485   2.222   2.293   1.230 -0.0928  0.1628 -0.0061
17665TIP3    H174486   2.243   2.385   1.243 -0.2843  0.0672  1.0567
17665TIP3    H274487   2.302   2.254   1.196  0.0635  0.6723 -0.2213
17666TIP3   OH274488   4.176   4.512   1.444 -0.5550  0.7074  0.5415
17666TIP3    H174489   4.148   4.482   1.531  0.0610 -1.1984  0.1350
17666TIP3    H274490   4.267   4.539   1.456 -0.6077  0.8747  0.5703
17667TIP3   OH274491   0.481   1.457   4.642  0.0285  0.1049 -0.2008
17667TIP3    H174492   0.414   1.453   4.575 -0.4897  0.3837  0.2902
17667TIP3    H274493   0.561   1.428   4.598 -0.0863  1.2579 -1.1968
17668TIP3   OH274494   6.688   4.922  15.944 -0.2269  0.6591  0.8768
17668TIP3    H174495   6.631   4.848  15.963  0.6424 -0.2583  0.0400
17668TIP3    H274496   6.635   4.979  15.888 -0.6536  0.3064  0.9125
17669TIP3   OH274497   4.159   3.570   2.046  0.5251  0.1814  0.0130
17669TIP3    H174498   4.092   3.632   2.074 -0.7824 -1.0032 -0.3881
17669TIP3    H274499   4.116   3.484   2.050  2.2757 -0.7274  0.5614
17670TIP3   OH274500   6.623   2.959   1.109  0.6000  0.4194  0.2905
17670TIP3    H174501   6.593   2.878   1.068  0.1826  0.8849 -0.3392
17670TIP3    H274502   6.545   3.014   1.111  1.0778  1.1103 -0.0354
17671TIP3   OH274503   3.809   2.547  13.515 -0.6570  0.1003  0.8036
17671TIP3    H174504   3.767   2.462  13.502 -0.9921  0.3857 -0.0156
17671TIP3    H274505   3.773   2.603  13.447 -0.2831  0.8502  1.2066
17672TIP3   OH274506   0.653   5.360   4.812 -0.8457 -0.8410  0.1901
17672TIP3    H174507   0.740   5.350   4.772  0.0722 -0.7929  2.0436
17672TIP3    H274508   0.622   5.270   4.823 -0.1156 -0.9765  1.3381
17673TIP3   OH274509   2.888   2.328   2.849  0.1150 -0.2930  0.4487
17673TIP3    H174510   2.855   2.316   2.760  0.0187 -2.3848  0.7037
17673TIP3    H274511   2.875   2.242   2.890  2.5103 -0.1150  1.7019
17674TIP3   OH274512   5.565   4.239  14.672 -0.6727 -0.1700  0.3234
17674TIP3    H174513   5.528   4.157  14.705 -2.3810  0.4834  0.1393
17674TIP3    H274514   5.622   4.270  14.742 -1.7612 -0.4077  1.3532
17675TIP3   OH274515   1.403   0.434   3.918 -0.8450 -0.1052 -0.1904
17675TIP3    H174516   1.362   0.387   3.845 -0.2525 -3.0681  1.2340
17675TIP3    H274517   1.496   0.417   3.908 -0.7427 -0.4543  1.1557
17676TIP3   OH274518   1.050   1.361  14.708  0.1863 -0.1656  0.0707
17676TIP3    H174519   1.126   1.310  14.678 -0.0534 -0.1556 -0.5519
17676TIP3    H274520   0.993   1.366  14.632  0.1052  0.8576  0.1885
17677TIP3   OH274521   2.883   0.335  15.925 -0.2892 -0.0972 -0.8052
17677TIP3    H174522   2.866   0.242  15.916 -1.8753  0.1609 -0.7891
17677TIP3    H274523   2.800   0.372  15.955  0.0277  1.4448 -1.7019
17678TIP3   OH274524   5.461   3.805   5.840  0.1282 -0.5905 -0.4609
17678TIP3    H174525   5.468   3.849   5.755  2.6625  0.3208  0.1424
17678TIP3    H274526   5.413   3.867   5.895 -1.0348 -0.9487 -1.0341
17679TIP3   OH274527   5.755   3.636  16.140  0.1808 -0.0088 -0.3210
17679TIP3    H174528   5.722   3.695  16.072  0.3005  0.6081  0.1468
17679TIP3    H274529   5.806   3.692  16.198  1.7753 -0.8705 -0.8241
17680TIP3   OH274530   0.473   3.660   1.213 -0.2157  0.1937  0.5569
17680TIP3    H174531   0.417   3.586   1.189  0.7672 -0.1749 -0.7404
17680TIP3    H274532   0.413   3.722   1.255 -1.1564 -1.1091  1.2161
17681TIP3   OH274533   1.732   5.120  13.052  0.0898 -0.0334 -0.1694
17681TIP3    H174534   1.651   5.076  13.028  0.6337 -1.1427 -0.0119
17681TIP3    H274535   1.797   5.050  13.057  1.3923  0.9986 -1.7108
17682TIP3   OH274536   0.971   6.198  15.230 -0.4637 -0.6020 -0.0540
17682TIP3    H174537   0.938   6.113  15.260  0.8784 -1.5224 -1.0874
17682TIP3    H274538   0.939   6.205  15.140  1.3771 -1.1377 -0.7881
17683TIP3   OH274539   5.262   6.571  14.965  0.1719  0.4762 -0.1085
17683TIP3    H174540   5.285   6.484  14.997 -0.3146  0.3790 -0.0135
17683TIP3    H274541   5.329   6.591  14.900 -0.4814 -0.5672 -1.1661
17684TIP3   OH274542   1.912   1.876   4.473 -0.1392 -0.4979  0.0144
17684TIP3    H174543   1.834   1.928   4.455  0.3752  0.8670  1.4290
17684TIP3    H274544   1.985   1.928   4.438  0.4119 -0.0679  1.6974
17685TIP3   OH274545   1.319   2.160  14.867  0.0624 -0.3462  0.3477
17685TIP3    H174546   1.347   2.193  14.781  1.9075  0.3674  1.1726
17685TIP3    H274547   1.329   2.065  14.861 -0.0001 -0.3159 -0.2853
17686TIP3   OH274548   0.770   0.158  15.057 -0.2691  0.1283  0.5915
17686TIP3    H174549   0.833   0.229  15.072  0.0943 -0.0334 -0.1382
17686TIP3    H274550   0.696   0.201  15.014  0.5993 -0.1638 -1.3043
17687TIP3   OH274551   0.786   5.405  15.019  0.0324  0.1146 -0.0553
17687TIP3    H174552   0.867   5.381  14.973 -0.4392 -1.6214 -0.0448
17687TIP3    H274553   0.724   5.424  14.949  0.2920  0.9267 -0.0708
17688TIP3   OH274554   0.146   3.629   1.769 -0.5962 -0.9929  0.0448
17688TIP3    H174555   0.140   3.621   1.864 -0.2069 -0.3518  0.1279
17688TIP3    H274556   0.059   3.603   1.738 -1.8268  1.8362  0.8039
17689TIP3   OH274557   1.032   1.803  16.748 -0.3158 -0.2709 -0.1952
17689TIP3    H174558   1.112   1.753  16.733  0.8974  2.1818 -3.0994
17689TIP3    H274559   0.979   1.748  16.806  2.9399 -2.5166  0.9265
17690TIP3   OH274560   4.513   4.453   1.731  0.4301  0.2700  0.0898
17690TIP3    H174561   4.501   4.429   1.823  0.1693 -1.9076 -0.4489
17690TIP3    H274562   4.606   4.474   1.723  0.3864  0.7952  0.9148
17691TIP3   OH274563   6.572   4.569  10.844 -0.0159 -0.4558  0.0002
17691TIP3    H174564   6.660   4.605  10.833 -0.6738  0.8071 -1.5006
17691TIP3    H274565   6.525   4.635  10.894 -0.0460 -1.2694  1.0745
17692TIP3   OH274566   0.441   2.323   2.657  0.0437 -0.8338 -0.1133
17692TIP3    H174567   0.446   2.328   2.561  1.3955 -1.9709 -0.1430
17692TIP3    H274568   0.388   2.245   2.673 -2.2923  0.7001  0.1340
17693TIP3   OH274569   0.681   3.536   5.344  0.4090  0.3630 -0.1614
17693TIP3    H174570   0.737   3.602   5.301  0.9158 -0.5083 -0.8670
17693TIP3    H274571   0.603   3.531   5.288  1.1764 -0.9512 -1.1680
17694TIP3   OH274572   2.148   6.810  14.719 -0.0069 -0.2142 -0.1857
17694TIP3    H174573   2.115   6.851  14.799  2.1298 -0.4900  0.9450
17694TIP3    H274574   2.118   6.720  14.724 -3.7203  0.7393 -2.0894
17695TIP3   OH274575   1.868   2.531  12.267 -0.3347 -0.3391  0.1090
17695TIP3    H174576   1.893   2.552  12.357 -0.4065  0.0201  0.0493
17695TIP3    H274577   1.860   2.436  12.265  0.2936 -0.4012  0.3212
17696TIP3   OH274578   0.500   2.064   0.616 -0.1290  0.2088  0.2518
17696TIP3    H174579   0.416   2.110   0.620  0.3905  1.5404 -2.1465
17696TIP3    H274580   0.529   2.059   0.707 -3.0056 -0.7862  1.2415
17697TIP3   OH274581   6.007   1.367  15.775 -0.3771  0.2501 -0.0350
17697TIP3    H174582   6.045   1.412  15.700 -0.4093  0.5613  0.1307
17697TIP3    H274583   5.925   1.330  15.743 -0.4766  0.5316 -0.1077
17698TIP3   OH274584   0.276   0.578   5.762 -0.1189  0.1645  0.4801
17698TIP3    H174585   0.279   0.662   5.717  0.7611  0.2205  0.6262
17698TIP3    H274586   0.293   0.599   5.854 -0.6266 -0.0948  0.6389
17699TIP3   OH274587   2.958   1.345  15.929  0.4199  0.0901  0.5230
17699TIP3    H174588   2.967   1.434  15.962  0.5727  0.1183  0.4053
17699TIP3    H274589   3.045   1.323  15.896  0.3107 -0.0018  0.2982
17700TIP3   OH274590   5.064   3.569   3.817  0.2738  0.1746 -0.0847
17700TIP3    H174591   4.983   3.545   3.863 -0.5534 -1.1846 -2.1009
17700TIP3    H274592   5.037   3.638   3.756  0.6757 -0.1361 -0.6178
17701TIP3   OH274593   6.331   0.386  15.545 -0.5174  0.1859  0.5315
17701TIP3    H174594   6.302   0.385  15.636  1.0977 -1.1372  1.0768
17701TIP3    H274595   6.377   0.303  15.533  1.1682  1.2454 -0.8683
17702TIP3   OH274596   3.072   6.418   4.919  0.4271  0.3439 -0.5108
17702TIP3    H174597   3.122   6.337   4.929 -0.2695  0.1412  2.3224
17702TIP3    H274598   2.995   6.405   4.974 -0.3300  2.4784 -0.9737
17703TIP3   OH274599   0.182   5.379   1.896  0.3426  0.5831 -0.5139
17703TIP3    H174600   0.097   5.337   1.880  1.1149 -0.9504 -0.7281
17703TIP3    H274601   0.246   5.318   1.859  1.7406  0.3914  2.0404
17704TIP3   OH274602   6.648   3.526  13.110 -0.0378 -0.0778 -0.8081
17704TIP3    H174603   6.742   3.543  13.110  0.2603 -1.4758  0.8574
17704TIP3    H274604   6.608   3.613  13.099  1.4131  0.3962 -2.7840
17705TIP3   OH274605   3.856   6.456  16.196  0.6093  0.2502 -0.0316
17705TIP3    H174606   3.763   6.474  16.185  0.3908 -0.9121 -0.2036
17705TIP3    H274607   3.874   6.481  16.287 -0.2295 -0.8867  0.4764
17706TIP3   OH274608   6.606   5.641   5.212  0.1729  0.3683  0.1311
17706TIP3    H174609   6.612   5.705   5.283 -0.3136 -0.3293  0.8114
17706TIP3    H274610   6.696   5.630   5.183  0.3092  1.0852  0.2531
17707TIP3   OH274611   6.787   2.579  14.608 -0.0953  0.0093 -0.1970
17707TIP3    H174612   6.700   2.587  14.569 -0.1459  0.2191 -0.0404
17707TIP3    H274613   6.777   2.613  14.697 -0.8440 -3.5607  1.2931
17708TIP3   OH274614   3.755   3.904   4.390 -0.2388  0.3532  0.3960
17708TIP3    H174615   3.727   3.994   4.404 -1.2788  0.3778 -1.5600
17708TIP3    H274616   3.676   3.851   4.401  0.2734 -0.2974  1.0942
17709TIP3   OH274617   6.455   2.622   2.722 -0.0653  0.3689  0.1229
17709TIP3    H174618   6.521   2.571   2.769  0.1068  0.4091 -0.0763
17709TIP3    H274619   6.505   2.686   2.672 -0.2139 -0.0075 -0.5224
17710TIP3   OH274620   5.959   4.796  16.304 -0.5095 -0.5552  0.0235
17710TIP3    H174621   5.903   4.834  16.372 -1.0264 -1.3360  0.0469
17710TIP3    H274622   6.048   4.811  16.336 -0.7425 -2.1615  1.6354
17711TIP3   OH274623   2.704   3.982  11.879  0.5658 -0.2028  0.2133
17711TIP3    H174624   2.675   4.013  11.794  2.0603  0.6460 -0.0201
17711TIP3    H274625   2.783   3.931  11.860 -0.7136 -2.5711  0.7961
17712TIP3   OH274626   1.591   3.137   4.944  0.4476 -0.3841  0.0527
17712TIP3    H174627   1.662   3.119   5.006  0.1398 -0.5861  0.3496
17712TIP3    H274628   1.514   3.154   4.999  0.2407 -0.2720 -0.2674
17713TIP3   OH274629   1.897   1.975  16.510 -0.3064 -0.2765  0.1001
17713TIP3    H174630   1.957   1.936  16.446  1.2839 -0.4986  1.6185
17713TIP3    H274631   1.828   1.910  16.521  0.3013 -0.9877 -0.1793
17714TIP3   OH274632   4.857   0.880  12.337  0.6734  0.0452 -0.0724
17714TIP3    H174633   4.836   0.826  12.261 -1.5676  1.9074 -0.8640
17714TIP3    H274634   4.850   0.820  12.411  2.6113 -1.7291 -1.1963
17715TIP3   OH274635   3.785   6.377  13.114  0.0017  0.5247  0.5014
17715TIP3    H174636   3.717   6.428  13.070 -2.1829 -0.2201  2.7388
17715TIP3    H274637   3.868   6.413  13.083 -1.4040  4.1205  0.5252
17716TIP3   OH274638   6.191   1.135  10.957  0.0405  0.2148  0.4190
17716TIP3    H174639   6.194   1.168  10.867 -0.3247 -0.3348  0.2017
17716TIP3    H274640   6.165   1.043  10.948  1.4361 -0.2551  1.0004
17717TIP3   OH274641   1.385   1.394   4.551 -0.0349  0.2162  0.0775
17717TIP3    H174642   1.386   1.332   4.624  2.3050  0.5066  0.3660
17717TIP3    H274643   1.376   1.339   4.473  3.6813 -0.8283  0.1897
17718TIP3   OH274644   1.228   5.814  16.143 -0.9421 -0.3773 -0.6856
17718TIP3    H174645   1.235   5.871  16.219  0.4341 -1.3021 -0.0797
17718TIP3    H274646   1.316   5.812  16.105 -1.3738 -0.7295 -1.7131
17719TIP3   OH274647   1.687   1.634  15.747 -0.8354 -0.5328 -0.0941
17719TIP3    H174648   1.634   1.626  15.668 -1.5137  1.4729  0.0847
17719TIP3    H274649   1.777   1.641  15.715 -1.2150  1.5955 -0.8574
17720TIP3   OH274650   0.377   0.396  12.253 -0.2127  0.2084  0.2029
17720TIP3    H174651   0.374   0.316  12.200 -1.3917  0.0794  0.4557
17720TIP3    H274652   0.311   0.384  12.320  1.4712  0.2350  1.9569
17721TIP3   OH274653   1.723   5.356   0.669  0.4288 -0.0407  0.1979
17721TIP3    H174654   1.710   5.294   0.741  2.7699 -0.7738  0.0792
17721TIP3    H274655   1.737   5.440   0.713 -0.1110 -0.0934  0.4861
17722TIP3   OH274656   1.012   1.507   3.671 -0.2313 -0.4846  0.2227
17722TIP3    H174657   0.972   1.560   3.740  0.8460  1.0984 -0.3174
17722TIP3    H274658   0.942   1.497   3.606 -0.3792  0.5172  0.2124
17723TIP3   OH274659   1.053   3.932   1.911  0.3786 -0.2152 -0.0028
17723TIP3    H174660   0.993   4.000   1.879  0.0883 -0.9341 -1.0280
17723TIP3    H274661   0.996   3.869   1.956  0.6910  0.3794  1.2792
17724TIP3   OH274662   3.075   1.072   3.719  0.1008  0.2917 -0.1721
17724TIP3    H174663   3.114   1.064   3.806 -0.7377 -0.0709  0.1778
17724TIP3    H274664   3.138   1.029   3.661  0.6605  0.5207  0.2463
17725TIP3   OH274665   5.346   2.425  15.623  0.5188 -0.2270  0.9363
17725TIP3    H174666   5.369   2.487  15.693 -2.9342  1.2499  0.9823
17725TIP3    H274667   5.320   2.345  15.670 -0.4100  0.2790  1.3308
17726TIP3   OH274668   4.393   5.525   0.809 -0.6182  0.4219 -0.1323
17726TIP3    H174669   4.336   5.449   0.823  0.3561 -0.1445  0.9591
17726TIP3    H274670   4.395   5.537   0.714 -0.3292 -1.2968 -0.3858
17727TIP3   OH274671   0.203   5.167  11.825 -0.0565 -0.2542  0.2685
17727TIP3    H174672   0.239   5.166  11.914  0.9554  1.7734 -0.0614
17727TIP3    H274673   0.280   5.165  11.769 -0.6665 -0.8793 -0.5667
17728TIP3   OH274674   3.028   0.908   2.688  0.4275 -0.2327 -0.1889
17728TIP3    H174675   2.948   0.946   2.723 -0.1307  0.5133 -2.1393
17728TIP3    H274676   3.057   0.847   2.756  0.0431  1.8793  2.0115
17729TIP3   OH274677   6.380   2.455  12.492 -0.7193  0.4830  0.0531
17729TIP3    H174678   6.372   2.533  12.437 -1.2747  0.8620  0.6541
17729TIP3    H274679   6.461   2.469  12.541 -1.1818  1.0307  0.6790
17730TIP3   OH274680   0.127   4.211  13.837  0.1841  0.6678 -0.1521
17730TIP3    H174681   0.081   4.206  13.753 -0.6051  1.9460  0.1744
17730TIP3    H274682   0.163   4.123  13.849 -0.6176  0.1445 -1.3054
17731TIP3   OH274683   6.390   6.661   2.143  0.2815  0.0203 -0.0217
17731TIP3    H174684   6.405   6.569   2.166 -0.4968  0.0632  0.7296
17731TIP3    H274685   6.407   6.709   2.224 -0.7116  0.3833 -0.0158
17732TIP3   OH274686   0.345   0.951   4.111  0.1374  0.1599  0.0229
17732TIP3    H174687   0.351   1.045   4.122  0.1600 -0.0236  1.8263
17732TIP3    H274688   0.350   0.915   4.199  2.1082 -1.6638 -0.7261
17733TIP3   OH274689   1.636   5.327   4.045 -0.5011  0.1770 -0.4637
17733TIP3    H174690   1.698   5.356   4.112 -1.0017 -1.5222  0.7936
17733TIP3    H274691   1.553   5.367   4.071 -0.6203 -0.1980 -0.2640
17734TIP3   OH274692   1.390   6.563  11.745  0.0583  0.1616 -0.6085
17734TIP3    H174693   1.455   6.492  11.753  1.4953  1.5460  0.6483
17734TIP3    H274694   1.381   6.576  11.651 -0.5726 -1.9354 -0.9016
17735TIP3   OH274695   2.377   1.180  13.134 -0.1476  0.1081 -0.9885
17735TIP3    H174696   2.315   1.197  13.063 -2.8996 -0.0762  1.2519
17735TIP3    H274697   2.324   1.149  13.207  2.4642  0.8794  1.4224
17736TIP3   OH274698   4.072   3.235   1.343  0.5273  0.0330  0.1540
17736TIP3    H174699   4.148   3.279   1.305  0.5380 -0.4755 -0.4309
17736TIP3    H274700   4.043   3.175   1.275 -0.0791 -0.1594  0.5751
17737TIP3   OH274701   2.246   2.957  11.475 -0.1233  0.6830 -0.6255
17737TIP3    H174702   2.261   2.906  11.555  0.2301 -0.9844 -1.6906
17737TIP3    H274703   2.196   3.033  11.504  0.8195  0.6273  1.3145
17738TIP3   OH274704   3.245   2.206  11.535 -0.3706 -0.0683 -0.6449
17738TIP3    H174705   3.195   2.125  11.539 -0.0831 -0.2307 -0.2542
17738TIP3    H274706   3.234   2.237  11.445 -1.7993  0.2991 -0.3771
17739TIP3   OH274707   3.661   4.797  14.182 -0.2671 -1.0688  0.2568
17739TIP3    H174708   3.706   4.872  14.222 -1.8917  0.9648 -1.5541
17739TIP3    H274709   3.673   4.727  14.246  2.3068  0.3430  1.5206
17740TIP3   OH274710   3.683   2.870  13.404  0.2998 -0.2271 -0.1780
17740TIP3    H174711   3.738   2.846  13.479  1.2756  1.0938 -0.4330
17740TIP3    H274712   3.689   2.795  13.345  1.9214 -0.0717 -0.2393
17741TIP3   OH274713   0.817   5.879  11.646 -0.9010  0.3123  0.1905
17741TIP3    H174714   0.836   5.928  11.566  1.1269  0.8650  0.9541
17741TIP3    H274715   0.895   5.890  11.700 -1.0410 -2.3903  1.0853
17742TIP3   OH274716   3.420   4.516  11.899 -0.3231 -0.6975  0.7911
17742TIP3    H174717   3.350   4.537  11.836  1.4014 -1.0365 -1.3839
17742TIP3    H274718   3.456   4.433  11.867  1.5254 -0.1595  1.3856
17743TIP3   OH274719   4.233   0.835   5.824  0.5551 -0.3970 -0.2261
17743TIP3    H174720   4.273   0.887   5.755  0.4020  0.0969  0.0510
17743TIP3    H274721   4.177   0.897   5.871  1.2878 -0.5181  0.8470
17744TIP3   OH274722   2.777   1.700  14.598 -0.3229  0.1164 -0.0014
17744TIP3    H174723   2.782   1.720  14.691  1.0025 -0.4307  0.0756
17744TIP3    H274724   2.869   1.701  14.569 -0.4805 -2.1259 -0.7662
17745TIP3   OH274725   2.406   5.285  15.046 -0.2595 -0.1161 -0.0333
17745TIP3    H174726   2.483   5.336  15.071  0.3709  0.0733 -2.1592
17745TIP3    H274727   2.367   5.335  14.974 -1.5726 -0.9353  0.0853
17746TIP3   OH274728   1.486   6.459  12.173  0.3326 -0.2665  0.2656
17746TIP3    H174729   1.453   6.380  12.216  0.7590 -0.6197 -0.0469
17746TIP3    H274730   1.492   6.524  12.243 -0.6946 -0.2932  0.3939
17747TIP3   OH274731   3.279   4.534   4.471  0.5291 -0.2668  0.3264
17747TIP3    H174732   3.258   4.495   4.386  0.3520  0.6432 -0.0630
17747TIP3    H274733   3.249   4.625   4.463  0.3420 -0.2194  1.4285
17748TIP3   OH274734   5.973   2.150   4.311 -0.5371  0.3013  0.0964
17748TIP3    H174735   5.957   2.210   4.384  1.8676  1.6495 -0.3754
17748TIP3    H274736   5.929   2.069   4.336 -0.9461  1.1655  2.3826
17749TIP3   OH274737   1.922   6.755  13.275 -0.2108 -0.2809  0.0555
17749TIP3    H174738   1.993   6.798  13.322  0.0823 -0.1406 -0.5020
17749TIP3    H274739   1.842   6.795  13.309 -0.1557 -1.6553  1.9591
17750TIP3   OH274740   2.020   1.884  11.073 -0.0427  0.4317  0.1208
17750TIP3    H174741   2.104   1.927  11.091 -0.9076  2.1952  0.1167
17750TIP3    H274742   2.003   1.902  10.981 -0.5926  0.3639  0.2077
17751TIP3   OH274743   3.400   3.790  14.071 -0.6070 -0.1797  0.0367
17751TIP3    H174744   3.472   3.847  14.094  1.0735 -1.3618 -1.9591
17751TIP3    H274745   3.321   3.841  14.092  0.7296  1.0944  2.3816
17752TIP3   OH274746   1.128   1.816   3.935 -0.0607 -0.6211 -0.6754
17752TIP3    H174747   1.051   1.758   3.936 -1.5571  1.1812  1.7703
17752TIP3    H274748   1.180   1.788   4.010  0.6112 -0.5180 -1.0979
17753TIP3   OH274749   4.494   4.434  12.128 -0.0775  0.1211 -0.7089
17753TIP3    H174750   4.400   4.451  12.127 -0.2758 -0.6551  1.2174
17753TIP3    H274751   4.525   4.469  12.212  0.7789 -2.2280  0.0392
17754TIP3   OH274752   1.449   0.187  14.516  0.3384 -0.4001 -0.2186
17754TIP3    H174753   1.486   0.169  14.603  0.9306 -0.1094 -0.4004
17754TIP3    H274754   1.505   0.139  14.456  0.9892  0.7710 -0.5725
17755TIP3   OH274755   3.908   6.135   1.725  0.2264  0.4069  0.5059
17755TIP3    H174756   3.867   6.168   1.646 -1.5149 -1.2700  0.6421
17755TIP3    H274757   4.000   6.123   1.701 -0.1984  0.2487 -1.1653
17756TIP3   OH274758   6.220   2.838   3.902  0.0800 -0.0715  0.8188
17756TIP3    H174759   6.257   2.873   3.821 -1.9343 -0.1827 -0.1957
17756TIP3    H274760   6.268   2.884   3.972  0.9808  0.9493 -0.4237
17757TIP3   OH274761   2.656   5.601   0.238 -0.1663 -0.5351  0.1356
17757TIP3    H174762   2.721   5.547   0.282  0.1337  1.3825  2.2768
17757TIP3    H274763   2.597   5.629   0.308 -1.0894  0.7769 -1.0962
17758TIP3   OH274764   0.429   1.889  16.629  0.2678 -0.0035  0.2330
17758TIP3    H174765   0.396   1.799  16.636  1.1875 -0.3290  0.5148
17758TIP3    H274766   0.513   1.887  16.674  0.9515  0.6774 -0.9635
17759TIP3   OH274767   3.601   6.398  16.377 -0.0309 -0.2009 -0.3677
17759TIP3    H174768   3.609   6.466  16.311 -1.3712  0.0583 -0.3017
17759TIP3    H274769   3.506   6.382  16.384 -0.0138  0.2793  1.9702
17760TIP3   OH274770   6.621   1.908  14.677  0.1551  0.2474  0.0770
17760TIP3    H174771   6.556   1.945  14.617 -1.7644  0.9724  2.4907
17760TIP3    H274772   6.702   1.905  14.625 -1.4346  0.6036 -2.5901
17761TIP3   OH274773   1.888   0.173   3.159  0.0767 -0.1167 -0.5727
17761TIP3    H174774   1.795   0.164   3.179 -0.0617  1.2794 -0.4853
17761TIP3    H274775   1.892   0.189   3.065  0.2188  0.0395 -0.5407
17762TIP3   OH274776   4.150   2.164   1.108 -0.0516  0.3587 -0.7978
17762TIP3    H174777   4.131   2.102   1.179 -0.2638  1.1507 -0.1532
17762TIP3    H274778   4.117   2.120   1.029 -0.6616 -0.1311 -0.2847
17763TIP3   OH274779   4.120   1.157  13.954  0.0740 -0.0914 -0.2888
17763TIP3    H174780   4.166   1.091  14.007  0.0657 -0.0373 -0.2147
17763TIP3    H274781   4.181   1.231  13.950 -0.6474  0.6169  1.1459
17764TIP3   OH274782   5.480   2.549   3.205 -0.4785  0.3721  0.1692
17764TIP3    H174783   5.574   2.531   3.207 -0.4714  0.0572 -1.3107
17764TIP3    H274784   5.469   2.608   3.131 -1.3766  0.8993  0.7072
17765TIP3   OH274785   2.844   3.073  14.852 -0.4426  0.4786 -0.6414
17765TIP3    H174786   2.837   3.120  14.769 -1.0935 -0.3166 -1.0533
17765TIP3    H274787   2.880   3.137  14.913 -0.3797  1.2094 -1.4266
17766TIP3   OH274788   5.056   4.457   2.346 -0.4669 -0.6087 -0.0287
17766TIP3    H174789   4.968   4.464   2.309 -1.1683 -0.0732  1.6758
17766TIP3    H274790   5.067   4.536   2.398  0.7561 -0.9947  0.3307
17767TIP3   OH274791   1.928   0.641  13.419  0.0865  0.7892  0.1938
17767TIP3    H174792   1.862   0.590  13.372  0.5569 -0.4938  0.8953
17767TIP3    H274793   1.887   0.661  13.503  0.6130 -0.0699  0.6569
17768TIP3   OH274794   1.729   0.526   5.663  0.2782 -0.3318 -0.3647
17768TIP3    H174795   1.776   0.519   5.579 -0.5195  2.4280 -1.1586
17768TIP3    H274796   1.649   0.574   5.642 -1.1369 -1.6825  1.6072
17769TIP3   OH274797   2.003   4.936  11.714 -0.6749 -0.4429  0.2780
17769TIP3    H174798   2.066   4.931  11.642 -1.3239  0.1506 -0.3379
17769TIP3    H274799   1.951   5.014  11.696 -2.7223 -1.8218 -0.1684
17770TIP3   OH274800   4.761   2.669   6.462  0.4935  0.1287 -0.0864
17770TIP3    H174801   4.715   2.703   6.385  1.9387  0.8772 -0.6709
17770TIP3    H274802   4.853   2.665   6.435  0.6446 -2.6166  0.5644
17771TIP3   OH274803   0.884   0.685  11.181  0.4631 -0.5572 -0.0778
17771TIP3    H174804   0.869   0.596  11.149  0.2441 -1.1032  1.4282
17771TIP3    H274805   0.814   0.737  11.143 -0.6029 -1.4567  0.5881
17772TIP3   OH274806   0.709   5.367  13.058  0.1566  0.0536 -0.4055
17772TIP3    H174807   0.796   5.386  13.025 -0.1019 -0.2986 -1.3100
17772TIP3    H274808   0.651   5.422  13.006 -0.2831 -0.7378 -0.7702
17773TIP3   OH274809   6.312   5.002   0.362 -0.1348  0.2036 -0.4406
17773TIP3    H174810   6.332   4.913   0.390 -0.6328 -0.0674 -0.9199
17773TIP3    H274811   6.332   5.056   0.438 -1.0041 -0.4668  0.2932
17774TIP3   OH274812   1.059   2.889   0.928  0.2561  0.0891  0.2262
17774TIP3    H174813   1.026   2.974   0.956  0.2874 -0.2511  1.3309
17774TIP3    H274814   1.134   2.872   0.984 -0.1964 -0.9936  0.5408
17775TIP3   OH274815   3.511   1.798   2.116  0.7616  0.4971  0.1362
17775TIP3    H174816   3.495   1.720   2.063  1.4080 -0.5834  1.4880
17775TIP3    H274817   3.449   1.790   2.189  4.2519 -1.6258  3.2091
17776TIP3   OH274818   3.764   2.421  15.632  0.2836  0.0399  0.5301
17776TIP3    H174819   3.804   2.404  15.717  3.0450  1.0160 -0.4395
17776TIP3    H274820   3.732   2.511  15.638 -0.2459 -0.1664  0.7899
17777TIP3   OH274821   1.998   5.479  16.477  0.7579 -0.2628 -0.3846
17777TIP3    H174822   2.067   5.531  16.518 -0.6703  1.4116  0.0182
17777TIP3    H274823   1.936   5.544  16.445 -1.0664 -1.7330  0.0473
17778TIP3   OH274824   3.556   3.025  11.241 -0.9124 -0.2264 -0.2287
17778TIP3    H174825   3.537   2.932  11.234  0.9549 -0.7726  1.2675
17778TIP3    H274826   3.623   3.031  11.309 -0.4446  2.1341 -0.8177
17779TIP3   OH274827   6.018   3.679   1.062 -0.5372 -0.2329  0.1744
17779TIP3    H174828   6.050   3.604   1.112  1.2035 -0.0398 -0.6024
17779TIP3    H274829   6.015   3.750   1.126  2.9416  0.3557 -0.1222
17780TIP3   OH274830   4.256   3.443  15.690 -0.3042  0.0009  0.7092
17780TIP3    H174831   4.171   3.399  15.700  0.0176 -0.6051  0.8347
17780TIP3    H274832   4.312   3.377  15.648  0.3305  0.1245  1.3512
17781TIP3   OH274833   1.166   0.995  11.973  0.0692  0.5585 -0.2206
17781TIP3    H174834   1.097   1.051  12.007  0.3565 -0.1328  1.5776
17781TIP3    H274835   1.227   0.984  12.046  0.6992 -1.0005 -0.9287
17782TIP3   OH274836   3.569   4.772   5.273 -0.1446  0.0816  0.1837
17782TIP3    H174837   3.512   4.849   5.278  0.5663  0.6235  0.0261
17782TIP3    H274838   3.646   4.795   5.326  0.5901 -0.0607 -0.8021
17783TIP3   OH274839   4.124   1.144   3.618 -0.6864  0.4531  0.1094
17783TIP3    H174840   4.158   1.055   3.613  1.2878  1.0436  1.8026
17783TIP3    H274841   4.202   1.200   3.613 -1.8001  2.0630  0.0028
17784TIP3   OH274842   2.403   2.805  13.311  0.0884  0.0309  0.0590
17784TIP3    H174843   2.390   2.737  13.245  0.6085 -1.3899  1.3759
17784TIP3    H274844   2.490   2.841  13.291  1.3148 -2.0288  1.3121
17785TIP3   OH274845   4.822   2.068  16.815  0.6383  0.4950  0.1611
17785TIP3    H174846   4.831   2.098  16.905  0.8193  1.8204 -0.2752
17785TIP3    H274847   4.890   2.116  16.767 -0.5994  1.1864 -0.9831
17786TIP3   OH274848   6.413   3.560   3.322  0.0643 -0.5208 -0.3506
17786TIP3    H174849   6.324   3.583   3.349 -0.2460 -0.9316 -1.0075
17786TIP3    H274850   6.434   3.483   3.374 -0.3738 -1.0577 -0.9498
17787TIP3   OH274851   2.082   2.510   4.401  0.9697  0.5024 -0.1688
17787TIP3    H174852   2.125   2.424   4.405  2.8121  1.3119 -1.0750
17787TIP3    H274853   2.003   2.495   4.350  1.3829 -0.6029 -0.5250
17788TIP3   OH274854   1.271   5.734   5.780 -0.2710  0.8918  0.0309
17788TIP3    H174855   1.226   5.818   5.778  0.6457  1.3900 -0.5871
17788TIP3    H274856   1.234   5.684   5.707 -0.4896  0.9337  0.1142
17789TIP3   OH274857   1.224   4.824  16.827 -0.2106 -0.0121 -0.0621
17789TIP3    H174858   1.253   4.816  16.917  0.6507 -1.8990 -0.4768
17789TIP3    H274859   1.295   4.787  16.774 -1.9292 -1.7113 -1.3145
17790TIP3   OH274860   2.804   5.499   0.471 -0.3114 -0.1479 -0.3466
17790TIP3    H174861   2.894   5.467   0.476 -0.5413 -0.6962  0.3627
17790TIP3    H274862   2.753   5.435   0.520 -1.0698  0.2287 -0.6409
17791TIP3   OH274863   5.585   2.893  11.908  0.2503 -0.2958 -0.9484
17791TIP3    H174864   5.623   2.865  11.991 -0.5200  0.8491 -0.1667
17791TIP3    H274865   5.513   2.832  11.892  0.9679 -1.0680 -1.2470
17792TIP3   OH274866   6.439   0.050  16.679  0.3612  0.1603 -0.3403
17792TIP3    H174867   6.491   0.125  16.707 -0.7219  0.8712 -0.1950
17792TIP3    H274868   6.413   0.007  16.760  0.3942  0.0199 -0.4034
17793TIP3   OH274869   6.419   6.079   2.554  0.3999  0.1539  0.5811
17793TIP3    H174870   6.383   6.099   2.640 -0.0248 -0.5574  0.5803
17793TIP3    H274871   6.467   5.997   2.567  1.7360  0.9006  0.4979
17794TIP3   OH274872   5.978   0.600  13.882 -0.4903 -0.1430  0.2744
17794TIP3    H174873   5.921   0.556  13.818 -0.1320  1.2014 -1.0246
17794TIP3    H274874   6.066   0.572  13.858 -0.4310 -0.5151  0.9092
17795TIP3   OH274875   0.320   0.416   1.049  0.0761  0.1880 -0.0332
17795TIP3    H174876   0.345   0.331   1.012 -0.9818 -0.1733  0.0236
17795TIP3    H274877   0.329   0.477   0.976 -2.8190 -0.6609 -1.2875
17796TIP3   OH274878   5.265   5.838   3.836 -0.3209  0.5891  0.2256
17796TIP3    H174879   5.262   5.901   3.764 -0.5517  1.0959  0.6696
17796TIP3    H274880   5.237   5.755   3.796  2.3999  0.1243 -0.9649
17797TIP3   OH274881   2.863   6.449  11.284 -0.1024 -0.2750  0.3402
17797TIP3    H174882   2.938   6.456  11.224  0.0274 -3.6410 -0.0786
17797TIP3    H274883   2.830   6.360  11.270 -3.8439  0.8614  0.9732
17798TIP3   OH274884   4.387   4.273   6.859  0.5110  0.2764 -0.2158
17798TIP3    H174885   4.331   4.211   6.813  0.6353 -0.7122  0.9079
17798TIP3    H274886   4.475   4.250   6.831  0.4462  1.2030 -1.2433
17799TIP3   OH274887   4.973   3.134  12.747  0.5067 -0.0002  0.5017
17799TIP3    H174888   4.883   3.119  12.720  0.6425 -2.1358  1.0028
17799TIP3    H274889   4.968   3.145  12.842  0.7892 -0.5960  0.5935
17800TIP3   OH274890   6.156   1.323   1.104  0.1308  0.5868  0.2824
17800TIP3    H174891   6.224   1.383   1.075  0.7516  0.4804  1.4401
17800TIP3    H274892   6.187   1.237   1.075 -0.6475  0.7631 -1.1762
17801TIP3   OH274893   6.365   0.617  13.330 -0.5137  0.3393  0.1845
17801TIP3    H174894   6.339   0.539  13.281  0.6883 -0.4567  0.7769
17801TIP3    H274895   6.297   0.681  13.310 -1.7706 -0.9833  0.0255
17802TIP3   OH274896   2.724   2.935  17.048  0.0952  0.2174  0.5313
17802TIP3    H174897   2.797   2.933  16.986  1.1590  1.9019  1.6307
17802TIP3    H274898   2.713   2.844  17.075  1.6463 -0.1140  0.1508
17803TIP3   OH274899   2.330   0.074  11.847  0.0891 -0.3172  0.1276
17803TIP3    H174900   2.402   0.097  11.905  0.8637 -0.4862 -0.7429
17803TIP3    H274901   2.272   0.150  11.851 -0.1894 -0.5775  1.5749
17804TIP3   OH274902   5.228   4.232   0.548 -0.2142  0.3070  0.0104
17804TIP3    H174903   5.157   4.227   0.612  0.3876  1.5488  0.8120
17804TIP3    H274904   5.194   4.289   0.479 -0.1962  0.4553  0.1238
17805TIP3   OH274905   6.797   2.228  12.517  0.4259 -0.1786  0.7198
17805TIP3    H174906   6.739   2.304  12.526 -0.4725 -0.4209 -2.0178
17805TIP3    H274907   6.834   2.215  12.604 -2.7934  0.6567  2.3343
17806TIP3   OH274908   1.912   5.268  15.322  0.2373  0.0422 -0.1453
17806TIP3    H174909   2.004   5.292  15.326  0.3478 -0.4882  0.7894
17806TIP3    H274910   1.908   5.200  15.254  0.2535  1.1766 -1.3226
17807TIP3   OH274911   4.901   2.814   5.134 -0.1877 -0.2049  0.3406
17807TIP3    H174912   4.908   2.856   5.220 -2.5102  1.2205 -0.0757
17807TIP3    H274913   4.908   2.720   5.152  0.2597  0.1118  1.9469
17808TIP3   OH274914   1.006   6.143  12.883  0.3399 -0.2958  0.8433
17808TIP3    H174915   0.967   6.100  12.807  0.2724  1.8513 -0.3979
17808TIP3    H274916   1.035   6.071  12.939 -0.6980 -1.9331 -0.6338
17809TIP3   OH274917   0.245   1.198   4.528  0.0182 -0.2265 -0.3645
17809TIP3    H174918   0.301   1.275   4.540 -1.4473  0.6467  1.4472
17809TIP3    H274919   0.301   1.124   4.551  0.9516  0.4425 -0.4030
17810TIP3   OH274920   3.554   5.382  11.957  0.1711 -0.0780 -0.0994
17810TIP3    H174921   3.468   5.347  11.981  0.4954 -1.8759 -1.3577
17810TIP3    H274922   3.604   5.305  11.929  1.6092  1.1697 -1.0937
17811TIP3   OH274923   1.807   0.181   1.694  1.2888 -0.1631 -0.0344
17811TIP3    H174924   1.831   0.092   1.668 -1.0422 -1.2393  1.1614
17811TIP3    H274925   1.885   0.216   1.736  2.5420 -1.2826 -1.3262
17812TIP3   OH274926   2.356   5.027  15.104 -0.2214 -0.3488 -0.5765
17812TIP3    H174927   2.381   5.109  15.062 -1.0718  1.0453  1.4384
17812TIP3    H274928   2.268   5.009  15.071 -0.2758 -0.1055 -0.5671
17813TIP3   OH274929   0.925   0.504  13.659 -0.2371  0.4289 -0.9756
17813TIP3    H174930   0.931   0.409  13.663 -0.1661  0.4574  0.0360
17813TIP3    H274931   0.843   0.521  13.612  0.7394 -0.0873 -2.9664
17814TIP3   OH274932   4.864   0.630   5.111  0.5589 -0.0982 -0.2569
17814TIP3    H174933   4.896   0.616   5.199  1.6790  0.4334 -0.5664
17814TIP3    H274934   4.939   0.665   5.063 -0.2457  0.3584 -1.2198
17815TIP3   OH274935   5.702   6.599   1.126 -0.1252  0.3461 -0.5351
17815TIP3    H174936   5.778   6.657   1.124  0.8489 -0.8951 -1.6679
17815TIP3    H274937   5.697   6.569   1.217  0.7739  0.4326 -0.4425
17816TIP3   OH274938   2.117   0.227  13.947  0.1578  0.3765 -0.1529
17816TIP3    H174939   2.130   0.187  14.032  3.7213 -0.8872 -1.1099
17816TIP3    H274940   2.063   0.164  13.898 -0.9200  0.5760  0.7342
17817TIP3   OH274941   1.714   6.347  13.881 -0.6747  1.3026 -0.2874
17817TIP3    H174942   1.686   6.385  13.965  1.6265 -0.2676  1.2862
17817TIP3    H274943   1.793   6.395  13.858  0.9668 -0.8718  0.5553
17818TIP3   OH274944   6.423   2.853   1.336 -0.0970 -0.0204  0.0524
17818TIP3    H174945   6.386   2.765   1.333 -0.5786  0.0926  1.7329
17818TIP3    H274946   6.517   2.840   1.349 -0.0179 -0.2721 -0.6962
17819TIP3   OH274947   5.990   5.575   3.870 -0.2995 -0.4345 -0.2332
17819TIP3    H174948   5.926   5.563   3.940 -0.1987 -1.5678 -0.3277
17819TIP3    H274949   6.004   5.488   3.835 -1.2586  0.2529 -2.4907
17820TIP3   OH274950   1.036   6.179  14.579  0.3431  0.4148 -0.3250
17820TIP3    H174951   1.005   6.263  14.614 -0.2017 -0.1841  0.6570
17820TIP3    H274952   1.109   6.155  14.635  0.2286  0.0197 -0.3451
17821TIP3   OH274953   4.516   4.220   0.073  0.5735 -0.2679  1.2273
17821TIP3    H174954   4.518   4.283   0.145 -1.4050 -0.9504  1.9687
17821TIP3    H274955   4.454   4.258   0.010  1.6071 -0.1029  0.2842
17822TIP3   OH274956   1.435   4.421  12.593  0.1291 -0.1783  0.5192
17822TIP3    H174957   1.389   4.488  12.543 -2.5457 -0.6877  2.0906
17822TIP3    H274958   1.483   4.370  12.527 -2.2559 -0.1051 -1.3913
17823TIP3   OH274959   3.067   0.444   0.899 -0.6962  0.4496  0.5435
17823TIP3    H174960   3.153   0.487   0.895  0.2197 -1.3419  0.2764
17823TIP3    H274961   3.051   0.432   0.992  1.1109 -2.4806  0.5944
17824TIP3   OH274962   5.233   6.209  13.675  0.1824  0.4368 -0.0988
17824TIP3    H174963   5.156   6.184  13.624  0.0011  1.3804 -0.3157
17824TIP3    H274964   5.197   6.232  13.761  0.2395  0.7156 -0.1493
17825TIP3   OH274965   1.829   3.729  14.698 -0.0241  0.4024 -0.0460
17825TIP3    H174966   1.807   3.701  14.609  3.7503 -1.3738 -0.6175
17825TIP3    H274967   1.845   3.648  14.745  2.2889  1.3530  0.9399
17826TIP3   OH274968   1.492   6.680  16.231  0.0392 -0.2157 -0.2393
17826TIP3    H174969   1.519   6.763  16.192  0.1906 -0.8330 -1.4857
17826TIP3    H274970   1.569   6.624  16.226 -0.4009 -0.8132 -0.5276
17827TIP3   OH274971   4.107   6.566  15.072  0.2555  0.2709  0.1293
17827TIP3    H174972   4.101   6.661  15.069  0.8674  0.3027 -0.2034
17827TIP3    H274973   4.049   6.541  15.144  2.0083  1.1017  1.9436
17828TIP3   OH274974   6.832   4.461   0.839 -0.3144  0.1916 -0.2629
17828TIP3    H174975   6.814   4.551   0.813 -0.7474  0.8589  2.1475
17828TIP3    H274976   6.901   4.467   0.904 -2.4968 -0.8090  2.3440
17829TIP3   OH274977   6.429   2.236   1.460 -0.2711  0.9506 -0.2011
17829TIP3    H174978   6.405   2.280   1.542  2.3335  0.8196  0.7557
17829TIP3    H274979   6.507   2.185   1.483  0.7769  1.2036 -2.8499
17830TIP3   OH274980   5.238   0.959  16.335 -0.7044  0.0619 -0.4091
17830TIP3    H174981   5.186   0.880  16.320 -0.7200 -0.0946  0.4010
17830TIP3    H274982   5.182   1.031  16.306  0.2092 -0.3259 -3.4293
17831TIP3   OH274983   5.811   2.737   5.696  0.0262  0.1623  0.1740
17831TIP3    H174984   5.888   2.727   5.752  0.0024  0.1859  0.2115
17831TIP3    H274985   5.749   2.671   5.728  0.0526  0.1043  0.1071
17832TIP3   OH274986   0.698   3.729  12.043 -0.0971  0.0128 -0.2363
17832TIP3    H174987   0.733   3.694  12.125  1.1714  1.1306 -0.2757
17832TIP3    H274988   0.757   3.696  11.975  0.9507  1.9160 -0.3052
17833TIP3   OH274989   5.942   1.576  13.919 -0.5685  0.7493 -0.6709
17833TIP3    H174990   5.867   1.536  13.962 -0.4905  1.1825 -0.1189
17833TIP3    H274991   6.017   1.521  13.944 -1.0049 -1.3775 -3.4490
17834TIP3   OH274992   2.886   0.767  12.484  0.2133 -0.2762  0.1388
17834TIP3    H174993   2.868   0.727  12.399  0.1461 -1.3310  0.6276
17834TIP3    H274994   2.943   0.841  12.464  1.4903 -1.4326 -0.6808
17835TIP3   OH274995   4.121   1.072   6.420 -0.3273  0.7240  0.6941
17835TIP3    H174996   4.133   1.166   6.437  0.6340  0.3598  2.2636
17835TIP3    H274997   4.082   1.038   6.501 -1.7840 -0.0614 -0.2889
17836TIP3   OH274998   3.505   4.519  14.685  0.0052 -0.0848 -0.6358
17836TIP3    H174999   3.561   4.442  14.671 -2.0321 -2.0125  0.9925
17836TIP3    H275000   3.502   4.529  14.781 -1.6588  0.5210 -0.7152
17837TIP3   OH275001   6.748   2.984  13.186  0.2532 -0.3209  0.3812
17837TIP3    H175002   6.728   3.056  13.247  1.2714 -0.5287  0.9768
17837TIP3    H275003   6.662   2.953  13.158 -0.2203  0.4240  0.9521
17838TIP3   OH275004   4.276   4.113  13.668 -0.0206 -0.3703 -0.3387
17838TIP3    H175005   4.265   4.122  13.573  1.7070  1.3922 -0.4176
17838TIP3    H275006   4.197   4.154  13.704 -2.0548 -3.3989 -0.9225
17839TIP3   OH275007   3.540   6.604  13.087 -0.1815 -0.1641 -0.1223
17839TIP3    H175008   3.479   6.674  13.108 -0.3728  0.1187 -1.5216
17839TIP3    H275009   3.521   6.582  12.996  2.2475  0.4169 -0.8479
17840TIP3   OH275010   1.902   0.560   1.283  0.6377  0.4582 -0.0673
17840TIP3    H175011   1.972   0.514   1.330 -1.0558 -0.3292  1.7872
17840TIP3    H275012   1.885   0.639   1.335 -1.2434 -0.4128  0.7345
17841TIP3   OH275013   2.727   5.958  15.788 -0.0535  0.2087  0.2338
17841TIP3    H175014   2.694   6.024  15.728 -0.0201  1.7617  1.8550
17841TIP3    H275015   2.822   5.971  15.789  0.0513 -0.4504 -0.0663
17842TIP3   OH275016   2.151   0.792  11.313  0.3102 -0.1904 -0.3534
17842TIP3    H175017   2.206   0.764  11.386  1.7403 -0.8364 -1.6142
17842TIP3    H275018   2.068   0.747  11.326  0.9858 -1.3202  0.1839
17843TIP3   OH275019   1.431   5.687   4.492 -0.5645  0.0259 -0.4116
17843TIP3    H175020   1.404   5.779   4.492  0.9053  0.4790  0.1574
17843TIP3    H275021   1.350   5.639   4.510 -1.8100  1.0216 -2.8144
17844TIP3   OH275022   2.729   0.935   4.830  0.1357  0.0361 -0.5208
17844TIP3    H175023   2.782   0.900   4.901 -0.1010  0.6024 -0.0604
17844TIP3    H275024   2.786   0.999   4.787 -0.1644  0.6465 -0.0242
17845TIP3   OH275025   4.996   0.917   2.297  0.4995  0.0570 -0.5833
17845TIP3    H175026   4.904   0.892   2.306  0.5829  0.0860  0.5530
17845TIP3    H275027   5.039   0.876   2.372  1.3447  0.3495 -0.8978
17846TIP3   OH275028   5.175   2.907  15.254  0.0106  0.4628  0.2069
17846TIP3    H175029   5.261   2.944  15.236 -0.2960  1.2567  0.3512
17846TIP3    H275030   5.187   2.857  15.334  1.1397 -2.2474 -1.5071
17847TIP3   OH275031   4.959   2.320   0.491  0.4397 -0.5077  0.6446
17847TIP3    H175032   4.893   2.319   0.560  0.0074 -0.7810  0.2332
17847TIP3    H275033   5.007   2.402   0.504 -0.3416 -0.0349  0.6076
17848TIP3   OH275034   0.240   3.762  16.559  0.7278 -0.1693  0.5287
17848TIP3    H175035   0.272   3.674  16.578 -0.0503 -0.8623 -1.2316
17848TIP3    H275036   0.274   3.782  16.472 -0.6695  0.5101  0.1153
17849TIP3   OH275037   4.354   2.045  12.274  0.0393  0.3714  0.0293
17849TIP3    H175038   4.364   2.064  12.181  0.3068 -0.1035 -0.0405
17849TIP3    H275039   4.379   2.127  12.318 -0.1986  0.6311 -0.3153
17850TIP3   OH275040   4.890   3.994   3.865  0.4196  0.4604  0.5540
17850TIP3    H175041   4.796   3.976   3.862  0.6141 -1.8684  3.5404
17850TIP3    H275042   4.897   4.088   3.879 -1.3889  0.7993 -0.5519
17851TIP3   OH275043   3.956   3.807   6.357 -0.0833  0.0005  0.2427
17851TIP3    H175044   3.958   3.833   6.265  0.1878  0.8517  0.4870
17851TIP3    H275045   3.900   3.729   6.358 -0.4955  0.2754 -0.5691
17852TIP3   OH275046   5.414   6.402   5.165  0.2076  0.0483 -0.0538
17852TIP3    H175047   5.435   6.485   5.208 -0.5030 -0.1948  0.7865
17852TIP3    H275048   5.497   6.374   5.124  0.7015  0.6676  0.5046
17853TIP3   OH275049   2.316   3.694  16.888 -0.0153  0.1667 -0.7021
17853TIP3    H175050   2.411   3.706  16.900 -0.1347  0.8023 -0.3161
17853TIP3    H275051   2.291   3.765  16.829 -0.2046 -0.1870 -1.0469
17854TIP3   OH275052   2.407   4.541  16.893  0.2793 -0.4222 -0.3302
17854TIP3    H175053   2.428   4.459  16.936  0.8902 -0.5411 -0.8420
17854TIP3    H275054   2.485   4.563  16.843 -0.3048 -0.1511 -1.1583
17855TIP3   OH275055   1.579   0.716  11.539 -0.3204 -0.1118  0.1075
17855TIP3    H175056   1.574   0.712  11.443 -0.5677  1.2024  0.0466
17855TIP3    H275057   1.520   0.788  11.563  0.4020  0.1432  1.1844
17856TIP3   OH275058   6.263   4.832  14.814  0.3086 -0.2843 -0.3328
17856TIP3    H175059   6.235   4.751  14.772  1.5804 -0.1014 -1.6161
17856TIP3    H275060   6.182   4.874  14.842 -0.5707 -0.7390 -2.0493
17857TIP3   OH275061   3.080   1.696  10.749 -0.0902  0.3880 -0.2089
17857TIP3    H175062   3.142   1.625  10.737 -0.6361 -0.5303  1.9306
17857TIP3    H275063   3.133   1.776  10.748  0.8399 -0.2308 -0.3219
17858TIP3   OH275064   3.980   4.238  14.745  0.0033  0.2911 -0.2539
17858TIP3    H175065   4.012   4.230  14.835  1.1606  0.7870 -0.5984
17858TIP3    H275066   3.980   4.332  14.727 -2.5756  0.3995  0.0049
17859TIP3   OH275067   1.453   3.143   1.795 -0.4046 -0.3806 -0.2411
17859TIP3    H175068   1.533   3.196   1.795 -0.8264  0.2983 -1.8568
17859TIP3    H275069   1.484   3.053   1.790  0.2780 -0.2248  0.7929
17860TIP3   OH275070   1.137   5.481  11.355 -0.0419  0.4753  0.6757
17860TIP3    H175071   1.085   5.402  11.370  1.7675 -0.9670 -0.2060
17860TIP3    H275072   1.188   5.492  11.435  1.6504 -0.8788 -0.1418
17861TIP3   OH275073   1.808   3.869  10.478 -0.2919 -0.0624  0.3354
17861TIP3    H175074   1.775   3.884  10.390 -0.9386  1.4882  0.8021
17861TIP3    H275075   1.773   3.942  10.529  0.9464 -0.3410  1.6443
17862TIP3   OH275076   4.131   2.887  15.489  0.2017 -0.7186  0.2958
17862TIP3    H175077   4.175   2.863  15.571 -0.1085 -0.2092  0.6171
17862TIP3    H275078   4.038   2.869  15.505  0.1993 -1.1239 -0.1358
17863TIP3   OH275079   3.664   5.102   0.990 -0.2224  0.7983  0.3469
17863TIP3    H175080   3.628   5.151   0.917 -0.7358 -0.3825 -0.2225
17863TIP3    H275081   3.750   5.141   1.006 -1.1972  2.8064  0.8743
17864TIP3   OH275082   2.380   4.045  15.773 -0.6021 -0.0349  0.0673
17864TIP3    H175083   2.442   4.024  15.703 -1.2110 -0.4657 -0.3587
17864TIP3    H275084   2.366   3.962  15.818 -0.3721  0.1986  0.5657
17865TIP3   OH275085   1.935   4.762   3.479 -0.3766  0.2986  0.2076
17865TIP3    H175086   1.893   4.801   3.555 -1.4676 -0.6184  0.1020
17865TIP3    H275087   2.029   4.770   3.496 -0.6035 -0.3070  1.8604
17866TIP3   OH275088   5.375   6.543   2.910  0.8085  0.2351  0.3497
17866TIP3    H175089   5.310   6.590   2.962 -0.0826 -0.1895 -0.3560
17866TIP3    H275090   5.452   6.540   2.966  0.0044  0.1490  1.4895
17867TIP3   OH275091   1.392   0.708  14.439  0.4924  0.1917 -0.3264
17867TIP3    H175092   1.361   0.790  14.399 -1.3736 -0.7228 -0.8714
17867TIP3    H275093   1.312   0.664  14.468  1.5963 -0.5174  1.8544
17868TIP3   OH275094   1.159   4.803   3.488 -0.6166  0.2124  0.1567
17868TIP3    H175095   1.102   4.739   3.446 -0.6463  1.9583 -2.7315
17868TIP3    H275096   1.245   4.791   3.447 -0.2518  1.0180  0.6421
17869TIP3   OH275097   0.560   2.703   1.677  0.8034  0.1346  0.6190
17869TIP3    H175098   0.481   2.754   1.661  0.4942 -0.8517 -1.4556
17869TIP3    H275099   0.628   2.747   1.626  1.6083  0.8961  2.2772
17870TIP3   OH275100   4.734   0.119   6.244  0.1533 -0.3389  0.3628
17870TIP3    H175101   4.739   0.084   6.155  1.0636  1.0836 -0.1856
17870TIP3    H275102   4.817   0.165   6.256 -0.4603  0.5192  1.4944
17871TIP3   OH275103   6.768   6.135  16.207  0.3216 -0.2645 -0.2567
17871TIP3    H175104   6.800   6.048  16.184 -2.7716 -2.1240  1.7388
17871TIP3    H275105   6.760   6.134  16.302  1.5321  2.8122 -0.0022
17872TIP3   OH275106   4.779   6.103  14.299 -0.1924 -0.1005  0.5274
17872TIP3    H175107   4.855   6.062  14.341 -0.3817 -0.4161  0.5710
17872TIP3    H275108   4.816   6.171  14.244  0.2102 -0.8700 -0.1850
17873TIP3   OH275109   4.676   5.303   0.833  0.3725 -0.1770 -0.2495
17873TIP3    H175110   4.682   5.358   0.911  0.9067 -1.3626  0.5723
17873TIP3    H275111   4.610   5.238   0.854 -0.2605  0.1319 -1.2155
17874TIP3   OH275112   1.706   1.487   2.426 -0.0918 -0.2257 -0.2800
17874TIP3    H175113   1.675   1.553   2.364  0.4876 -0.7680 -1.1706
17874TIP3    H275114   1.630   1.471   2.483 -0.1415  1.4491  0.2028
17875TIP3   OH275115   2.931   2.030   5.065  0.3198  0.1934 -0.1734
17875TIP3    H175116   2.903   2.095   4.999  0.1249  1.3098  0.9659
17875TIP3    H275117   2.850   2.002   5.106  0.5416  0.4962  0.4795
17876TIP3   OH275118   4.968   6.772  11.953 -0.0134 -0.2718  0.5787
17876TIP3    H175119   5.034   6.840  11.941 -0.5244  0.1686  0.2147
17876TIP3    H275120   4.976   6.746  12.045  0.9763 -0.5609  0.4166
17877TIP3   OH275121   0.290   3.343  10.943 -0.1402 -0.6186  0.0387
17877TIP3    H175122   0.276   3.405  11.014 -1.8068 -2.0865  1.0713
17877TIP3    H275123   0.229   3.370  10.875 -0.1619 -0.5562  0.0824
17878TIP3   OH275124   1.977   4.376  15.640 -0.1466  0.1408  0.0105
17878TIP3    H175125   1.910   4.322  15.598  0.1598  1.6895 -2.7150
17878TIP3    H275126   2.051   4.316  15.652 -1.3581 -1.1561  1.5009
17879TIP3   OH275127   6.848   5.009  12.520 -0.4095  0.5296 -0.3055
17879TIP3    H175128   6.922   5.053  12.563  0.5877 -0.0676 -1.3525
17879TIP3    H275129   6.821   4.941  12.582  0.9325 -0.2442 -0.5304
17880TIP3   OH275130   4.258   3.343   0.641 -0.7403 -0.3337  0.3336
17880TIP3    H175131   4.255   3.435   0.668  1.4809 -0.1292  0.0521
17880TIP3    H275132   4.238   3.294   0.720  0.1258  0.3803  1.0228
17881TIP3   OH275133   0.736   3.553   1.212 -0.3151 -0.0049 -0.3887
17881TIP3    H175134   0.649   3.592   1.225  0.4048  1.1878  1.1038
17881TIP3    H275135   0.751   3.561   1.117 -2.1249 -0.9575 -0.8139
17882TIP3   OH275136   3.448   6.609  12.619 -0.0305  0.3895 -0.6705
17882TIP3    H175137   3.508   6.641  12.552 -1.1911  0.4909 -1.6944
17882TIP3    H275138   3.504   6.571  12.686  1.1431 -0.1650 -1.9329
17883TIP3   OH275139   4.702   5.952  16.098 -0.1711  0.1447  0.0691
17883TIP3    H175140   4.609   5.948  16.074  0.4794 -0.2769 -2.6302
17883TIP3    H275141   4.738   5.867  16.072  1.3127  0.9432 -0.6512
17884TIP3   OH275142   5.883   1.550  13.203 -0.3731 -0.4591 -0.2159
17884TIP3    H175143   5.947   1.533  13.133 -0.6545 -2.1412 -0.1115
17884TIP3    H275144   5.805   1.580  13.157 -0.1187 -0.2323 -0.5039
17885TIP3   OH275145   6.807   4.799   6.016  0.1071 -0.3407 -0.0949
17885TIP3    H175146   6.763   4.884   6.025  1.2352  0.1394  1.1969
17885TIP3    H275147   6.824   4.771   6.106  1.7242 -0.8786 -0.5365
17886TIP3   OH275148   3.164   1.252  16.878 -0.3094  0.1370 -0.1812
17886TIP3    H175149   3.222   1.291  16.813 -1.5786  1.3213 -0.6474
17886TIP3    H275150   3.211   1.261  16.961  0.4002  0.5940 -0.6229
17887TIP3   OH275151   0.453   5.131   5.209 -0.4854 -0.2809 -0.1930
17887TIP3    H175152   0.434   5.192   5.280 -1.3839  1.0705 -1.5150
17887TIP3    H275153   0.382   5.066   5.214 -0.3918 -0.3505  0.2983
17888TIP3   OH275154   6.078   4.841  14.460 -0.3600 -0.2518  0.0438
17888TIP3    H175155   6.009   4.894  14.421 -0.5254 -0.8315 -0.4692
17888TIP3    H275156   6.081   4.762  14.406 -0.3638 -0.9242  1.0091
17889TIP3   OH275157   6.597   6.727   6.311 -0.2596 -0.1674 -0.1115
17889TIP3    H175158   6.618   6.764   6.225 -1.2111  2.4454  0.7028
17889TIP3    H275159   6.555   6.643   6.290  1.7325 -0.7887 -2.0530
17890TIP3   OH275160   6.087   5.304   5.206  0.2331 -0.2101  0.3074
17890TIP3    H175161   6.121   5.340   5.124  0.0251  1.0756  0.7681
17890TIP3    H275162   6.139   5.225   5.220 -0.2012 -0.8519 -1.4116
17891TIP3   OH275163   0.360   5.632  11.427  0.4068  0.0172 -0.0147
17891TIP3    H175164   0.365   5.553  11.374 -0.0547 -0.7794  1.0989
17891TIP3    H275165   0.449   5.668  11.426  0.1112  0.9225 -2.6099
17892TIP3   OH275166   2.456   4.314   3.818 -0.3233 -0.4367 -0.0127
17892TIP3    H175167   2.530   4.373   3.826  1.1109 -2.2138  0.5306
17892TIP3    H275168   2.439   4.283   3.907  0.4284 -2.4619 -0.4987
17893TIP3   OH275169   1.513   6.433  10.265  0.6412  0.4165  0.5035
17893TIP3    H175170   1.548   6.359  10.316 -0.6252 -0.8057 -0.3321
17893TIP3    H275171   1.458   6.481  10.326 -1.1277 -1.2251  0.3033
17894TIP3   OH275172   0.559   2.223  14.775  0.2151 -0.0281 -0.0790
17894TIP3    H175173   0.631   2.237  14.713  0.8075 -0.4080  0.5046
17894TIP3    H275174   0.488   2.189  14.722  1.3734 -2.3368 -0.3028
17895TIP3   OH275175   6.752   0.817   1.929 -0.4852  0.7517  0.1634
17895TIP3    H175176   6.721   0.813   1.838 -0.0018  1.2238 -0.0276
17895TIP3    H275177   6.692   0.760   1.977  1.0558 -2.0373 -0.9639
17896TIP3   OH275178   1.564   6.645  14.489 -0.0118  0.2685 -0.1785
17896TIP3    H175179   1.556   6.562  14.536 -0.9992  0.3162 -0.2565
17896TIP3    H275180   1.580   6.710  14.558  2.3107 -0.1622 -0.2279
17897TIP3   OH275181   6.158   5.698   5.785 -0.0352  0.2112 -0.4936
17897TIP3    H175182   6.225   5.687   5.718 -0.3861 -1.1575 -0.6302
17897TIP3    H275183   6.138   5.610   5.815 -3.0116  0.4096 -1.6301
17898TIP3   OH275184   4.576   1.231  13.680 -0.6310 -1.1533 -0.0710
17898TIP3    H175185   4.639   1.293  13.642 -1.1141  0.2120  1.2760
17898TIP3    H275186   4.630   1.157  13.708  0.2950 -0.3187  0.4160
17899TIP3   OH275187   1.333   2.071  16.995  0.1028 -0.7730  0.4381
17899TIP3    H175188   1.380   2.121  16.928  1.0555 -0.6395  1.1814
17899TIP3    H275189   1.241   2.073  16.967  0.6634 -2.0832 -1.7009
17900TIP3   OH275190   4.393   5.472  14.068 -0.2545  0.0270  0.8247
17900TIP3    H175191   4.483   5.453  14.094 -0.0566 -0.4294 -0.1601
17900TIP3    H275192   4.399   5.506  13.979 -0.9463  1.3267  1.2568
17901TIP3   OH275193   5.556   5.763   0.231  0.3684  0.0882 -0.1616
17901TIP3    H175194   5.616   5.715   0.288  1.5379 -0.1714 -1.5499
17901TIP3    H275195   5.474   5.768   0.281  1.2247 -0.4383  1.3672
17902TIP3   OH275196   6.393   0.770   0.484 -0.2022  0.1705  0.2073
17902TIP3    H175197   6.307   0.761   0.526 -1.1372  1.8220 -1.2205
17902TIP3    H275198   6.373   0.771   0.390  1.1019  2.7278 -0.1118
17903TIP3   OH275199   6.079   1.683  11.011  0.6238 -0.4842  0.0904
17903TIP3    H175200   6.095   1.605  10.957 -1.2489 -0.3743 -0.6944
17903TIP3    H275201   6.088   1.651  11.101  0.7128 -1.4194 -0.2363
17904TIP3   OH275202   2.364   5.349   4.268  0.1599  0.5872 -0.0184
17904TIP3    H175203   2.452   5.371   4.239 -0.4981  0.6719 -2.1064
17904TIP3    H275204   2.376   5.278   4.331  1.6205 -1.0419 -2.0079
17905TIP3   OH275205   5.986   4.264  14.254  0.5363 -0.1521 -0.3252
17905TIP3    H175206   6.080   4.280  14.254  0.9358 -2.1684  0.5763
17905TIP3    H275207   5.951   4.322  14.186  2.2120  1.6224  0.2292
17906TIP3   OH275208   6.564   1.036   5.878  0.5333  0.0212 -0.1330
17906TIP3    H175209   6.555   1.098   5.950  0.0302 -0.2335  0.0233
17906TIP3    H275210   6.646   0.990   5.895  0.3263 -0.1612  0.3699
17907TIP3   OH275211   4.030   3.407  11.682 -0.1573 -0.1572 -0.0483
17907TIP3    H175212   4.081   3.481  11.650 -0.9136  0.8388  0.9333
17907TIP3    H275213   4.095   3.347  11.718  0.3961  0.6226  0.2907
17908TIP3   OH275214   6.550   3.272   1.829  0.0799 -0.4871  0.1460
17908TIP3    H175215   6.643   3.290   1.844  0.2817 -0.6037 -0.8638
17908TIP3    H275216   6.525   3.333   1.759 -0.2503 -1.3898 -0.5420
17909TIP3   OH275217   2.565   3.304  16.632  0.5371  0.0737 -0.6442
17909TIP3    H175218   2.604   3.368  16.572  1.8910 -0.0713  0.0353
17909TIP3    H275219   2.472   3.323  16.630  0.9601  2.7206  0.2348
17910TIP3   OH275220   2.357   3.591   0.688 -0.0661  0.1955 -0.4391
17910TIP3    H175221   2.422   3.570   0.754 -1.9389  0.0898  1.4973
17910TIP3    H275222   2.376   3.681   0.662  0.9737  0.0817 -0.0981
17911TIP3   OH275223   1.416   2.419  15.253  0.8026 -0.3097 -0.3416
17911TIP3    H175224   1.379   2.450  15.336  2.3120 -0.6951  0.5203
17911TIP3    H275225   1.484   2.483  15.232  0.5438 -0.3086 -1.2153
17912TIP3   OH275226   4.972   4.425  16.218 -0.4269  0.3525 -0.0382
17912TIP3    H175227   4.940   4.396  16.304 -0.1968  0.7666  0.1887
17912TIP3    H275228   5.054   4.470  16.237 -0.0111 -0.1695 -0.5496
17913TIP3   OH275229   3.402   1.247   0.758 -0.6676 -0.8203  0.2986
17913TIP3    H175230   3.480   1.209   0.798 -0.1368 -0.5350 -0.4356
17913TIP3    H275231   3.379   1.320   0.817  0.4211 -0.0642 -0.1673
17914TIP3   OH275232   6.027   5.642  15.277  0.1749 -0.3023  0.4006
17914TIP3    H175233   6.087   5.586  15.229  1.6554  1.2576  0.3500
17914TIP3    H275234   6.084   5.704  15.324 -1.3649  1.9783 -0.5423
17915TIP3   OH275235   1.040   6.099  16.226 -0.1165  0.2433 -0.0498
17915TIP3    H175236   0.966   6.043  16.251 -0.6629  0.8975 -0.1686
17915TIP3    H275237   1.070   6.063  16.143 -1.1207  0.7380 -0.6404
17916TIP3   OH275238   5.313   0.323  16.234 -0.5143  0.2275 -0.2378
17916TIP3    H175239   5.384   0.258  16.242 -0.1757  0.7752  4.1663
17916TIP3    H275240   5.233   0.270  16.235 -0.1951 -0.2719 -0.2578
17917TIP3   OH275241   6.070   3.282  16.635  0.1786  0.3205  0.3376
17917TIP3    H175242   6.040   3.356  16.687 -0.9603  0.1824 -0.0793
17917TIP3    H275243   6.015   3.285  16.556  1.8497  0.5322 -0.8742
17918TIP3   OH275244   0.890   4.229  11.099 -0.1624 -0.3846  0.1946
17918TIP3    H175245   0.821   4.251  11.037  0.7015  0.7308 -0.4204
17918TIP3    H275246   0.938   4.157  11.059  0.3512  0.2887 -0.4410
17919TIP3   OH275247   6.398   1.702  15.856 -0.1529  0.0211 -0.8458
17919TIP3    H175248   6.319   1.681  15.907  0.7306 -0.7944  0.2555
17919TIP3    H275249   6.470   1.692  15.919  0.8074  1.0886 -1.7351
17920TIP3   OH275250   2.066   6.163   4.443  0.0231  0.2452 -0.6181
17920TIP3    H175251   2.074   6.080   4.397 -1.5034  0.6804 -1.7188
17920TIP3    H275252   2.154   6.200   4.440  0.3722 -0.6210 -1.4667
17921TIP3   OH275253   6.223   2.631   1.569  0.7939  0.6584  0.0673
17921TIP3    H175254   6.130   2.644   1.548  0.8212  3.1346  1.2137
17921TIP3    H275255   6.224   2.551   1.622 -0.4107 -0.4049 -1.4090
17922TIP3   OH275256   2.901   4.630  16.766 -0.3402 -0.4003  0.2154
17922TIP3    H175257   2.859   4.545  16.779 -1.2466  0.0257  0.1669
17922TIP3    H275258   2.829   4.689  16.741  0.1240  0.5758  1.0797
17923TIP3   OH275259   4.712   0.618   0.477 -0.4840  0.0816 -0.1103
17923TIP3    H175260   4.762   0.691   0.439 -1.2970 -0.3534 -2.1431
17923TIP3    H275261   4.774   0.575   0.536  0.9410  0.6978 -1.0964
17924TIP3   OH275262   2.448   6.684  12.068 -0.3204  0.0967 -0.1660
17924TIP3    H175263   2.497   6.757  12.105  0.4939  0.0100 -1.0340
17924TIP3    H275264   2.371   6.675  12.124 -0.7843  2.0550 -0.4380
17925TIP3   OH275265   1.483   4.956   4.793  0.2315  0.6764  0.2481
17925TIP3    H175266   1.523   4.870   4.782 -0.2443 -0.1006  3.5745
17925TIP3    H275267   1.538   5.015   4.741  0.4295 -1.5754 -2.3248
17926TIP3   OH275268   6.355   1.226   4.639  0.3653  0.4346  0.1178
17926TIP3    H175269   6.406   1.213   4.719 -1.0970 -1.5313  0.8143
17926TIP3    H275270   6.289   1.291   4.664 -0.0298 -0.1048  0.5010
17927TIP3   OH275271   2.412   5.297   5.940 -0.2053 -0.0079 -0.2275
17927TIP3    H175272   2.396   5.227   6.004  0.3445  0.6130  0.6083
17927TIP3    H275273   2.486   5.345   5.976 -0.4698  0.9050 -0.8855
17928TIP3   OH275274   6.738   5.825   0.080 -0.5027 -0.3268  0.2739
17928TIP3    H175275   6.769   5.759   0.141 -1.8790 -0.1732  1.1937
17928TIP3    H275276   6.645   5.834   0.100 -0.4647  1.4926 -0.2000
17929TIP3   OH275277   5.111   4.312  13.817  0.2928 -0.3239 -0.0016
17929TIP3    H175278   5.088   4.248  13.750 -0.8722 -0.6782  0.7196
17929TIP3    H275279   5.206   4.301  13.828  0.1714 -1.7199 -0.1047
17930TIP3   OH275280   4.156   3.974  12.918 -0.3809  0.3037 -0.9076
17930TIP3    H175281   4.182   3.964  13.010 -1.9971 -1.5211 -0.5674
17930TIP3    H275282   4.183   4.062  12.894  0.7203  0.5626  1.1083
17931TIP3   OH275283   5.952   0.153   1.742 -0.0205 -0.6432  0.2738
17931TIP3    H175284   5.858   0.145   1.723  0.1612  0.8340 -1.5893
17931TIP3    H275285   5.989   0.070   1.712 -0.5793 -0.7482 -0.1588
17932TIP3   OH275286   6.680   2.782  13.657 -0.2223 -0.2829 -0.2940
17932TIP3    H175287   6.698   2.701  13.706 -1.6435  0.7604  2.1341
17932TIP3    H275288   6.742   2.845  13.692 -0.9661  0.3729 -0.1277
17933TIP3   OH275289   4.011   3.944   1.401  0.4875 -0.5011  0.2933
17933TIP3    H175290   4.061   3.939   1.482 -1.1803 -0.2597  1.3806
17933TIP3    H275291   3.957   3.865   1.400 -0.3088  0.0286 -0.0138
17934TIP3   OH275292   3.033   6.331   5.334  0.5462 -0.3211  0.1186
17934TIP3    H175293   3.034   6.383   5.254 -0.9304 -0.4228  0.0171
17934TIP3    H275294   3.074   6.248   5.310  3.9321  1.0489  0.5343
17935TIP3   OH275295   4.851   2.859  16.058 -0.2586  0.5133 -0.1821
17935TIP3    H175296   4.763   2.877  16.027 -0.6100  1.2231  1.1786
17935TIP3    H275297   4.906   2.923  16.014 -0.3311 -0.1955 -1.3542
17936TIP3   OH275298   2.937   0.047  12.335 -0.0928  0.0470 -0.0038
17936TIP3    H175299   2.851   0.089  12.340  0.1230  0.4792  0.1069
17936TIP3    H275300   2.953   0.036  12.241  0.1230  0.7793 -0.0550
17937TIP3   OH275301   3.839   3.788  15.958  0.1196  0.4659 -0.5864
17937TIP3    H175302   3.917   3.765  15.908  0.3490 -0.5096  0.1667
17937TIP3    H275303   3.767   3.781  15.896  0.2235 -2.0986 -0.5142
17938TIP3   OH275304   2.489   6.732   1.617 -0.0897 -0.1938  0.1632
17938TIP3    H175305   2.440   6.658   1.582  1.7503 -1.2163 -0.3505
17938TIP3    H275306   2.444   6.753   1.699 -2.0766 -0.2912 -0.8203
17939TIP3   OH275307   5.180   3.270  13.607  0.0182  0.0083 -0.5760
17939TIP3    H175308   5.233   3.326  13.663  0.4542  0.5111 -1.4828
17939TIP3    H275309   5.192   3.182  13.643  1.0404  0.1949 -0.4424
17940TIP3   OH275310   5.692   0.057   5.644 -0.4003  0.3677  0.3509
17940TIP3    H175311   5.683   0.152   5.632  0.2236  0.3394 -0.3875
17940TIP3    H275312   5.779   0.036   5.610  0.1284 -0.2441  1.9518
17941TIP3   OH275313   3.301   2.312  12.257  0.2039 -0.4611  0.1252
17941TIP3    H175314   3.228   2.374  12.263 -1.3011 -1.6157 -3.3820
17941TIP3    H275315   3.368   2.359  12.208  0.1112 -0.7374 -0.2723
17942TIP3   OH275316   5.054   0.530   4.252  0.1768 -0.3370 -0.2851
17942TIP3    H175317   5.149   0.545   4.244  0.2443  0.0812  1.0783
17942TIP3    H275318   5.018   0.615   4.278 -0.2140 -1.0479  1.6983
17943TIP3   OH275319   6.381   2.482   4.783  0.3106  0.0087 -0.0911
17943TIP3    H175320   6.303   2.534   4.763  0.0138 -0.5693 -0.4897
17943TIP3    H275321   6.393   2.492   4.877  0.0663  0.5265 -0.1103
17944TIP3   OH275322   5.454   5.520   1.577 -0.2232  0.2177  0.0179
17944TIP3    H175323   5.423   5.575   1.648  0.3114 -0.2975  0.6712
17944TIP3    H275324   5.541   5.491   1.606  0.0322  0.0515 -0.8755
17945TIP3   OH275325   3.956   3.061   1.173 -0.0695  0.6566  0.3718
17945TIP3    H175326   3.887   3.056   1.107  1.4639 -0.0518 -1.2728
17945TIP3    H275327   3.931   2.998   1.241 -0.8956  0.2218 -0.3236
17946TIP3   OH275328   1.219   6.317  11.366  0.2088  0.0768  0.0540
17946TIP3    H175329   1.235   6.390  11.426  0.4433 -0.5719  0.7884
17946TIP3    H275330   1.300   6.265  11.369  0.6291  0.5500 -1.5833
17947TIP3   OH275331   3.922   5.021  14.078 -0.2552  0.2142  0.3952
17947TIP3    H175332   3.859   5.077  14.033  0.0726  1.4246  1.3896
17947TIP3    H275333   3.998   5.018  14.020  0.0055  1.4140  0.6488
17948TIP3   OH275334   0.317   4.247   0.989  0.3814 -0.4374  0.3704
17948TIP3    H175335   0.343   4.328   0.944  3.7612  0.6655  3.8112
17948TIP3    H275336   0.362   4.178   0.940  1.4741  0.3565  0.1927
17949TIP3   OH275337   5.561   0.284  14.716 -0.0557 -0.0547  0.1675
17949TIP3    H175338   5.470   0.258  14.728  0.0731  0.2918  2.2446
17949TIP3    H275339   5.595   0.295  14.805  1.7389  0.7744 -0.5676
17950TIP3   OH275340   2.294   1.646   4.631 -0.6192 -0.1742 -0.2980
17950TIP3    H175341   2.264   1.555   4.623  0.3066 -0.7637  2.0157
17950TIP3    H275342   2.213   1.697   4.639 -1.1396 -1.1822  1.3765
17951TIP3   OH275343   1.072   4.507   4.681  0.2552 -1.0309  0.4013
17951TIP3    H175344   0.998   4.564   4.658  0.9131 -0.7314 -1.0879
17951TIP3    H275345   1.081   4.449   4.606  1.5236 -1.0665  0.5744
17952TIP3   OH275346   4.499   5.299   4.492  0.1703  0.6614 -0.2474
17952TIP3    H175347   4.557   5.327   4.562 -0.6234  0.5951  0.4484
17952TIP3    H275348   4.459   5.380   4.460 -0.5385  0.5536  0.3459
17953TIP3   OH275349   2.168   0.181  16.992  0.0561  0.5807  0.2043
17953TIP3    H175350   2.174   0.258  16.935 -0.0130 -1.0447 -2.1450
17953TIP3    H275351   2.074   0.161  16.994 -0.1634  1.4900  2.2664
17954TIP3   OH275352   3.725   6.211  11.406  0.3570 -0.1052  0.0301
17954TIP3    H175353   3.773   6.293  11.419  0.6525  0.0577 -1.8803
17954TIP3    H275354   3.744   6.185  11.316  1.4084 -3.0409  0.9858
17955TIP3   OH275355   6.486   1.680   0.051 -0.1693 -0.2113  0.3546
17955TIP3    H175356   6.424   1.639  -0.010 -0.1101 -1.1271  0.8913
17955TIP3    H275357   6.520   1.756   0.003 -0.0504 -0.9614 -0.7957
17956TIP3   OH275358   2.906   2.213  12.168 -0.4177 -0.3293  0.4294
17956TIP3    H175359   2.888   2.150  12.238 -0.1640 -1.1061 -0.1966
17956TIP3    H275360   2.884   2.167  12.088  3.8947 -1.2993 -0.4382
17957TIP3   OH275361   4.520   1.958   6.417  0.5656 -0.3314  0.1297
17957TIP3    H175362   4.458   1.978   6.487 -0.3388  0.5335 -0.8728
17957TIP3    H275363   4.506   1.865   6.399  0.7974 -0.5582  1.0761
17958TIP3   OH275364   5.451   3.202   5.322 -0.2701  0.0086 -0.0166
17958TIP3    H175365   5.539   3.165   5.335  0.0936  1.5624  2.4465
17958TIP3    H275366   5.407   3.138   5.265  1.6892 -1.9938  0.5598
17959TIP3   OH275367   3.027   0.502   1.195  0.2671 -0.3444  0.2547
17959TIP3    H175368   3.111   0.548   1.197 -0.0940  0.3760 -0.6777
17959TIP3    H275369   2.970   0.553   1.252 -0.3420  0.8396 -1.3339
17960TIP3   OH275370   1.550   6.163   1.193 -0.2573  0.1096 -0.4015
17960TIP3    H175371   1.462   6.165   1.231 -0.4844  0.5669 -0.9396
17960TIP3    H275372   1.536   6.141   1.101  0.0009  2.0952 -0.9753
17961TIP3   OH275373   2.711   2.224  16.787  0.5509  0.5484 -0.1777
17961TIP3    H175374   2.738   2.300  16.734  0.4872  0.8292  0.1874
17961TIP3    H275375   2.619   2.240  16.807  1.1326  1.6201  1.9494
17962TIP3   OH275376   6.631   0.891  13.981  0.6572  0.1329 -0.3307
17962TIP3    H175377   6.594   0.808  13.953 -0.6453  0.4504  0.3868
17962TIP3    H275378   6.675   0.925  13.903  0.6050 -0.8871 -0.8193
17963TIP3   OH275379   2.618   2.352  12.363 -0.0598  0.0284 -0.1125
17963TIP3    H175380   2.653   2.420  12.306  0.1297 -0.0677 -0.1108
17963TIP3    H275381   2.576   2.399  12.434  1.0949  0.1319  0.5177
17964TIP3   OH275382   3.460   0.979  15.426 -0.0528  0.1283  0.5453
17964TIP3    H175383   3.485   0.945  15.340  1.0466  1.8904  0.1120
17964TIP3    H275384   3.531   0.952  15.484 -1.1286 -1.6444  1.0825
17965TIP3   OH275385   2.821   1.965  15.701 -0.3110 -0.4193  0.0918
17965TIP3    H175386   2.732   1.944  15.730 -1.0998  1.3358 -0.9184
17965TIP3    H275387   2.812   1.990  15.609  1.4507 -1.4605 -0.4198
17966TIP3   OH275388   3.970   2.300  10.940  0.3859 -0.4310  0.6096
17966TIP3    H175389   4.018   2.357  10.879  1.2274  0.8651  2.3907
17966TIP3    H275390   4.038   2.245  10.980 -0.2099 -1.5489  0.1195
17967TIP3   OH275391   4.752   4.279  16.019 -0.6078 -0.2117  0.1501
17967TIP3    H175392   4.753   4.190  15.984  0.0487  0.1279 -0.7461
17967TIP3    H275393   4.812   4.276  16.094 -0.2338 -0.4227 -0.1539
17968TIP3   OH275394   5.746   2.562   1.134  0.3819  0.4624 -0.3692
17968TIP3    H175395   5.743   2.493   1.201 -0.8074 -0.0054 -0.8691
17968TIP3    H275396   5.660   2.603   1.139  1.1545  2.0846  0.0694
17969TIP3   OH275397   1.746   3.040  10.209  0.4816 -0.1417  0.0277
17969TIP3    H175398   1.674   2.978  10.223  0.4616 -0.0056  0.5554
17969TIP3    H275399   1.738   3.066  10.117  1.3411 -1.9754 -0.6119
17970TIP3   OH275400   0.326   5.210   4.939 -0.0311 -0.0834  0.0052
17970TIP3    H175401   0.412   5.176   4.967 -0.1940 -0.4508  0.0715
17970TIP3    H275402   0.270   5.197   5.016 -0.4517 -0.9906 -0.4382
17971TIP3   OH275403   3.898   3.920   1.856  0.7093 -0.4277  0.2844
17971TIP3    H175404   3.977   3.966   1.827  0.1733 -1.2790 -2.8485
17971TIP3    H275405   3.908   3.831   1.822 -1.2168 -0.7839  0.5580
17972TIP3   OH275406   3.194   6.715  12.681 -0.5173 -0.2590  0.5611
17972TIP3    H175407   3.275   6.665  12.691  0.7687  1.8752  1.5058
17972TIP3    H275408   3.179   6.718  12.586  1.2696  0.4016  0.2588
17973TIP3   OH275409   4.516   6.350   4.823  0.3474  0.4357  0.4880
17973TIP3    H175410   4.518   6.341   4.728  2.2685  3.8902  0.0482
17973TIP3    H275411   4.579   6.285   4.855  0.8298  0.2785 -0.7238
17974TIP3   OH275412   0.633   5.556   1.050 -0.3182 -0.3780  0.8520
17974TIP3    H175413   0.711   5.531   1.099 -0.6877 -1.4754  0.8977
17974TIP3    H275414   0.599   5.474   1.014 -0.8578  0.2202 -0.0602
17975TIP3   OH275415   0.527   3.818  16.933  0.0787  0.4223  0.4865
17975TIP3    H175416   0.587   3.892  16.938  0.6870 -0.0909  1.1409
17975TIP3    H275417   0.551   3.772  16.853  0.1637  0.5405  0.4436
17976TIP3   OH275418   1.068   4.752   2.271 -0.1728  0.1726  0.6378
17976TIP3    H175419   1.095   4.709   2.190 -0.7276  1.0788 -0.0488
17976TIP3    H275420   1.018   4.828   2.242  1.0315  1.4627  1.7933
17977TIP3   OH275421   5.778   3.608   0.386  0.0225 -0.2787 -0.3374
17977TIP3    H175422   5.778   3.703   0.394  1.0978 -0.2736 -0.3035
17977TIP3    H275423   5.823   3.591   0.303  0.3893 -0.7738 -0.0405
17978TIP3   OH275424   3.682   1.370   5.072  0.3061 -0.1514 -0.1359
17978TIP3    H175425   3.704   1.327   5.155 -1.6544 -0.4592  0.2632
17978TIP3    H275426   3.605   1.422   5.091  0.0271  0.0651 -1.6929
17979TIP3   OH275427   2.119   3.119   4.026  0.0823 -0.3922 -0.5536
17979TIP3    H175428   2.061   3.185   3.988  0.7783  0.9047  0.5364
17979TIP3    H275429   2.109   3.130   4.121 -0.7873 -2.7917 -0.3125
17980TIP3   OH275430   5.938   5.705   5.071  0.1740  0.3197  0.3317
17980TIP3    H175431   5.919   5.787   5.116 -0.0667 -0.0729  0.9547
17980TIP3    H275432   5.940   5.639   5.140  0.3812 -0.1980 -0.1603
17981TIP3   OH275433   1.139   3.235  12.046 -0.3397 -0.1303  0.2020
17981TIP3    H175434   1.194   3.280  12.111 -1.6066  0.2048  1.0830
17981TIP3    H275435   1.060   3.211  12.094 -0.5847 -1.4575 -0.7952
17982TIP3   OH275436   1.762   3.430   1.016 -0.0911 -0.1894  0.2883
17982TIP3    H175437   1.672   3.450   1.040 -0.6751 -2.4670  0.2339
17982TIP3    H275438   1.809   3.425   1.099  0.5116  2.8211  0.2536
17983TIP3   OH275439   1.405   4.406  13.449 -0.9290  0.1289  0.1518
17983TIP3    H175440   1.393   4.318  13.413 -0.8825  0.7159 -1.4131
17983TIP3    H275441   1.413   4.462  13.371 -0.7447  1.4838  1.1132
17984TIP3   OH275442   4.364   4.204   5.477 -0.8711 -0.4254 -0.0016
17984TIP3    H175443   4.347   4.134   5.414  1.4309 -0.8531 -0.2595
17984TIP3    H275444   4.447   4.178   5.519 -1.4958  0.6706  2.0368
17985TIP3   OH275445   1.097   0.067   2.597 -0.1216  0.4939  0.0659
17985TIP3    H175446   1.189   0.067   2.568  0.3870  2.3771  1.4829
17985TIP3    H275447   1.102   0.061   2.692 -1.4254  1.5292  0.2227
17986TIP3   OH275448   4.353   3.144   1.430  0.5000  0.0881  0.1070
17986TIP3    H175449   4.387   3.137   1.341 -0.3237  0.3677 -0.2409
17986TIP3    H275450   4.263   3.113   1.424 -0.3552  2.3584  0.3463
17987TIP3   OH275451   3.059   4.584  16.977 -0.7284 -0.3895 -0.1299
17987TIP3    H175452   2.994   4.586  16.906 -0.7423  0.1192 -0.1037
17987TIP3    H275453   3.074   4.676  16.998 -0.8266 -0.5398  0.6241
17988TIP3   OH275454   1.605   1.872   3.013 -0.1538 -0.1624  0.3843
17988TIP3    H175455   1.542   1.851   3.082 -0.1742  0.4684  0.5615
17988TIP3    H275456   1.582   1.961   2.986  1.6142  0.6817  1.4989
17989TIP3   OH275457   3.772   4.683   2.079  0.3283  0.4088  0.0263
17989TIP3    H175458   3.774   4.607   2.021  0.3685 -0.3716  1.0182
17989TIP3    H275459   3.728   4.651   2.158 -0.1999  1.5893  0.2335
17990TIP3   OH275460   1.597   2.686  11.635 -0.9839 -0.3312  0.4911
17990TIP3    H175461   1.644   2.714  11.714 -2.1339 -1.3135  1.5589
17990TIP3    H275462   1.631   2.598  11.617  1.6031  0.9971 -2.0455
17991TIP3   OH275463   2.234   0.969  16.493  0.0942  0.2695  0.2501
17991TIP3    H175464   2.236   1.032  16.421  0.6425  0.1117  0.1291
17991TIP3    H275465   2.317   0.921  16.487 -0.1786 -0.2532  0.5336
17992TIP3   OH275466   0.633   0.020   1.217 -0.2654 -0.2638 -0.1201
17992TIP3    H175467   0.613  -0.071   1.199  0.4126 -0.1046 -1.8276
17992TIP3    H275468   0.590   0.069   1.146  0.1711  0.6668  0.2344
17993TIP3   OH275469   6.579   3.736   3.747  0.4357 -0.2902 -0.4922
17993TIP3    H175470   6.518   3.663   3.750  0.7711 -0.5483  1.3886
17993TIP3    H275471   6.597   3.748   3.654 -2.6878  0.0353 -1.1577
17994TIP3   OH275472   5.924   1.999  14.889 -0.8823  0.3280  0.2135
17994TIP3    H175473   6.006   2.042  14.915 -1.4991  0.4964  2.0203
17994TIP3    H275474   5.901   2.039  14.806 -0.7094  2.5248  1.1622
17995TIP3   OH275475   0.795   2.969  16.390 -0.7087  0.2117  0.3748
17995TIP3    H175476   0.834   3.051  16.360  1.1998 -0.9063 -0.3938
17995TIP3    H275477   0.868   2.922  16.430 -1.6094 -1.3942  0.2057
17996TIP3   OH275478   0.625   0.750  11.054 -0.0865  0.2436  0.0422
17996TIP3    H175479   0.557   0.704  11.104  1.2605 -0.3845  1.3791
17996TIP3    H275480   0.645   0.692  10.981  0.3900 -0.5432  0.7683
17997TIP3   OH275481   3.341   5.354   2.017  0.2052  0.0193 -0.4233
17997TIP3    H175482   3.268   5.292   2.018  0.5950 -0.4571 -0.6144
17997TIP3    H275483   3.418   5.299   2.002  0.6824  0.4313  0.4398
17998TIP3   OH275484   5.570   1.603   6.400  0.0596  0.6989 -0.0089
17998TIP3    H175485   5.644   1.603   6.340  1.1720 -0.3256  1.2877
17998TIP3    H275486   5.542   1.695   6.404  1.6203  1.2116 -0.1196
17999TIP3   OH275487   3.095   3.411  16.603  0.0566 -0.4719 -0.2735
17999TIP3    H175488   3.013   3.450  16.570 -0.4606  0.1682  1.6181
17999TIP3    H275489   3.164   3.466  16.565 -0.6149  1.6974  1.4045
18000TIP3   OH275490   0.974   1.764   4.429  0.1550 -0.4264 -0.7128
18000TIP3    H175491   0.986   1.695   4.364 -0.1069 -0.4237 -0.7670
18000TIP3    H275492   0.990   1.722   4.513 -1.0233 -0.8214 -0.6647
18001TIP3   OH275493   3.055   5.281   4.835  0.0223 -0.1733  0.0876
18001TIP3    H175494   3.028   5.193   4.812 -1.6831  0.1419  0.7813
18001TIP3    H275495   3.046   5.331   4.753 -3.3887  0.3259  0.6219
18002TIP3   OH275496   5.715   3.909  12.429  0.2251  0.3590  0.5726
18002TIP3    H175497   5.621   3.915  12.450 -0.1716 -1.5025 -0.4690
18002TIP3    H275498   5.752   3.854  12.498 -0.1667 -1.7743 -0.8210
18003TIP3   OH275499   0.586   0.834  16.390  0.1865 -0.2726  0.0031
18003TIP3    H175500   0.514   0.897  16.386  1.1457  1.0191  1.6506
18003TIP3    H275501   0.657   0.883  16.432  1.5273 -1.9603 -0.2344
18004TIP3   OH275502   0.294   0.488  14.942  0.0962 -0.2701 -0.2198
18004TIP3    H175503   0.254   0.574  14.931  0.9335  0.1666  0.0361
18004TIP3    H275504   0.366   0.503  15.004 -0.4943 -1.3904  0.7688
18005TIP3   OH275505   1.753   2.244  12.616  0.3932  0.3041  0.0087
18005TIP3    H175506   1.691   2.171  12.615  1.9988 -1.1169 -0.5336
18005TIP3    H275507   1.764   2.265  12.709 -0.4833  0.2404  0.1394
18006TIP3   OH275508   0.202   4.847   3.517 -0.0911 -0.4256  0.5673
18006TIP3    H175509   0.246   4.780   3.569 -0.3048 -0.5946  0.5324
18006TIP3    H275510   0.143   4.798   3.460 -1.4236 -0.1308  1.6392
18007TIP3   OH275511   4.096   4.144   1.888  0.1142  0.1004 -0.1579
18007TIP3    H175512   4.179   4.181   1.857  0.1383 -0.5438 -0.8877
18007TIP3    H275513   4.122   4.069   1.942  0.0268 -2.2532 -3.1131
18008TIP3   OH275514   3.913   4.556   6.027 -0.4502 -0.0187  0.1375
18008TIP3    H175515   3.988   4.595   6.071  0.9331 -0.5566 -1.6275
18008TIP3    H275516   3.886   4.483   6.083 -0.1091  0.6010  1.1262
18009TIP3   OH275517   5.380   6.543   4.835  0.3541  0.5507  0.2382
18009TIP3    H175518   5.385   6.456   4.875 -0.2839  0.7706  0.8051
18009TIP3    H275519   5.460   6.587   4.865  1.9110 -0.6012 -1.9539
18010TIP3   OH275520   3.820   1.409  11.415 -0.2411 -0.3516 -0.2233
18010TIP3    H175521   3.788   1.434  11.502  0.8411  0.3309  0.0036
18010TIP3    H275522   3.742   1.408  11.360 -0.9347 -0.6973  0.7281
18011TIP3   OH275523   4.015   4.669  15.448 -0.2317  0.2311 -0.2430
18011TIP3    H175524   4.101   4.645  15.414 -1.2254 -1.8833 -1.4971
18011TIP3    H275525   3.989   4.745  15.396  1.5340  2.0373  1.3587
18012TIP3   OH275526   1.797   5.694  13.492  0.4184  0.2223  0.4992
18012TIP3    H175527   1.708   5.686  13.458  1.4027 -4.0770 -1.7362
18012TIP3    H275528   1.848   5.727  13.417  1.4591 -2.5666 -0.1301
18013TIP3   OH275529   2.175   4.818  13.960 -0.5011  0.0608  0.4745
18013TIP3    H175530   2.137   4.740  13.919  1.7740 -0.5465 -0.6123
18013TIP3    H275531   2.207   4.786  14.045  1.7587 -0.6503 -0.5654
18014TIP3   OH275532   0.235   5.753   1.145  0.0940  0.1152  0.1313
18014TIP3    H175533   0.282   5.686   1.094 -0.4441 -0.7655  0.7498
18014TIP3    H275534   0.143   5.732   1.131 -0.0690 -0.8796  2.3539
18015TIP3   OH275535   2.859   2.007   2.118  0.7419 -0.1242  0.2898
18015TIP3    H175536   2.772   2.018   2.156  1.0690 -1.2609  1.4281
18015TIP3    H275537   2.842   1.995   2.024 -0.3027 -0.0692  0.4593
18016TIP3   OH275538   2.313   6.259   3.728  0.1916 -0.4500  0.0688
18016TIP3    H175539   2.408   6.259   3.735  0.2207 -0.6159 -0.3528
18016TIP3    H275540   2.294   6.222   3.642 -0.2254  0.3923 -0.2130
18017TIP3   OH275541   1.130   6.014  15.615  0.4060  0.6694 -0.0199
18017TIP3    H175542   1.136   5.919  15.607  0.2129  0.6168  0.3934
18017TIP3    H275543   1.041   6.029  15.647  1.0395  0.8584  1.7389
18018TIP3   OH275544   1.844   1.032  11.976 -0.0401 -0.0883  0.3853
18018TIP3    H175545   1.925   1.040  12.027 -0.4659  0.6055  0.9725
18018TIP3    H275546   1.782   1.088  12.022  0.1528  2.4476 -2.1499
18019TIP3   OH275547   2.109   5.910  16.731  0.2721  0.0714 -0.1610
18019TIP3    H175548   2.160   5.991  16.739  1.1945 -0.4528 -0.6334
18019TIP3    H275549   2.026   5.930  16.776  0.8879  0.9283  0.6388
18020TIP3   OH275550   0.059   5.797  13.252  0.3678  0.3869  0.2789
18020TIP3    H175551   0.021   5.789  13.165  1.9815  1.0106 -0.5208
18020TIP3    H275552   0.040   5.714  13.295  2.2556 -1.2347 -1.8124
18021TIP3   OH275553   1.211   4.759   2.828  0.2902 -0.1687  0.1930
18021TIP3    H175554   1.160   4.749   2.747 -0.8313  0.0123  0.8691
18021TIP3    H275555   1.299   4.731   2.803 -0.7397 -3.4438 -0.2520
18022TIP3   OH275556   3.022   4.933  15.537  0.4214  0.0105  0.1559
18022TIP3    H175557   3.115   4.945  15.518  0.5254  0.8174  1.1521
18022TIP3    H275558   3.014   4.943  15.631 -0.5169 -1.1706  0.2371
18023TIP3   OH275559   0.424   6.384   3.547  0.2043 -0.4853  0.2681
18023TIP3    H175560   0.422   6.302   3.497  1.3553 -1.1815  1.3050
18023TIP3    H275561   0.343   6.383   3.599  1.2273 -2.1292  1.9757
18024TIP3   OH275562   4.819   2.206   5.525 -0.2374 -0.0024 -0.2339
18024TIP3    H175563   4.901   2.227   5.479 -0.3703  1.5707  0.1617
18024TIP3    H275564   4.848   2.181   5.613 -0.1354 -0.1537 -0.3102
18025TIP3   OH275565   1.761   5.662  12.060  0.0749  0.5985 -0.8202
18025TIP3    H175566   1.839   5.689  12.109  0.4050  0.0547 -1.0414
18025TIP3    H275567   1.738   5.739  12.008  0.0005  1.0271 -0.1705
18026TIP3   OH275568   3.333   0.761  16.966 -0.1867  0.0019 -0.1699
18026TIP3    H175569   3.352   0.797  17.053  1.2090 -0.6285 -0.1932
18026TIP3    H275570   3.239   0.743  16.968 -0.2669  0.4436  1.0377
18027TIP3   OH275571   5.558   5.287   0.978  0.0599  0.1520  0.2124
18027TIP3    H175572   5.563   5.338   1.059 -2.5075 -0.3192  0.7589
18027TIP3    H275573   5.601   5.204   0.998 -0.2482  0.1738  0.9755
18028TIP3   OH275574   0.280   0.557   2.504 -0.0956  0.4671 -0.5076
18028TIP3    H175575   0.219   0.599   2.443 -0.8252  2.9365  1.7706
18028TIP3    H275576   0.333   0.629   2.539  0.1216 -0.8102  1.9545
18029TIP3   OH275577   2.778   3.842   6.118 -0.1548 -0.2985 -0.2089
18029TIP3    H175578   2.709   3.904   6.143 -1.8367 -1.8001 -0.9225
18029TIP3    H275579   2.817   3.815   6.201 -3.5362 -2.8419  0.7726
18030TIP3   OH275580   6.385   4.404   1.866 -0.1298 -0.3760 -0.1079
18030TIP3    H175581   6.438   4.472   1.825  0.1109  1.5996  3.0595
18030TIP3    H275582   6.326   4.373   1.797  0.1162  2.7067 -1.8829
18031TIP3   OH275583   3.787   2.620   2.293  0.4797 -0.6333 -0.1780
18031TIP3    H175584   3.851   2.602   2.362 -0.4228  0.8908  1.1105
18031TIP3    H275585   3.712   2.564   2.315  0.1046  0.0181  0.2258
18032TIP3   OH275586   2.380   0.428  14.266  0.3348 -0.3834 -0.1930
18032TIP3    H175587   2.322   0.393  14.334 -1.1763 -0.5370 -1.5133
18032TIP3    H275588   2.432   0.352  14.238 -0.6758 -0.8808 -0.8001
18033TIP3   OH275589   2.302   5.001  16.199 -0.5137  0.0056  0.1282
18033TIP3    H175590   2.296   5.014  16.293  0.4445  2.4796 -0.0646
18033TIP3    H275591   2.386   5.040  16.174 -0.5780 -0.8959 -1.7108
18034TIP3   OH275592   1.605   5.962  15.135 -0.0208  0.3131 -0.2237
18034TIP3    H175593   1.644   5.940  15.050  0.9475  1.0936 -0.0088
18034TIP3    H275594   1.511   5.952  15.122  0.0976  0.5905 -1.4490
18035TIP3   OH275595   1.180   4.476  11.999  0.1062 -0.2669 -0.4553
18035TIP3    H175596   1.118   4.520  12.057 -0.5238 -0.9770 -0.5599
18035TIP3    H275597   1.260   4.528  12.004 -0.5707  0.8218 -0.4998
18036TIP3   OH275598   0.309   2.406  16.818 -0.2905 -0.1544  0.0463
18036TIP3    H175599   0.223   2.447  16.827 -1.2359 -2.0978  0.3310
18036TIP3    H275600   0.312   2.375  16.728  0.4771  0.6193 -0.2114
18037TIP3   OH275601   4.929   6.788  16.542 -0.1776  0.2759 -0.3071
18037TIP3    H175602   4.844   6.800  16.499 -0.1638 -0.6656 -0.6252
18037TIP3    H275603   4.909   6.734  16.618 -0.1004  1.4080  0.5358
18038TIP3   OH275604   3.270   1.588  14.897 -0.1092 -0.1517 -0.8154
18038TIP3    H175605   3.321   1.646  14.839  0.2646 -2.7856 -3.3373
18038TIP3    H275606   3.335   1.527  14.932 -0.8796 -0.7591 -0.4266
18039TIP3   OH275607   2.970   4.651   4.637 -0.4235 -0.9172  0.5903
18039TIP3    H175608   3.040   4.687   4.582  0.4593 -1.7077  1.1634
18039TIP3    H275609   2.890   4.690   4.603  0.4571  1.5174  1.0842
18040TIP3   OH275610   1.452   1.154  13.871 -0.1368 -0.7326 -0.2225
18040TIP3    H175611   1.429   1.164  13.778  0.6031 -2.4836 -0.6363
18040TIP3    H275612   1.379   1.103  13.908  0.2551 -1.2636 -0.1784
18041TIP3   OH275613   6.439   5.769   1.505  0.6287 -0.4445 -0.7909
18041TIP3    H175614   6.496   5.845   1.516  1.8048 -1.6856  3.6454
18041TIP3    H275615   6.352   5.800   1.531  0.9040 -0.3572  0.0480
18042TIP3   OH275616   0.033   6.180  13.745 -0.1152 -0.2901 -0.5411
18042TIP3    H175617  -0.009   6.099  13.773  1.8395 -1.4854 -0.9246
18042TIP3    H275618   0.127   6.162  13.751  0.3810  2.0017 -0.5003
18043TIP3   OH275619   2.834   2.480   5.886  0.0924 -0.2901 -0.4437
18043TIP3    H175620   2.843   2.573   5.906  0.2533 -0.4460  0.2576
18043TIP3    H275621   2.754   2.474   5.833  0.7711  0.3898 -1.5741
18044TIP3   OH275622   0.708   5.774   0.120  0.1323 -0.0220 -0.2131
18044TIP3    H175623   0.771   5.844   0.137 -0.8764  0.8682 -0.0098
18044TIP3    H275624   0.625   5.820   0.106 -0.4487 -1.1562 -0.6070
18045TIP3   OH275625   5.009   0.038   1.392  0.1571 -0.0860 -0.1906
18045TIP3    H175626   4.936  -0.023   1.398  0.2392 -0.0990  0.8222
18045TIP3    H275627   5.079  -0.003   1.442  0.5839  0.3134 -0.4538
18046TIP3   OH275628   0.878   4.908  13.149  0.0585  0.3636 -0.2628
18046TIP3    H175629   0.863   4.821  13.110  2.6646  0.2231 -1.1231
18046TIP3    H275630   0.875   4.968  13.075 -0.5826  0.8897  0.1753
18047TIP3   OH275631   3.174   2.770   2.372  0.0168  0.7043  0.4844
18047TIP3    H175632   3.154   2.854   2.332  1.5088  0.7984 -0.1108
18047TIP3    H275633   3.266   2.776   2.397 -0.1081 -0.4059  1.3266
18048TIP3   OH275634   5.056   1.040  13.670 -0.1513  0.2705 -0.1233
18048TIP3    H175635   5.113   0.985  13.724  0.2240 -0.4408 -1.2124
18048TIP3    H275636   5.117   1.097  13.623 -0.5135  1.3605  0.6775
18049TIP3   OH275637   5.710   2.332  14.600  0.2582 -0.3547  0.2328
18049TIP3    H175638   5.710   2.415  14.647  1.1302  1.8073 -3.2907
18049TIP3    H275639   5.631   2.334  14.547  0.4692 -1.6505 -0.1673
18050TIP3   OH275640   0.805   2.303  15.643  0.1880  0.4717  0.2469
18050TIP3    H175641   0.818   2.235  15.710 -0.7659  0.2074  0.1670
18050TIP3    H275642   0.718   2.286  15.608  0.9001  0.2405 -1.4849
18051TIP3   OH275643   6.676   1.902  11.479 -0.5714 -0.1644  0.1625
18051TIP3    H175644   6.582   1.922  11.482 -0.7995 -1.2656  1.1629
18051TIP3    H275645   6.687   1.852  11.397 -0.6893  0.6971 -0.3880
18052TIP3   OH275646   2.438   2.216   2.990 -0.3148  0.3891  0.2259
18052TIP3    H175647   2.493   2.139   3.001 -0.9998 -0.5776 -2.3611
18052TIP3    H275648   2.497   2.290   3.002  1.1213 -0.5946 -0.5095
18053TIP3   OH275649   0.726   2.071   1.519 -0.3209  0.8290 -0.0126
18053TIP3    H175650   0.807   2.085   1.469  0.5764 -0.2453  1.0925
18053TIP3    H275651   0.657   2.079   1.453  0.7988 -0.1327 -1.3837
18054TIP3   OH275652   2.832   6.189  17.022 -0.0219 -0.3478  0.7930
18054TIP3    H175653   2.915   6.183  16.975 -0.5126  2.1581 -0.6135
18054TIP3    H275654   2.795   6.101  17.017  1.7265 -1.0837 -0.0959
18055TIP3   OH275655   4.156   1.842  15.294 -0.1441  0.6401 -0.1740
18055TIP3    H175656   4.206   1.834  15.375 -1.2565  0.4761  0.5251
18055TIP3    H275657   4.121   1.931  15.295  0.7661  1.0407 -1.0670
18056TIP3   OH275658   3.041   0.064   4.001 -0.0224 -0.1377  0.1605
18056TIP3    H175659   3.075   0.049   4.089 -2.5174  3.3497  1.9459
18056TIP3    H275660   2.981  -0.009   3.986 -0.0565 -0.4550  1.6597
18057TIP3   OH275661   3.057   4.574   4.884  0.2872  0.4185  0.5953
18057TIP3    H175662   3.022   4.614   4.805 -1.8962  0.5427  1.5459
18057TIP3    H275663   3.100   4.494   4.854 -1.6903 -0.2659 -0.6352
18058TIP3   OH275664   6.520   0.265  11.181 -0.0138 -0.2891 -0.5221
18058TIP3    H175665   6.572   0.344  11.170 -0.1716 -0.1751 -0.4523
18058TIP3    H275666   6.467   0.260  11.101  0.2363 -0.5038 -0.6758
18059TIP3   OH275667   5.167   2.347  14.144 -0.5282  0.2048  0.3983
18059TIP3    H175668   5.096   2.395  14.102  0.1702 -0.0434 -1.1572
18059TIP3    H275669   5.185   2.274  14.084  0.9932  0.2477  0.7646
18060TIP3   OH275670   3.244   0.567  15.243  0.0024  0.0596 -0.4146
18060TIP3    H175671   3.339   0.566  15.249  0.0822  0.3475 -1.3699
18060TIP3    H275672   3.216   0.625  15.314  0.6050  0.7186 -0.7014
18061TIP3   OH275673   5.078   4.426   3.794 -0.2429 -0.2519  0.5290
18061TIP3    H175674   5.121   4.463   3.716 -0.5051 -1.1381 -0.0542
18061TIP3    H275675   5.075   4.498   3.856  0.8517  0.2106  0.0783
18062TIP3   OH275676   4.783   4.171  14.706  0.5589  0.6160 -0.3106
18062TIP3    H175677   4.789   4.209  14.794 -0.6530 -0.2881  0.1924
18062TIP3    H275678   4.853   4.106  14.704  0.1442  0.1437  0.2555
18063TIP3   OH275679   0.552   4.444   0.960  0.3521  0.4058 -0.1481
18063TIP3    H175680   0.623   4.400   1.007 -0.0241  0.9627  0.9776
18063TIP3    H275681   0.595   4.482   0.883  0.7847 -1.4372 -0.8971
18064TIP3   OH275682   5.314   1.088   5.914  0.1530  0.2584 -0.2286
18064TIP3    H175683   5.342   1.115   6.002  2.6838 -3.2886  0.2803
18064TIP3    H275684   5.226   1.053   5.928 -0.7417  2.5322  0.1980
18065TIP3   OH275685   0.124   1.947  12.411  0.0006  0.0881 -0.1513
18065TIP3    H175686   0.155   1.860  12.386 -0.1033  0.3618 -1.3053
18065TIP3    H275687   0.145   1.955  12.504 -0.2071 -1.2578  0.0243
18066TIP3   OH275688   4.719   1.143   3.577  0.2348 -0.2545  0.0696
18066TIP3    H175689   4.638   1.096   3.556  0.2677 -0.5872  0.6831
18066TIP3    H275690   4.690   1.220   3.625  0.0512  1.1674 -2.1493
18067TIP3   OH275691   6.761   5.780   4.929 -1.0433 -0.4147 -0.0483
18067TIP3    H175692   6.670   5.755   4.918 -1.6385  0.9491  1.2674
18067TIP3    H275693   6.758   5.851   4.994  0.7763  0.8723 -1.2657
18068TIP3   OH275694   2.524   3.962   2.646  0.0394  0.4141 -0.6113
18068TIP3    H175695   2.485   3.874   2.647 -1.9324  1.2319  0.3888
18068TIP3    H275696   2.597   3.955   2.585  0.8444 -2.2834  0.5211
18069TIP3   OH275697   4.849   5.426  12.988  0.1013 -0.0205  0.6341
18069TIP3    H175698   4.860   5.333  12.966  0.2833 -0.1580  1.2921
18069TIP3    H275699   4.931   5.451  13.030  0.4336  0.7061 -0.4283
18070TIP3   OH275700   1.258   0.103   4.946 -0.4290  0.8844  0.1256
18070TIP3    H175701   1.182   0.119   4.890 -0.1424 -0.4804 -0.7142
18070TIP3    H275702   1.222   0.067   5.027 -0.7717  1.8320  0.4098
18071TIP3   OH275703   0.930   5.136  11.031 -0.0879 -0.4659 -0.5796
18071TIP3    H175704   0.922   5.228  11.007 -1.3845 -1.0978 -2.9142
18071TIP3    H275705   1.022   5.115  11.014  0.1191  0.2673 -0.4209
18072TIP3   OH275706   5.995   2.216   0.817 -0.0645  0.1531 -0.5116
18072TIP3    H175707   5.946   2.139   0.788  1.6821 -0.3284 -2.4604
18072TIP3    H275708   5.956   2.240   0.901 -1.5866 -1.9819 -0.5386
18073TIP3   OH275709   4.175   0.162   2.678 -0.3314 -0.6436 -0.2351
18073TIP3    H175710   4.268   0.160   2.699  0.0137 -1.4710 -1.7077
18073TIP3    H275711   4.170   0.136   2.586 -1.8749  1.1300 -0.7133
18074TIP3   OH275712   2.486   2.272  15.441  0.2888 -0.4170  0.4842
18074TIP3    H175713   2.468   2.365  15.455  0.5001 -0.2219 -0.4818
18074TIP3    H275714   2.411   2.227  15.481 -0.9786  0.2723 -1.0030
18075TIP3   OH275715   2.904   0.533  15.293  0.0396  0.2153  0.3077
18075TIP3    H175716   2.879   0.589  15.367 -0.3818  0.1843  0.1900
18075TIP3    H275717   2.965   0.587  15.242 -2.1056  1.4754 -1.0581
18076TIP3   OH275718   2.360   4.827   1.747  0.2190  0.6726 -0.0416
18076TIP3    H175719   2.284   4.842   1.691 -0.2386 -1.1339  0.0312
18076TIP3    H275720   2.329   4.764   1.812  1.4760  0.7484  0.6557
18077TIP3   OH275721   5.068   4.931  14.192  0.4134  0.0137 -0.2828
18077TIP3    H175722   5.120   4.852  14.206 -1.1698 -0.6120  2.9120
18077TIP3    H275723   5.037   4.923  14.102  3.5113 -0.9199 -1.3880
18078TIP3   OH275724   3.998   1.506  16.525  0.0130 -0.5727 -0.4259
18078TIP3    H175725   3.995   1.600  16.543 -0.6039 -0.5083 -0.8656
18078TIP3    H275726   4.082   1.478  16.562  0.2759  0.1785 -0.4335
18079TIP3   OH275727   6.513   4.692   4.851 -0.2288  0.1340 -0.2813
18079TIP3    H175728   6.490   4.781   4.877  3.2013  0.2991  3.0032
18079TIP3    H275729   6.453   4.636   4.899 -0.5103  0.6430 -0.0376
18080TIP3   OH275730   3.333   0.080  16.752  0.0351  0.4489  0.1734
18080TIP3    H175731   3.307   0.016  16.687  1.1397  0.0748  0.0808
18080TIP3    H275732   3.417   0.049  16.785 -1.0240 -0.0489  2.6775
18081TIP3   OH275733   0.696   1.670   5.964  0.3108  0.4143  0.0067
18081TIP3    H175734   0.623   1.666   5.903 -0.5086  1.3731  0.8919
18081TIP3    H275735   0.716   1.578   5.984 -0.3825  0.1395 -0.5387
18082TIP3   OH275736   3.090   6.212   4.428 -0.0474 -0.4339  0.1870
18082TIP3    H175737   3.132   6.211   4.342  0.6584  0.3880  0.5064
18082TIP3    H275738   3.019   6.149   4.420 -1.9367  1.7424 -1.9885
18083TIP3   OH275739   5.755   1.470   1.843 -0.1989 -0.0385 -0.0695
18083TIP3    H175740   5.723   1.552   1.805 -1.3866  0.1897  1.3211
18083TIP3    H275741   5.676   1.420   1.863  0.4952 -1.5234 -0.7909
18084TIP3   OH275742   3.722   2.252   5.794 -0.1237 -0.0355 -0.0442
18084TIP3    H175743   3.711   2.339   5.832 -0.2997  0.6568 -1.5802
18084TIP3    H275744   3.704   2.191   5.866 -3.2220  1.1665  0.3441
18085TIP3   OH275745   5.138   6.598   6.951  0.1996 -0.5345  0.1400
18085TIP3    H175746   5.140   6.693   6.945 -0.1140 -0.4732  0.8992
18085TIP3    H275747   5.108   6.569   6.865 -2.5190  0.2147  0.7375
18086TIP3   OH275748   4.597   4.279   5.194  0.3134  0.3611 -0.5577
18086TIP3    H175749   4.524   4.329   5.230  0.6991  0.5791 -0.0567
18086TIP3    H275750   4.620   4.324   5.113 -0.8354 -0.3782 -1.3117
18087TIP3   OH275751   3.303   3.532   3.946  0.3569 -0.0117  0.3637
18087TIP3    H175752   3.245   3.476   3.998 -0.6143 -0.3424 -1.0086
18087TIP3    H275753   3.389   3.521   3.986  0.2538 -2.6820  0.0505
18088TIP3   OH275754   4.902   1.090   3.125  0.5611 -0.0305 -0.7012
18088TIP3    H175755   4.823   1.124   3.083 -0.7280 -0.4860  1.1966
18088TIP3    H275756   4.974   1.125   3.073 -0.8284  2.1215 -1.3277
18089TIP3   OH275757   3.124   3.305   2.180 -0.2900  0.2466  0.8439
18089TIP3    H175758   3.144   3.379   2.236  2.9231 -0.0434  0.2359
18089TIP3    H275759   3.036   3.325   2.145  0.1487  3.3965  1.2438
18090TIP3   OH275760   4.114   4.987   3.704  0.1064  0.1844 -0.6791
18090TIP3    H175761   4.099   5.032   3.620  0.2038 -0.9435 -1.3233
18090TIP3    H275762   4.094   5.053   3.770 -0.4824  0.9484 -1.5829
18091TIP3   OH275763   4.649   1.044   4.592  0.6351  0.2740 -0.0284
18091TIP3    H175764   4.732   1.012   4.626 -0.0260 -1.0431  0.4230
18091TIP3    H275765   4.593   1.053   4.669 -0.0566 -0.1742 -0.4596
18092TIP3   OH275766   3.067   6.644  15.171 -0.2077 -0.1127 -1.0803
18092TIP3    H175767   3.078   6.732  15.207 -1.1403  0.0995 -1.2806
18092TIP3    H275768   3.056   6.658  15.077  2.0896 -0.6499 -1.4861
18093TIP3   OH275769   2.612   4.076   0.657  0.1426  0.1635 -0.3089
18093TIP3    H175770   2.664   4.150   0.627  0.7752 -0.8895 -2.0000
18093TIP3    H275771   2.522   4.107   0.655  0.5148  1.4172  0.7879
18094TIP3   OH275772   2.482   3.000   2.053  0.1624  0.4327  0.1048
18094TIP3    H175773   2.444   3.067   1.997  1.5815  0.2688 -1.1293
18094TIP3    H275774   2.576   3.006   2.037  0.5700 -0.0585  2.0181
18095TIP3   OH275775   3.416   2.404   6.036  0.0520  0.1577 -0.5940
18095TIP3    H175776   3.512   2.401   6.045  0.2811  2.0026 -1.8133
18095TIP3    H275777   3.388   2.314   6.046  1.9218 -0.4151 -0.1259
18096TIP3   OH275778   1.950   1.023   0.222  0.2980 -0.1248  0.2007
18096TIP3    H175779   1.974   1.116   0.218 -0.3081 -0.0028 -0.6491
18096TIP3    H275780   1.997   0.990   0.299  1.1935  0.6867  0.0204
18097TIP3   OH275781   5.868   1.352   0.472 -0.2384 -0.2805 -0.0961
18097TIP3    H175782   5.962   1.360   0.458 -0.2978 -0.2923 -0.5159
18097TIP3    H275783   5.829   1.420   0.417 -0.4536  0.0301  0.4317
18098TIP3   OH275784   4.604   5.597   5.282 -0.0057 -0.3533  0.6948
18098TIP3    H175785   4.657   5.564   5.209  0.1988 -1.0487  1.1414
18098TIP3    H275786   4.657   5.578   5.360 -0.0692  0.6805  1.0034
18099TIP3   OH275787   1.994   4.152   3.088  0.2708  0.0357 -0.4969
18099TIP3    H175788   1.998   4.096   3.165  0.8526  0.6231 -0.0893
18099TIP3    H275789   1.921   4.117   3.036 -0.4302 -0.0872  0.5414
18100TIP3   OH275790   0.690   0.266   3.875 -0.6136 -0.2190  0.2368
18100TIP3    H175791   0.641   0.346   3.854 -0.8253 -0.5783 -0.7055
18100TIP3    H275792   0.648   0.198   3.821  0.8986 -0.5479 -0.5660
18101TIP3   OH275793   3.872   4.039  10.758 -0.3786  0.1858  0.8933
18101TIP3    H175794   3.812   4.021  10.830  0.2474 -0.0695  1.3639
18101TIP3    H275795   3.873   4.135  10.752 -1.7442  0.1770  0.0773
18102TIP3   OH275796   3.644   6.213  15.348 -0.0352 -0.1393  0.6211
18102TIP3    H175797   3.551   6.225  15.369  0.2393  2.0483  0.7698
18102TIP3    H275798   3.690   6.236  15.429  0.7178  1.1914 -0.1601
18103TIP3   OH275799   3.404   6.267   0.498  0.4072  0.5277 -0.3958
18103TIP3    H175800   3.393   6.218   0.416  0.0444  0.3398 -0.2393
18103TIP3    H275801   3.329   6.239   0.552  1.3033 -0.2858  0.4606
18104TIP3   OH275802   3.221   3.936  15.282  0.0225  0.5895 -0.0675
18104TIP3    H175803   3.220   4.025  15.318  0.9817 -0.3944  2.7186
18104TIP3    H275804   3.128   3.912  15.275 -0.2423  1.8036 -0.8769
18105TIP3   OH275805   5.555   6.189   2.810  0.2058  0.0878 -0.4427
18105TIP3    H175806   5.501   6.116   2.839  0.5349 -0.4157 -1.0563
18105TIP3    H275807   5.623   6.196   2.877  0.7875 -0.8727 -0.9020
18106TIP3   OH275808   4.603   5.911   0.064 -1.0227 -0.3458 -0.0994
18106TIP3    H175809   4.629   5.998   0.036  0.5582 -0.9184 -0.5209
18106TIP3    H275810   4.569   5.923   0.153  0.0989  0.5823  0.2276
18107TIP3   OH275811   2.597   1.333  13.256  0.1306 -0.4842 -0.9917
18107TIP3    H175812   2.560   1.397  13.316  0.0688 -0.9485 -0.5331
18107TIP3    H275813   2.521   1.292  13.214  0.1654 -0.3655 -1.1716
18108TIP3   OH275814   3.911   5.758   0.387 -0.1575  0.7611  0.1276
18108TIP3    H175815   3.968   5.812   0.442  1.0423  0.7299 -1.0488
18108TIP3    H275816   3.894   5.812   0.310  1.0307 -0.5022 -1.0518
18109TIP3   OH275817   5.289   3.527   4.770 -0.5847 -0.7910  0.0178
18109TIP3    H175818   5.228   3.562   4.705 -0.5836 -3.5782 -1.6603
18109TIP3    H275819   5.373   3.523   4.724  0.5304  1.1883  1.6842
18110TIP3   OH275820   4.159   6.646  13.280 -0.0209  0.4445  0.1201
18110TIP3    H175821   4.090   6.710  13.294  0.1453  0.5041  0.6757
18110TIP3    H275822   4.239   6.699  13.269 -0.2835  0.4741 -2.1390
18111TIP3   OH275823   1.569   1.121  13.267  0.4039 -0.0148 -0.2917
18111TIP3    H175824   1.545   1.100  13.177  0.5181  0.0953 -0.3465
18111TIP3    H275825   1.499   1.082  13.320  0.4183 -0.2138 -0.4180
18112TIP3   OH275826   4.253   3.090   0.237  0.9305 -0.0319 -0.0441
18112TIP3    H175827   4.290   3.154   0.298 -0.1308 -0.3925  1.0224
18112TIP3    H275828   4.158   3.098   0.249  0.7436 -0.9881 -0.7500
18113TIP3   OH275829   4.594   2.597   2.554  0.1753 -0.3777 -0.0895
18113TIP3    H175830   4.564   2.635   2.637  1.9729 -0.8785  0.8401
18113TIP3    H275831   4.519   2.606   2.495 -1.1717 -0.0363  1.5922
18114TIP3   OH275832   4.822   5.371   2.482 -0.3834  0.1994  0.0188
18114TIP3    H175833   4.816   5.430   2.557 -1.0748  0.8634 -0.5277
18114TIP3    H275834   4.731   5.345   2.465 -0.4828  1.3427 -1.5369
18115TIP3   OH275835   4.943   5.051  11.678 -0.4961 -0.0892 -0.2625
18115TIP3    H175836   4.856   5.022  11.650  0.1333 -1.4084 -0.9157
18115TIP3    H275837   4.985   4.972  11.711  0.7878  0.3519 -0.7962
18116TIP3   OH275838   0.359   2.421  17.081 -0.2297  0.7137 -0.1626
18116TIP3    H175839   0.368   2.516  17.088 -2.4707  1.0623 -1.3411
18116TIP3    H275840   0.359   2.403  16.987  1.3720 -0.6341  0.0485
18117TIP3   OH275841   2.659   5.720  15.668 -0.7167  0.1442  0.0745
18117TIP3    H175842   2.670   5.650  15.733  0.1386  0.8026  0.6703
18117TIP3    H275843   2.717   5.790  15.699  0.7812 -0.0229 -2.1080
18118TIP3   OH275844   3.581   3.292   0.163 -0.3294 -0.2005  0.4038
18118TIP3    H175845   3.654   3.286   0.101 -0.0318  0.8086  0.6348
18118TIP3    H275846   3.622   3.321   0.244 -1.1746  2.0125  0.1023
18119TIP3   OH275847   5.776   3.663   4.549  0.4908  0.2015 -0.1044
18119TIP3    H175848   5.779   3.610   4.469  1.1764  0.3043 -0.1539
18119TIP3    H275849   5.861   3.647   4.591  0.6827  1.2273 -0.0958
18120TIP3   OH275850   1.687   1.779  16.520 -0.0144 -0.2223 -0.1832
18120TIP3    H175851   1.614   1.764  16.581 -1.2329 -1.0679 -1.7779
18120TIP3    H275852   1.652   1.757  16.434  2.1893 -0.8153 -1.0023
18121TIP3   OH275853   3.210   0.497   3.225 -0.0224  0.1136  0.6232
18121TIP3    H175854   3.201   0.543   3.141 -1.3168  0.7443  1.0882
18121TIP3    H275855   3.303   0.505   3.246 -0.1690  2.4431  0.6131
18122TIP3   OH275856   4.607   0.688  12.439  0.3174  0.3596  0.2602
18122TIP3    H175857   4.639   0.660  12.353 -0.3159  0.2240  0.0614
18122TIP3    H275858   4.522   0.645  12.448  0.0577  0.9387  0.6517
18123TIP3   OH275859   5.110   6.407  11.454  0.0185  0.2710  0.3219
18123TIP3    H175860   5.198   6.436  11.478  1.2251 -3.3417  0.8695
18123TIP3    H275861   5.059   6.415  11.534 -0.5361  3.3657 -0.2559
18124TIP3   OH275862   4.281   0.733  15.307  0.2871 -0.0243  0.3444
18124TIP3    H175863   4.280   0.801  15.240  2.1763  0.1791  0.4761
18124TIP3    H275864   4.366   0.689  15.296 -0.4979 -1.7620  0.8641
18125TIP3   OH275865   0.699   5.320   1.662 -0.1629  0.1023 -0.8142
18125TIP3    H175866   0.749   5.396   1.693 -1.1698 -0.2220  1.8905
18125TIP3    H275867   0.763   5.250   1.654  0.6322  0.9685 -2.5247
18126TIP3   OH275868   4.662   2.308  13.361  0.1004  0.0577  0.3339
18126TIP3    H175869   4.741   2.295  13.413  0.2468  2.5538  0.8707
18126TIP3    H275870   4.598   2.341  13.424 -0.7557 -0.0539 -0.4653
18127TIP3   OH275871   0.343   0.736  11.188 -0.6060  0.1271  0.1298
18127TIP3    H175872   0.297   0.771  11.112  0.6655 -0.3448 -0.8995
18127TIP3    H275873   0.368   0.647  11.161  1.9528  0.7828  0.1470
18128TIP3   OH275874   5.815   1.682  12.488 -0.1381  0.8605 -0.3428
18128TIP3    H175875   5.898   1.730  12.488  0.4912 -0.1093  2.1231
18128TIP3    H275876   5.828   1.611  12.425  0.2685  1.6424 -1.1788
18129TIP3   OH275877   4.524   0.761  13.633  0.9470  0.8151  0.2909
18129TIP3    H175878   4.583   0.761  13.709  2.5881  2.0493 -0.9256
18129TIP3    H275879   4.455   0.699  13.657  1.6819  0.7820  2.5774
18130TIP3   OH275880   4.137   1.328   4.954 -0.2088 -0.4562 -0.1042
18130TIP3    H175881   4.168   1.415   4.979 -0.3410 -0.7064  0.9714
18130TIP3    H275882   4.183   1.269   5.013  1.8891 -1.3989 -2.5057
18131TIP3   OH275883   1.742   4.649   0.235 -0.2873 -0.5954 -0.0415
18131TIP3    H175884   1.661   4.675   0.191 -0.0112 -0.8974 -0.7416
18131TIP3    H275885   1.773   4.729   0.277  0.2123  0.0873 -1.6207
18132TIP3   OH275886   6.659   0.490  11.105  0.4872  0.3231 -0.5058
18132TIP3    H175887   6.672   0.581  11.081 -1.4023  0.7763  0.0213
18132TIP3    H275888   6.725   0.442  11.055 -1.0640  1.5536 -4.0263
18133TIP3   OH275889   6.202   4.150  13.867  0.2826  0.2904  0.3104
18133TIP3    H175890   6.114   4.147  13.904  0.7780  0.1963  1.5505
18133TIP3    H275891   6.193   4.112  13.779 -1.2236  1.9609 -0.3113
18134TIP3   OH275892   4.139   1.703   1.743 -0.0978 -0.6410 -0.0996
18134TIP3    H175893   4.176   1.644   1.677 -1.6173 -0.7018 -0.9495
18134TIP3    H275894   4.201   1.700   1.816  0.8201 -1.8083 -0.8958
18135TIP3   OH275895   3.748   3.006   0.970  0.6827 -0.0359  0.4028
18135TIP3    H175896   3.680   3.017   1.037 -0.2947 -0.7204 -0.4473
18135TIP3    H275897   3.705   2.957   0.900  1.1140  2.1766 -1.5362
18136TIP3   OH275898   2.663   4.731  13.903  0.1209 -0.2066 -0.0876
18136TIP3    H175899   2.659   4.813  13.853 -0.1921  1.1232  1.9980
18136TIP3    H275900   2.607   4.671  13.855 -1.1231  1.3711 -0.7049
18137TIP3   OH275901   6.719   4.945  15.603  0.4307  0.3431 -0.2945
18137TIP3    H175902   6.679   4.867  15.644 -0.1479  0.2342 -1.0550
18137TIP3    H275903   6.797   4.961  15.656 -1.2622  1.3667  2.1132
18138TIP3   OH275904   1.344   5.217   3.878  0.0371  0.0907 -0.4268
18138TIP3    H175905   1.430   5.195   3.915  0.3091 -1.0978 -1.6732
18138TIP3    H275906   1.296   5.134   3.880 -1.0457  0.7121  0.1108
18139TIP3   OH275907   0.233   0.505   4.158 -0.2289  0.2904 -0.2039
18139TIP3    H175908   0.314   0.517   4.208 -0.9252  0.2502  0.9725
18139TIP3    H275909   0.174   0.459   4.218 -0.9623 -0.1240 -1.2138
18140TIP3   OH275910   3.905   0.524  13.667 -0.0677 -0.6403  0.3803
18140TIP3    H175911   3.810   0.512  13.662  0.0013 -0.8304 -0.6249
18140TIP3    H275912   3.941   0.438  13.646  0.3317 -0.6243  0.9694
18141TIP3   OH275913   4.534   2.897   0.597 -0.2242 -0.3640 -0.8098
18141TIP3    H175914   4.442   2.878   0.578 -0.5900 -0.1845  0.6513
18141TIP3    H275915   4.533   2.985   0.634  0.7754  0.3602 -2.3775
18142TIP3   OH275916   0.218   2.106   3.898 -0.0800  0.3727  0.0502
18142TIP3    H175917   0.204   2.193   3.860 -2.4339 -0.4548 -1.1554
18142TIP3    H275918   0.203   2.046   3.825  2.1884 -1.0950  0.6750
18143TIP3   OH275919   5.544   3.332  12.405  0.1566  0.1059  0.7515
18143TIP3    H175920   5.610   3.363  12.343  1.2002  0.3386  1.9414
18143TIP3    H275921   5.568   3.242  12.424  0.6929  0.4724  1.8869
18144TIP3   OH275922   5.273   1.294  16.563 -0.6343 -0.2272 -0.0821
18144TIP3    H175923   5.312   1.341  16.489 -0.3475 -0.3080  0.0151
18144TIP3    H275924   5.180   1.290  16.542 -0.5470 -0.3109 -0.4769
18145TIP3   OH275925   6.708   1.037   2.697  0.0139  0.1561 -0.4269
18145TIP3    H175926   6.659   1.056   2.777 -0.3482  0.6245 -0.7539
18145TIP3    H275927   6.649   0.980   2.646  0.0812  0.1796 -0.5301
18146TIP3   OH275928   5.348   4.606   4.803  0.2184 -0.2511 -0.4317
18146TIP3    H175929   5.443   4.613   4.810  0.2587 -0.5414 -0.6668
18146TIP3    H275930   5.332   4.594   4.709 -0.1031  0.6238 -0.4992
18147TIP3   OH275931   0.457   2.280   4.501 -0.2581 -0.1035  0.4591
18147TIP3    H175932   0.464   2.365   4.543 -1.3774 -0.5855  1.6845
18147TIP3    H275933   0.470   2.298   4.408 -0.2009  1.3490  0.7307
18148TIP3   OH275934   2.389   6.109  16.038  0.6846 -0.6854  0.3191
18148TIP3    H175935   2.304   6.065  16.040  0.8805 -1.1174 -0.3590
18148TIP3    H275936   2.410   6.116  15.945  0.1046  1.9843  0.3090
18149TIP3   OH275937   2.878   3.383   2.053  0.6323  0.9399  0.5039
18149TIP3    H175938   2.839   3.380   1.965 -0.9888 -0.3303  1.2155
18149TIP3    H275939   2.842   3.462   2.092  0.4277  0.8883  0.4225
18150TIP3   OH275940   0.841   5.280   5.269  0.3075  0.5349 -0.4440
18150TIP3    H175941   0.798   5.199   5.298  0.6524  0.7431  0.6986
18150TIP3    H275942   0.839   5.337   5.346  1.7910  0.8961 -0.6419
18151TIP3   OH275943   0.746   3.409   3.356  0.4186 -0.1369 -0.0481
18151TIP3    H175944   0.667   3.458   3.333  0.1100 -0.6299 -0.0515
18151TIP3    H275945   0.791   3.463   3.421 -0.0364  0.0387  0.1208
18152TIP3   OH275946   5.786   4.638   5.825  0.3222  0.6161 -0.2251
18152TIP3    H175947   5.822   4.634   5.736  0.8558 -0.1303  0.0179
18152TIP3    H275948   5.696   4.607   5.815  0.5528 -0.0079 -0.4201
18153TIP3   OH275949   2.378   5.205   3.056 -0.0170  0.2481  0.1648
18153TIP3    H175950   2.308   5.144   3.078 -0.4976  0.4591 -0.7687
18153TIP3    H275951   2.397   5.250   3.139 -0.8990  0.1035  0.4558
18154TIP3   OH275952   0.860   5.445  13.660 -0.0407  0.1826 -0.2902
18154TIP3    H175953   0.803   5.418  13.588  2.1263 -0.1550 -1.9902
18154TIP3    H275954   0.901   5.365  13.690  1.1268  0.6604 -0.5638
18155TIP3   OH275955   2.806   2.027  12.333 -0.1073 -0.0093 -0.4309
18155TIP3    H175956   2.744   2.070  12.391  1.7046  0.6708  1.0853
18155TIP3    H275957   2.890   2.033  12.378  0.8135 -2.3185 -1.6638
18156TIP3   OH275958   3.122   5.323   1.311 -0.0503 -0.2992  0.5348
18156TIP3    H175959   3.154   5.361   1.393  1.0387  0.4155 -0.1861
18156TIP3    H275960   3.034   5.358   1.302 -0.4274 -0.8776  1.6875
18157TIP3   OH275961   1.753   4.421   2.479  0.0537 -0.3227  0.0525
18157TIP3    H175962   1.687   4.486   2.459  1.2348  0.7105 -0.6487
18157TIP3    H275963   1.818   4.468   2.532 -0.2358 -1.5636  1.5798
18158TIP3   OH275964   6.481   4.034   2.876  0.6965 -0.0859 -0.5251
18158TIP3    H175965   6.424   4.089   2.930 -1.5401 -1.3915 -1.3969
18158TIP3    H275966   6.535   3.986   2.939 -0.2801  0.0491  0.4555
18159TIP3   OH275967   3.896   2.342  16.212  0.3818 -1.0056 -0.2791
18159TIP3    H175968   3.924   2.348  16.121 -0.0284 -0.3904 -0.3643
18159TIP3    H275969   3.828   2.275  16.211  0.6958 -1.3318 -0.3389
18160TIP3   OH275970   3.984   2.164   6.078  0.1887 -0.0006 -0.1503
18160TIP3    H175971   3.953   2.119   6.156  0.8080  0.3608  0.3145
18160TIP3    H275972   4.040   2.234   6.111  2.3016 -1.2122 -0.9743
18161TIP3   OH275973   0.457   0.509  15.420  0.5841  0.1507  0.1739
18161TIP3    H175974   0.536   0.519  15.472  1.0550 -0.8888 -0.2955
18161TIP3    H275975   0.419   0.426  15.450  0.5726 -0.1900 -0.7348
18162TIP3   OH275976   3.388   5.171  13.689  0.4707 -0.3045  0.3287
18162TIP3    H175977   3.430   5.154  13.605  1.1645 -1.1645  0.8382
18162TIP3    H275978   3.305   5.124  13.684  0.6795 -0.6670  0.2686
18163TIP3   OH275979   2.811   4.379  16.874  0.0696  0.0230  0.3253
18163TIP3    H175980   2.789   4.449  16.935  0.4832 -1.2995  2.0679
18163TIP3    H275981   2.813   4.300  16.928 -2.5416 -1.7550 -1.8837
18164TIP3   OH275982   0.952   4.827  16.933  0.1382 -0.1978 -0.0283
18164TIP3    H175983   0.922   4.886  16.864 -1.8296  0.9166  1.6601
18164TIP3    H275984   1.033   4.788  16.899 -0.5665  0.5661 -2.7569
18165TIP3   OH275985   3.434   3.342  16.564 -0.1173 -0.1903  0.3426
18165TIP3    H175986   3.401   3.428  16.593  1.4428  0.4462  0.2940
18165TIP3    H275987   3.454   3.354  16.472  0.0759 -0.6130  0.3295
18166TIP3   OH275988   3.606   4.789  15.218 -0.1486 -0.2470  0.2323
18166TIP3    H175989   3.702   4.786  15.219  0.0565  3.2184  1.3614
18166TIP3    H275990   3.585   4.860  15.158 -1.9412 -0.1106  0.9788
18167TIP3   OH275991   1.225   3.965  11.057 -0.1243  0.6165  0.2282
18167TIP3    H175992   1.233   3.877  11.092  1.1989  1.0492  1.1108
18167TIP3    H275993   1.146   3.963  11.004  0.2911 -1.2992 -0.3934
18168TIP3   OH275994   3.763   3.747   4.149  0.3686  0.4562  0.1739
18168TIP3    H175995   3.781   3.789   4.234  0.1469 -1.7543  1.3918
18168TIP3    H275996   3.832   3.681   4.140  1.0884  1.4022 -1.9865
18169TIP3   OH275997   3.988   3.415   5.118  0.2711  0.5526 -0.0368
18169TIP3    H175998   3.914   3.362   5.090  1.6850 -1.0283 -1.0015
18169TIP3    H275999   4.000   3.395   5.210  2.0979 -2.6700 -0.8267
18170TIP3   OH276000   1.786   4.202   0.594  0.1060  0.3438  0.0610
18170TIP3    H176001   1.851   4.212   0.664 -0.4803  0.8021  0.5548
18170TIP3    H276002   1.813   4.263   0.526  0.7157 -0.1485 -0.1567
18171TIP3   OH276003   0.173   5.833  15.586 -0.5561  0.1012  0.1779
18171TIP3    H176004   0.211   5.902  15.532 -0.6901  0.5695  0.6735
18171TIP3    H276005   0.220   5.754  15.561  0.3561  0.5666  0.3866
18172TIP3   OH276006   2.749   6.094   1.951  0.1681  0.0998  0.4220
18172TIP3    H176007   2.722   6.157   1.884  0.3760  0.9451  1.1074
18172TIP3    H276008   2.756   6.146   2.031  0.6442 -0.7404  0.9443
18173TIP3   OH276009   1.285   2.918   1.470 -0.1216  0.1588  0.6551
18173TIP3    H176010   1.258   2.916   1.379 -0.6766  2.0677  0.7440
18173TIP3    H276011   1.379   2.930   1.468 -0.4010  2.8088  0.2659
18174TIP3   OH276012   6.072   4.356   0.732  0.0775  0.1509  0.3521
18174TIP3    H176013   5.986   4.342   0.771 -1.1048  4.3386 -0.2359
18174TIP3    H276014   6.118   4.412   0.795  1.8348 -0.7293 -0.0728
18175TIP3   OH276015   0.613   6.802   6.567 -0.3133 -0.3967 -0.4836
18175TIP3    H176016   0.665   6.877   6.593 -0.1901 -0.6807  0.1059
18175TIP3    H276017   0.540   6.839   6.517 -0.6170  0.1683  0.3603
18176TIP3   OH276018   6.573   3.637  14.662 -0.1083 -0.5025  0.0604
18176TIP3    H176019   6.526   3.651  14.744 -1.0903 -2.8948 -0.0280
18176TIP3    H276020   6.622   3.557  14.674  1.5616  0.3049 -0.9521
18177TIP3   OH276021   4.464   2.373  15.621  0.2532 -0.1517 -0.7879
18177TIP3    H176022   4.462   2.431  15.545  0.7909  0.3960 -0.3927
18177TIP3    H276023   4.431   2.426  15.693  2.0512  0.1338 -0.1274
18178TIP3   OH276024   5.166   4.362   6.278 -0.5070 -0.1283 -0.1738
18178TIP3    H176025   5.094   4.316   6.321 -0.6515  0.6293  0.4123
18178TIP3    H276026   5.245   4.324   6.316 -0.6266  1.8079  2.2175
18179TIP3   OH276027   4.288   0.610   0.343 -0.4332 -0.2227  0.7860
18179TIP3    H176028   4.287   0.682   0.407  0.5118  0.0305  0.5356
18179TIP3    H276029   4.350   0.639   0.276  2.1471 -2.3922  2.0360
18180TIP3   OH276030   3.670   0.446   3.893  0.1858  0.0621 -0.6208
18180TIP3    H176031   3.611   0.502   3.842  1.8188  0.3979 -2.2421
18180TIP3    H276032   3.756   0.486   3.884  0.8859 -1.0508  0.7187
18181TIP3   OH276033   2.590   5.189  11.865 -0.2213  0.5146 -0.1854
18181TIP3    H176034   2.629   5.103  11.877  0.2934  0.8784  0.8784
18181TIP3    H276035   2.591   5.203  11.771 -0.3675 -0.6587 -0.3754
18182TIP3   OH276036   1.406   2.690  16.034  0.1262 -0.5432 -0.1123
18182TIP3    H176037   1.426   2.752  16.103  2.2658 -1.1179 -0.1453
18182TIP3    H276038   1.335   2.731  15.984  0.0687  0.8822  1.0954
18183TIP3   OH276039   2.086   1.710  15.042  0.1184  0.7520 -0.2977
18183TIP3    H176040   2.091   1.801  15.013 -0.5601  0.9538  0.1856
18183TIP3    H276041   2.117   1.659  14.967 -0.0872  1.3463 -0.7976
18184TIP3   OH276042   6.117   4.134  13.606 -0.0181 -0.2209  0.1553
18184TIP3    H176043   6.133   4.043  13.582  0.2817 -0.2956  0.6184
18184TIP3    H276044   6.106   4.180  13.522 -1.1407 -0.8420 -0.0613
18185TIP3   OH276045   4.875   1.601   3.256 -0.5837  0.5767 -0.8909
18185TIP3    H176046   4.869   1.642   3.170 -0.7591  1.1508 -0.6125
18185TIP3    H276047   4.784   1.584   3.281 -0.4796 -1.2751 -1.5918
18186TIP3   OH276048   1.747   5.720   2.197 -0.1623 -0.5006  0.3482
18186TIP3    H176049   1.674   5.781   2.189 -0.2090 -0.4803  0.8839
18186TIP3    H276050   1.777   5.730   2.287  0.6526 -0.3480  0.0657
18187TIP3   OH276051   3.934   5.990  11.962 -0.3026  0.3118 -0.0761
18187TIP3    H176052   3.892   5.928  12.023 -1.6937  2.0901  0.8720
18187TIP3    H276053   3.883   5.982  11.882  0.4861 -0.8327 -0.4901
18188TIP3   OH276054   1.393   1.927   3.418 -0.2620  0.2816 -0.0895
18188TIP3    H176055   1.326   1.867   3.450  1.7812 -1.1868  1.7245
18188TIP3    H276056   1.418   1.979   3.495 -0.4130  1.9604 -1.1092
18189TIP3   OH276057   3.530   2.497  13.258  0.4212  0.0184  0.4178
18189TIP3    H176058   3.495   2.484  13.346  0.5292 -0.6844  0.3675
18189TIP3    H276059   3.478   2.438  13.203  1.5016 -0.8652  0.3061
18190TIP3   OH276060   0.467   2.003  15.141 -0.1530  0.0671  0.3984
18190TIP3    H176061   0.512   1.969  15.064  0.7793  0.1391  0.9078
18190TIP3    H276062   0.375   2.009  15.114  0.3269  1.2021 -1.1121
18191TIP3   OH276063   1.984   0.866  16.880 -0.3294  0.6084 -0.4708
18191TIP3    H176064   1.974   0.917  16.800  1.5979 -0.4586 -1.4910
18191TIP3    H276065   2.001   0.931  16.949  0.4304  1.4354 -1.4114
18192TIP3   OH276066   4.689   5.196  13.944 -0.1106  0.5201  0.4033
18192TIP3    H176067   4.712   5.165  14.032  0.7589  1.2262  0.4385
18192TIP3    H276068   4.767   5.243  13.915  0.4736 -1.5509 -1.6339
18193TIP3   OH276069   3.879   1.563  12.481 -0.0353  0.3717 -0.0552
18193TIP3    H176070   3.942   1.506  12.438 -0.3570  2.1510 -3.1587
18193TIP3    H276071   3.909   1.652  12.462 -1.6393  1.2617  1.2962
18194TIP3   OH276072   0.167   6.216   1.649  0.2067  0.0025 -0.0345
18194TIP3    H176073   0.204   6.296   1.684  3.0949 -0.3962 -1.8329
18194TIP3    H276074   0.095   6.245   1.593  0.3929  1.2267  0.3374
18195TIP3   OH276075   6.346   6.296  17.086 -0.3289  0.1509 -0.7065
18195TIP3    H176076   6.414   6.346  17.041  0.2636  1.1892  1.2524
18195TIP3    H276077   6.323   6.349  17.162 -1.4913 -1.3926  0.0675
18196TIP3   OH276078   0.112   2.709   5.413  0.4640  0.1857 -0.4546
18196TIP3    H176079   0.151   2.759   5.484  0.2581  0.3888 -0.4843
18196TIP3    H276080   0.139   2.619   5.430  0.4336  0.2356 -0.1287
18197TIP3   OH276081   2.205   2.688  10.299  0.7110  0.2646  0.5725
18197TIP3    H176082   2.293   2.658  10.274  0.7541  0.8254  0.0101
18197TIP3    H276083   2.185   2.640  10.379  1.9528  0.8787  1.2812
18198TIP3   OH276084   2.254   3.061  10.398  0.3009 -0.4159 -0.1326
18198TIP3    H176085   2.188   3.123  10.428  0.6068 -0.1542 -0.0013
18198TIP3    H276086   2.233   2.980  10.445 -1.2642 -0.9895 -1.7165
18199TIP3   OH276087   4.964   1.473   0.434 -0.2116 -0.3989 -0.2559
18199TIP3    H176088   4.990   1.564   0.418  1.1463 -0.2831  2.0101
18199TIP3    H276089   4.878   1.464   0.394 -0.9178  2.2658  0.4928
18200TIP3   OH276090   5.900   4.225  11.113 -0.5301  0.5696 -0.3770
18200TIP3    H176091   5.871   4.294  11.173  0.4380  0.4074  0.3100
18200TIP3    H276092   5.827   4.164  11.109 -0.6112  0.5755  0.6756
18201TIP3   OH276093   6.434   5.196  16.123 -0.0915  0.3453  0.1410
18201TIP3    H176094   6.488   5.118  16.110 -0.2902  0.1261  0.6054
18201TIP3    H276095   6.404   5.189  16.214  0.0190  1.0427  0.2369
18202TIP3   OH276096   6.105   4.540   6.034  0.0017  0.3886  0.2042
18202TIP3    H176097   6.115   4.448   6.012 -2.5019  0.4262 -1.4308
18202TIP3    H276098   6.042   4.541   6.106  0.4177  0.8039  0.5701
18203TIP3   OH276099   1.855   3.545   2.033 -0.3332 -0.0865 -0.3256
18203TIP3    H176100   1.920   3.544   2.103  3.0872  0.7470 -3.1756
18203TIP3    H276101   1.798   3.618   2.054  0.9132  0.4906  1.2997
18204TIP3   OH276102   3.388   5.242  16.749  0.0639 -0.4842  0.7904
18204TIP3    H176103   3.426   5.218  16.833  0.2378 -1.3816  0.4619
18204TIP3    H276104   3.438   5.319  16.722  1.4296 -1.4156  0.5468
18205TIP3   OH276105   1.598   3.259  17.109 -0.1586  0.4626 -1.0142
18205TIP3    H176106   1.594   3.199  17.035 -1.7372  1.0466 -1.4550
18205TIP3    H276107   1.595   3.203  17.186  0.6222 -0.1118 -1.3974
18206TIP3   OH276108   2.107   1.854   5.786 -0.1828  0.1416 -0.4054
18206TIP3    H176109   2.033   1.866   5.845 -0.6934 -1.0741 -0.7671
18206TIP3    H276110   2.075   1.791   5.720  1.4642 -1.1900 -0.0063
18207TIP3   OH276111   6.373   3.740  15.508 -0.0844 -0.5123  0.6979
18207TIP3    H176112   6.285   3.752  15.474  0.6092 -0.3320 -1.1401
18207TIP3    H276113   6.394   3.823  15.551  0.2978  0.6575 -1.5903
18208TIP3   OH276114   3.848   4.703  12.145 -0.3529 -0.1680 -0.3119
18208TIP3    H176115   3.836   4.699  12.050 -0.9999 -0.7702 -0.2049
18208TIP3    H276116   3.943   4.699  12.157 -0.1181  1.7876 -1.0189
18209TIP3   OH276117   0.919   6.184  14.337 -0.3933  0.0893  0.2289
18209TIP3    H176118   0.971   6.168  14.258 -0.9926  0.0602 -0.1642
18209TIP3    H276119   0.983   6.186  14.408  0.2549  0.9695 -0.3584
18210TIP3   OH276120   3.278   5.273   0.809 -0.1859  0.1794  0.2895
18210TIP3    H176121   3.311   5.348   0.759 -0.3746 -0.0037 -0.1112
18210TIP3    H276122   3.274   5.304   0.900  0.3961  0.4369  0.2346
18211TIP3   OH276123   6.008   0.664  14.502 -0.2957 -0.3653 -0.0619
18211TIP3    H176124   6.088   0.617  14.479  0.0141  0.7422 -1.2930
18211TIP3    H276125   5.942   0.631  14.441  0.1244  1.3442 -1.5203
18212TIP3   OH276126   1.225   0.029  11.004  0.1108 -0.0665  0.5646
18212TIP3    H176127   1.215  -0.017  10.920 -0.4516 -1.3977  1.3393
18212TIP3    H276128   1.319   0.048  11.009  0.0473  0.7265 -0.7087
18213TIP3   OH276129   6.534   4.350   2.376 -0.1212 -0.2629  0.9298
18213TIP3    H176130   6.520   4.405   2.299  2.3511  0.5800  1.0252
18213TIP3    H276131   6.534   4.261   2.341  2.8340  0.1810 -0.4689
18214TIP3   OH276132   1.827   2.516   4.268  0.1436  0.4204 -0.4760
18214TIP3    H176133   1.842   2.422   4.254  0.0112  0.1275  1.1107
18214TIP3    H276134   1.852   2.557   4.186  0.5168 -0.9779 -1.0950
18215TIP3   OH276135   0.325   0.703   1.245  0.0150 -0.0932  0.1199
18215TIP3    H176136   0.348   0.776   1.303  1.8736  1.4866 -2.4204
18215TIP3    H276137   0.229   0.702   1.246 -0.0599  1.9249  0.7861
18216TIP3   OH276138   2.396   2.673  16.164 -0.0729  0.2591  0.1290
18216TIP3    H176139   2.490   2.685  16.171 -0.1517  0.0052  2.4265
18216TIP3    H276140   2.360   2.762  16.163  0.1858  0.3580 -0.9414
18217TIP3   OH276141   5.164   5.529   3.750  0.2883  0.1154 -0.3923
18217TIP3    H176142   5.154   5.434   3.756 -0.1312  0.1345 -0.7412
18217TIP3    H276143   5.198   5.543   3.661  0.4390  0.2843 -0.3076
18218TIP3   OH276144   3.115   1.590   3.511 -0.1499 -0.1503 -0.1468
18218TIP3    H176145   3.088   1.500   3.494 -0.3686  0.2035 -1.8488
18218TIP3    H276146   3.096   1.636   3.430  2.5752  0.8463 -0.3150
18219TIP3   OH276147   1.907   6.203   4.211 -0.0670  0.4130  0.6902
18219TIP3    H176148   1.914   6.297   4.230 -0.0897  0.0841  2.4679
18219TIP3    H276149   1.961   6.161   4.278 -0.1801 -0.8669  0.0071
18220TIP3   OH276150   1.646   1.821   3.960 -0.0627  0.0682  0.6114
18220TIP3    H176151   1.610   1.735   3.937  0.4984 -0.0287  0.0761
18220TIP3    H276152   1.569   1.875   3.978 -0.4946 -0.1343 -0.5343
18221TIP3   OH276153   0.369   3.395   2.503  0.1267 -0.3441 -0.2730
18221TIP3    H176154   0.302   3.388   2.571  1.0057 -4.8068  0.4398
18221TIP3    H276155   0.440   3.443   2.545 -1.5974  2.4250 -0.2777
18222TIP3   OH276156   5.068   4.917  13.275 -0.5700  0.1304 -0.6394
18222TIP3    H176157   5.060   4.988  13.211 -1.1312  1.0653  0.4381
18222TIP3    H276158   5.161   4.894  13.273 -0.4051  0.8066 -1.0858
18223TIP3   OH276159   6.418   6.278  15.834 -0.3329 -0.3840  0.1684
18223TIP3    H176160   6.411   6.326  15.916 -1.5963  2.7319 -1.6143
18223TIP3    H276161   6.509   6.290  15.807 -0.4051  0.1991  0.1856
18224TIP3   OH276162   1.909   1.607  15.243  0.4610  0.3743 -0.2262
18224TIP3    H176163   1.958   1.636  15.166 -0.1205 -0.9067 -1.1144
18224TIP3    H276164   1.916   1.512  15.240  1.5736  0.3273  2.0984
18225TIP3   OH276165   1.163   1.814   5.323  0.3213 -0.3158 -0.1457
18225TIP3    H176166   1.093   1.831   5.259  0.3361  0.8045  0.1121
18225TIP3    H276167   1.119   1.769   5.395  0.0649 -0.5042 -0.4146
18226TIP3   OH276168   4.834   6.345   1.839  0.4297 -0.3598 -1.0303
18226TIP3    H176169   4.756   6.355   1.892 -0.9462 -1.3484 -2.7479
18226TIP3    H276170   4.882   6.272   1.879  0.3861  0.1394 -0.0656
18227TIP3   OH276171   2.510   5.066   4.700 -0.0920 -0.1925 -0.2123
18227TIP3    H176172   2.536   4.979   4.729 -2.0761 -0.2203  1.7456
18227TIP3    H276173   2.582   5.123   4.728  0.4015 -0.9526  0.1070
18228TIP3   OH276174   1.065   1.041   5.127 -0.0783 -0.0061 -0.4735
18228TIP3    H176175   1.059   1.013   5.036 -0.8390 -0.2535 -0.3536
18228TIP3    H276176   0.982   1.085   5.144 -1.3787 -2.7702  1.0206
18229TIP3   OH276177   4.938   2.287  16.996  0.4787  0.2900  0.1007
18229TIP3    H176178   4.914   2.346  17.067 -0.9062  1.0044 -0.9130
18229TIP3    H276179   4.887   2.317  16.921  0.6743 -1.4310 -0.7859
18230TIP3   OH276180   4.881   3.085  11.367  0.3329 -0.4543  0.5533
18230TIP3    H176181   4.951   3.151  11.368 -0.3151  0.2433  1.6024
18230TIP3    H276182   4.918   3.012  11.317  1.1845  0.5674 -0.3634
18231TIP3   OH276183   4.827   6.583   5.383  1.0878 -0.0621  0.4870
18231TIP3    H176184   4.920   6.562   5.396  1.3898  0.9958  0.1360
18231TIP3    H276185   4.820   6.604   5.290  0.1813 -1.5866  0.1874
18232TIP3   OH276186   5.463   3.568   5.550 -0.2224 -0.4818 -0.2750
18232TIP3    H176187   5.420   3.651   5.572 -1.6469 -1.0157 -0.8908
18232TIP3    H276188   5.484   3.576   5.456  2.7049  0.4483  0.3470
18233TIP3   OH276189   2.573   6.218   3.692 -0.2899 -0.6177 -0.3409
18233TIP3    H176190   2.568   6.150   3.624 -0.7024  1.6446 -2.7364
18233TIP3    H276191   2.646   6.191   3.748  0.5366 -2.2619 -2.0944
18234TIP3   OH276192   5.352   1.947   6.146 -0.0068 -0.3986 -0.2368
18234TIP3    H176193   5.339   1.883   6.075  1.0990 -2.4174  1.2756
18234TIP3    H276194   5.359   1.893   6.225  0.5949  1.6610  1.1724
18235TIP3   OH276195   4.097   2.673  15.226 -0.6104 -0.6980  0.2804
18235TIP3    H176196   4.087   2.755  15.275 -0.2319 -0.5982  0.1906
18235TIP3    H276197   4.141   2.614  15.287  0.2522 -0.4395 -0.0749
18236TIP3   OH276198   3.071   1.094   4.835  0.8587 -0.0337  0.0584
18236TIP3    H176199   3.001   1.122   4.777 -0.3133  0.8661  1.8405
18236TIP3    H276200   3.140   1.160   4.824  1.3620 -0.7800 -1.5002
18237TIP3   OH276201   0.542   0.811   3.943 -0.1283 -0.0633  0.5206
18237TIP3    H176202   0.619   0.867   3.934 -1.3022  1.3934 -0.9471
18237TIP3    H276203   0.478   0.864   3.989 -0.3864 -1.1762  1.5065
18238TIP3   OH276204   4.120   1.274   4.529 -0.0905 -0.0953 -0.1838
18238TIP3    H176205   4.139   1.209   4.596 -0.4712  1.0423  1.0621
18238TIP3    H276206   4.176   1.349   4.551 -0.7427  0.5638 -0.7016
18239TIP3   OH276207   0.871   3.221  11.224  0.1812 -0.1983  0.7109
18239TIP3    H176208   0.891   3.217  11.130 -1.0292  0.6052  0.3941
18239TIP3    H276209   0.918   3.147  11.262  0.7567 -0.4897 -0.5126
18240TIP3   OH276210   2.069   3.712  16.294 -0.0666  0.3887  0.3530
18240TIP3    H176211   2.122   3.752  16.225 -0.9843  1.0539  0.0130
18240TIP3    H276212   2.085   3.766  16.371  0.1672  0.2640  0.3915
18241TIP3   OH276213   5.578   3.374   4.458  0.2956 -0.2247 -0.0919
18241TIP3    H176214   5.651   3.333   4.412 -0.7520 -0.7423 -1.3377
18241TIP3    H276215   5.529   3.420   4.390  0.4844  1.7192  1.0112
18242TIP3   OH276216   5.331   6.786   6.622  0.4289  0.5640  0.2154
18242TIP3    H176217   5.333   6.723   6.550 -1.2915 -3.6271  3.4220
18242TIP3    H276218   5.416   6.775   6.666  0.5204  1.3050  0.2435
18243TIP3   OH276219   4.927   3.394  12.501 -0.1620 -0.7650 -0.3373
18243TIP3    H176220   4.924   3.490  12.499  0.6225 -0.6589  1.4850
18243TIP3    H276221   4.837   3.368  12.518  0.0701 -0.1632  2.1424
18244TIP3   OH276222   0.660   1.461   4.409  0.0820  0.4956  0.2079
18244TIP3    H176223   0.744   1.456   4.363  0.7446 -2.6016  1.4787
18244TIP3    H276224   0.605   1.395   4.366 -0.9939  1.0760  0.6587
18245TIP3   OH276225   2.157   5.406  14.484  0.1657 -0.6632 -0.4153
18245TIP3    H176226   2.117   5.353  14.415 -0.9643 -0.1547 -0.1648
18245TIP3    H276227   2.187   5.341  14.548 -1.5755 -1.0365  0.0855
18246TIP3   OH276228   2.262   5.298   1.430 -0.2296  0.1333  0.1900
18246TIP3    H176229   2.301   5.314   1.344  0.8039  0.3346  0.6806
18246TIP3    H276230   2.307   5.358   1.489 -1.3924  0.4701  0.7664
18247TIP3   OH276231   3.813   0.736  11.814 -0.2176 -0.8540 -0.7979
18247TIP3    H176232   3.825   0.793  11.891 -2.8092 -1.9259  0.5043
18247TIP3    H276233   3.867   0.659  11.833  2.2771  0.4638 -1.9786
18248TIP3   OH276234   5.899   5.068   5.200 -0.7288 -0.0509  0.2363
18248TIP3    H176235   5.917   5.073   5.106  0.8043 -0.9646  0.4428
18248TIP3    H276236   5.909   5.158   5.231  1.7875 -0.1789 -0.0127
18249TIP3   OH276237   5.908   0.725  11.647  0.0688  0.5782 -0.1940
18249TIP3    H176238   5.910   0.770  11.732 -1.2649 -1.4908  1.0146
18249TIP3    H276239   5.835   0.766  11.600 -0.7145  0.1449  0.6246
18250TIP3   OH276240   2.898   1.857  16.125  0.4241 -0.9978  0.4743
18250TIP3    H176241   2.969   1.888  16.181  0.3745 -1.0144  0.5467
18250TIP3    H276242   2.848   1.936  16.104  0.5626 -0.9596  0.2822
18251TIP3   OH276243   1.614   1.928  14.645  0.1396  0.5592  0.0744
18251TIP3    H176244   1.606   2.016  14.608 -1.5621  0.3510 -0.1298
18251TIP3    H276245   1.574   1.871  14.579  0.6020 -0.2972  0.5180
18252TIP3   OH276246   5.311   2.045   3.355 -0.6631  0.3415  0.1146
18252TIP3    H176247   5.311   1.956   3.321 -1.0015 -0.1773  1.4341
18252TIP3    H276248   5.307   2.036   3.450 -0.1206  1.7594  0.3100
18253TIP3   OH276249   1.771   5.084   1.814 -0.2584  0.2651 -0.3142
18253TIP3    H176250   1.840   5.057   1.753 -0.2509 -0.4514 -0.0068
18253TIP3    H276251   1.781   5.179   1.821  1.8402  0.0173  1.0403
18254TIP3   OH276252   0.575   6.612  12.370  0.3899  0.4909  0.1452
18254TIP3    H176253   0.653   6.645  12.414  0.3942 -1.0450  1.3745
18254TIP3    H276254   0.608   6.550  12.306  0.2147  0.1565  0.3734
18255TIP3   OH276255   0.888   6.818  13.644  0.1334 -0.0950  0.3520
18255TIP3    H176256   0.886   6.812  13.740  0.8332  2.8769  0.6380
18255TIP3    H276257   0.836   6.895  13.623  1.7698  0.6015 -1.4783
18256TIP3   OH276258   5.193   1.924  14.384  0.5506 -0.8871 -0.4684
18256TIP3    H176259   5.230   1.863  14.448 -0.0091 -1.2753 -0.5151
18256TIP3    H276260   5.260   1.931  14.316  0.9556 -0.8214 -0.0702
18257TIP3   OH276261   1.023   1.823  11.716 -0.2502 -0.0364 -0.1429
18257TIP3    H176262   0.940   1.776  11.718  0.7182 -1.8214  2.3947
18257TIP3    H276263   1.072   1.783  11.644 -0.0770 -1.9257  0.9487
18258TIP3   OH276264   3.860   5.089   0.589 -0.3248  0.2917  0.2452
18258TIP3    H176265   3.802   5.030   0.541  0.6083  1.3088 -2.3376
18258TIP3    H276266   3.826   5.177   0.570 -0.2994  0.7384  2.0630
18259TIP3   OH276267   4.820   0.265  11.411  0.6819  0.4680 -0.1911
18259TIP3    H176268   4.738   0.245  11.367  0.5698  1.5855 -0.5283
18259TIP3    H276269   4.887   0.229  11.353  0.6143  3.0778 -2.0902
18260TIP3   OH276270   5.803   5.175  16.607  0.0855  0.1796  0.3652
18260TIP3    H176271   5.727   5.124  16.581  1.4701 -0.7146 -2.3515
18260TIP3    H276272   5.834   5.135  16.688  0.6330 -2.8782 -1.2245
18261TIP3   OH276273   1.551   3.370   4.772 -0.2257  0.3625  0.3527
18261TIP3    H176274   1.638   3.350   4.807  0.0766  0.6285 -0.2285
18261TIP3    H276275   1.497   3.295   4.796 -0.8114  1.7114  3.9214
18262TIP3   OH276276   2.994   0.927   3.089 -0.2485 -0.0421  0.3982
18262TIP3    H176277   2.927   0.991   3.066  0.6582  1.0112  0.5771
18262TIP3    H276278   3.073   0.979   3.102  0.4481 -1.1750  0.8676
18263TIP3   OH276279   3.537   5.681   0.323 -0.6475  0.2536  1.0241
18263TIP3    H176280   3.462   5.729   0.359 -2.0612 -1.6709  0.8172
18263TIP3    H276281   3.609   5.700   0.383 -1.5771  1.3204  1.8386
18264TIP3   OH276282   6.637   6.118  10.307 -0.1037 -0.9795 -0.6660
18264TIP3    H176283   6.619   6.027  10.328 -0.2207 -1.0884 -1.2138
18264TIP3    H276284   6.706   6.144  10.367  0.8506 -1.8179 -1.3683
18265TIP3   OH276285   2.451   6.186   2.703  0.9595  0.5363  0.3069
18265TIP3    H176286   2.362   6.192   2.737  0.9328 -1.0196  0.5818
18265TIP3    H276287   2.485   6.276   2.708 -1.0582  1.4749 -1.1664
18266TIP3   OH276288   2.519   3.827   4.806 -0.2992  0.5612  0.1093
18266TIP3    H176289   2.505   3.769   4.881 -0.3430 -1.7992 -1.6062
18266TIP3    H276290   2.572   3.898   4.841  0.6153 -0.9956  2.1524
18267TIP3   OH276291   5.914   4.433   1.037  0.2504  0.4987 -0.0186
18267TIP3    H176292   5.845   4.371   1.009  0.2732  1.2790 -1.9784
18267TIP3    H276293   5.869   4.517   1.042  0.4864  0.5613  1.4759
18268TIP3   OH276294   6.441   0.687  14.370  0.6862 -0.3126 -0.3072
18268TIP3    H176295   6.505   0.630  14.327  1.3035  0.2051 -0.1104
18268TIP3    H276296   6.389   0.629  14.424  0.9592 -0.7593 -0.5167
18269TIP3   OH276297   0.978   4.186   0.836  0.7791 -0.2424 -0.3344
18269TIP3    H176298   0.892   4.147   0.817  0.7887 -1.9786  2.5111
18269TIP3    H276299   0.961   4.281   0.840 -0.8942 -0.5147 -0.3380
18270TIP3   OH276300   0.238   0.945  14.957 -0.2922  0.0106 -0.5670
18270TIP3    H176301   0.263   0.998  14.881 -0.1093  0.1795 -0.3903
18270TIP3    H276302   0.290   0.981  15.029  0.6076 -1.0728 -0.6513
18271TIP3   OH276303   4.740   5.176   4.643  0.2724 -0.3217  0.2687
18271TIP3    H176304   4.722   5.247   4.705 -0.6953 -0.4991  0.2022
18271TIP3    H276305   4.836   5.167   4.645  0.4273  0.9983  0.2488
18272TIP3   OH276306   1.287   4.870  15.477  0.1353 -0.2695 -0.2307
18272TIP3    H176307   1.266   4.843  15.566 -0.8673  1.1197 -0.0109
18272TIP3    H276308   1.313   4.789  15.433  2.6304 -0.7417  1.8034
18273TIP3   OH276309   1.797   1.917  13.849  0.1966  0.0627 -0.3150
18273TIP3    H176310   1.719   1.963  13.817 -2.1743 -0.0275  4.3936
18273TIP3    H276311   1.869   1.977  13.831 -1.2227  1.1287 -2.9810
18274TIP3   OH276312   3.212   4.844  16.551  0.1944 -0.1312  0.1893
18274TIP3    H176313   3.196   4.750  16.562  0.7887 -0.3246 -0.5442
18274TIP3    H276314   3.270   4.866  16.625  1.6301 -0.7682 -0.6961
18275TIP3   OH276315   4.644   4.057   6.450 -0.3831 -0.4931 -0.5482
18275TIP3    H176316   4.704   3.994   6.411 -0.6367  0.1264 -2.0001
18275TIP3    H276317   4.570   4.060   6.389 -0.4897  1.0075 -0.3827
18276TIP3   OH276318   5.186   2.459   0.396  0.1382  0.2287 -0.1143
18276TIP3    H176319   5.170   2.407   0.318  0.9234  1.4677 -1.1421
18276TIP3    H276320   5.251   2.409   0.446 -1.7957 -1.5375  0.7853
18277TIP3   OH276321   0.474   6.782   0.234  0.4854  0.2536  0.6137
18277TIP3    H176322   0.400   6.773   0.295 -0.9753  0.1339 -1.1125
18277TIP3    H276323   0.503   6.872   0.246  0.2701  0.2162  1.5287
18278TIP3   OH276324   5.392   3.053   3.693 -0.1588 -0.2819  0.2080
18278TIP3    H176325   5.324   3.014   3.638  1.1440 -2.1950 -0.1212
18278TIP3    H276326   5.429   2.980   3.741  2.2386  0.5648 -0.2228
18279TIP3   OH276327   5.911   6.117  11.641  0.2331  0.3922 -0.5692
18279TIP3    H176328   5.876   6.179  11.576 -0.9364  0.1853 -0.1691
18279TIP3    H276329   5.879   6.150  11.725  1.4144  0.4429 -0.1221
18280TIP3   OH276330   3.978   4.299   0.451 -0.3672  0.1186  0.1095
18280TIP3    H176331   3.908   4.363   0.436 -1.5585 -0.4333  2.7267
18280TIP3    H276332   3.933   4.222   0.487  1.4314 -0.7929  0.5357
18281TIP3   OH276333   1.510   5.375   1.084  0.0900 -0.1480 -0.4631
18281TIP3    H176334   1.496   5.469   1.082 -1.3014 -0.3443 -1.4337
18281TIP3    H276335   1.597   5.364   1.122  0.2734  1.5171 -0.3493
18282TIP3   OH276336   5.451   4.212   5.116 -0.2694  0.1266 -0.2937
18282TIP3    H176337   5.393   4.249   5.182  0.9762  1.5649  0.0448
18282TIP3    H276338   5.466   4.122   5.145 -1.9828 -0.1623 -0.1935
18283TIP3   OH276339   6.556   3.117   1.558 -0.0822 -0.1025  0.0899
18283TIP3    H176340   6.476   3.066   1.547 -0.4353  0.1773  1.2180
18283TIP3    H276341   6.571   3.158   1.473 -1.8462  0.8658  0.2035
18284TIP3   OH276342   5.139   1.810  15.084  0.0794 -0.5236  0.0479
18284TIP3    H176343   5.230   1.780  15.084  0.8394  1.5090 -2.2196
18284TIP3    H276344   5.102   1.776  15.003 -1.4459 -1.8657  1.2421
18285TIP3   OH276345   2.756   0.158   1.289  0.2940  0.0248 -0.2897
18285TIP3    H176346   2.723   0.075   1.256  1.2373 -0.4817 -0.0109
18285TIP3    H276347   2.726   0.162   1.379 -1.8478  1.1689 -0.9953
18286TIP3   OH276348   5.208   3.679  12.443  0.2039  0.1311  0.3686
18286TIP3    H176349   5.211   3.632  12.526 -0.9972  1.5372  1.2485
18286TIP3    H276350   5.127   3.647  12.401 -0.8533  1.6483  1.1654
18287TIP3   OH276351   2.456   4.686  16.548  0.3448  0.0112  0.4897
18287TIP3    H176352   2.430   4.723  16.464  0.5372 -1.5019 -0.2599
18287TIP3    H276353   2.457   4.591  16.534  3.6117 -0.1676  1.2453
18288TIP3   OH276354   4.365   4.248  16.964 -0.2158  0.0296  0.0202
18288TIP3    H176355   4.297   4.210  17.021  1.3352  1.2406  2.8827
18288TIP3    H276356   4.326   4.330  16.933 -0.5248  0.1493  0.6894
18289TIP3   OH276357   1.215   1.422   1.876  0.1398  0.2214  0.3858
18289TIP3    H176358   1.187   1.494   1.818 -1.1096 -0.6068 -0.0952
18289TIP3    H276359   1.310   1.424   1.873  0.1566 -0.2472 -2.3482
18290TIP3   OH276360   2.509   6.259   5.640  0.0508  0.5237  0.2258
18290TIP3    H176361   2.601   6.235   5.632 -0.1723  0.2485 -2.4353
18290TIP3    H276362   2.461   6.179   5.619 -0.7741  1.0635  0.0067
18291TIP3   OH276363   6.815   5.475  12.778 -0.2644 -0.0470  0.2560
18291TIP3    H176364   6.738   5.529  12.760  0.8500  1.3346 -0.6207
18291TIP3    H276365   6.789   5.386  12.753 -0.5016  0.9341 -3.7067
18292TIP3   OH276366   2.800   6.469  15.078 -0.1795  0.2302 -0.1829
18292TIP3    H176367   2.850   6.403  15.031  3.1076  1.8466  0.7587
18292TIP3    H276368   2.758   6.520  15.008  0.8256 -0.2190 -1.1543
18293TIP3   OH276369   5.237   2.933   1.634 -0.8273 -0.4571  0.0252
18293TIP3    H176370   5.237   2.901   1.544 -0.4778  1.1110 -0.5633
18293TIP3    H276371   5.306   2.883   1.677  0.4578  0.2244 -1.1526
18294TIP3   OH276372   5.210   4.665   5.040 -0.2296 -0.1508  0.8015
18294TIP3    H176373   5.265   4.627   5.109 -0.3332 -2.2629 -0.1908
18294TIP3    H276374   5.261   4.655   4.960 -1.8143 -1.7614 -0.0813
18295TIP3   OH276375   4.686   1.148   1.144  0.2579 -0.1087  0.0344
18295TIP3    H176376   4.610   1.140   1.086  0.4050 -2.0165  0.0270
18295TIP3    H276377   4.691   1.063   1.188  0.5095  1.0750  2.4481
18296TIP3   OH276378   2.424   4.416   6.026  0.2715  0.0758  0.1568
18296TIP3    H176379   2.403   4.499   6.069 -3.8672 -1.0049  0.7291
18296TIP3    H276380   2.410   4.350   6.094  0.6811 -1.2603 -1.0088
18297TIP3   OH276381   4.464   2.962   1.675 -0.3695 -0.2298  0.4593
18297TIP3    H176382   4.391   2.952   1.614 -1.1023  0.8150  1.1263
18297TIP3    H276383   4.464   3.056   1.696  1.2862 -0.1812  0.3267
18298TIP3   OH276384   3.818   2.974   3.502 -0.3254  0.2713  0.5763
18298TIP3    H176385   3.755   3.041   3.526 -2.7278 -1.9710  1.0240
18298TIP3    H276386   3.893   2.989   3.560 -0.9414  2.2496  0.9300
18299TIP3   OH276387   1.288   4.877   4.007 -0.2301  0.0476 -0.4809
18299TIP3    H176388   1.233   4.891   3.929 -0.4962 -0.3988 -0.3716
18299TIP3    H276389   1.378   4.889   3.975 -0.3335 -0.2216 -0.8781
18300TIP3   OH276390   0.606   6.614   1.089 -0.3895 -0.5040 -0.0826
18300TIP3    H176391   0.641   6.561   1.017 -0.0940  0.6244 -0.8051
18300TIP3    H276392   0.648   6.579   1.168 -1.5104 -2.4569 -0.2835
18301TIP3   OH276393   3.381   1.777   0.275 -0.2899  0.7649 -0.0862
18301TIP3    H176394   3.358   1.765   0.183  1.4447  0.3376 -0.5061
18301TIP3    H276395   3.300   1.805   0.317 -1.6997 -1.2247 -1.3102
18302TIP3   OH276396   0.421   4.498   4.419 -0.1031 -1.0301 -0.0859
18302TIP3    H176397   0.417   4.457   4.333 -0.4244  0.2887 -0.7399
18302TIP3    H276398   0.348   4.560   4.419  1.9097  1.5074 -0.2418
18303TIP3   OH276399   0.750   2.285  14.575  0.9395 -0.0661 -0.3999
18303TIP3    H176400   0.821   2.349  14.581 -0.2888  1.2537  1.2029
18303TIP3    H276401   0.741   2.267  14.482  1.3112  2.1803 -0.9275
18304TIP3   OH276402   6.363   1.547   1.053 -0.2090 -0.5743 -0.2523
18304TIP3    H176403   6.366   1.546   0.958  2.3898  0.9639 -0.2664
18304TIP3    H276404   6.431   1.485   1.080 -2.4372 -2.8070  0.7453
18305TIP3   OH276405   2.336   0.245  10.329  0.0219 -0.3464 -0.5174
18305TIP3    H176406   2.286   0.166  10.351  0.2021 -0.2048  0.4352
18305TIP3    H276407   2.425   0.226  10.359  0.0577  0.2302 -0.2598
18306TIP3   OH276408   2.456   4.495   1.665 -0.2918 -0.4363 -0.4407
18306TIP3    H176409   2.447   4.445   1.745  0.5041 -1.1354 -0.7771
18306TIP3    H276410   2.491   4.580   1.693 -0.2513 -0.5909 -0.0230
18307TIP3   OH276411   3.426   0.165   0.942 -0.6268 -0.3587 -0.1616
18307TIP3    H176412   3.516   0.136   0.925 -0.1688  0.6831  0.3755
18307TIP3    H276413   3.429   0.202   1.031 -1.0941  1.5233 -0.8774
18308TIP3   OH276414   4.268   0.637  13.672  0.2435  0.6643 -0.2540
18308TIP3    H176415   4.240   0.691  13.599 -0.1056  2.6122  1.2365
18308TIP3    H276416   4.186   0.609  13.714  0.4409  0.9045  0.3050
18309TIP3   OH276417   1.307   6.289  16.674  0.3676  0.2795 -0.1276
18309TIP3    H176418   1.377   6.224  16.675 -0.1128 -0.2543  0.4868
18309TIP3    H276419   1.254   6.266  16.598  0.7532  0.5739 -0.4914
18310TIP3   OH276420   6.308   3.829   6.172  0.1392  0.6493 -0.3575
18310TIP3    H176421   6.361   3.904   6.198  1.1145 -0.0278 -0.3155
18310TIP3    H276422   6.238   3.866   6.119  0.2447  1.6464  0.1869
18311TIP3   OH276423   1.771   0.780  11.898 -0.0036  0.0464  1.0315
18311TIP3    H176424   1.791   0.872  11.918 -2.8140  0.5341  2.1873
18311TIP3    H276425   1.732   0.747  11.979 -1.9660 -1.1865 -0.3231
18312TIP3   OH276426   4.308   2.929   3.956 -0.5226 -0.8009 -0.7851
18312TIP3    H176427   4.374   2.861   3.950  0.8486  0.4171 -0.1828
18312TIP3    H276428   4.229   2.883   3.985  0.6026 -2.0073  0.5285
18313TIP3   OH276429   5.288   2.474   1.199 -0.1065 -0.3189  0.0642
18313TIP3    H176430   5.353   2.414   1.237  0.4149 -0.4946 -1.0778
18313TIP3    H276431   5.209   2.458   1.249  0.9844  0.7239  2.3027
18314TIP3   OH276432   6.636   1.494   2.192  0.3990  0.0272  0.2726
18314TIP3    H176433   6.632   1.583   2.225  1.4934  0.1207  0.1749
18314TIP3    H276434   6.685   1.500   2.110  0.7997 -0.7055  0.4473
18315TIP3   OH276435   1.288   5.060   4.562 -0.2525 -0.2493 -0.3754
18315TIP3    H176436   1.353   5.020   4.619  0.7712 -0.0950 -1.4063
18315TIP3    H276437   1.206   5.015   4.583 -0.0286  0.1646  1.5731
18316TIP3   OH276438   3.441   2.390  16.156  0.0889  0.1769  0.3014
18316TIP3    H176439   3.523   2.437  16.143 -0.1966  1.0767  1.6367
18316TIP3    H276440   3.407   2.378  16.067  1.6243 -0.1932 -0.2775
18317TIP3   OH276441   2.938   4.164  13.535 -0.2959  0.0812 -0.1795
18317TIP3    H176442   3.027   4.198  13.533  0.2809 -1.3704 -1.1320
18317TIP3    H276443   2.927   4.132  13.625  0.4798 -0.5153 -0.2838
18318TIP3   OH276444   2.817   5.532   4.758  0.2546  0.2488 -0.2275
18318TIP3    H176445   2.857   5.534   4.671  2.8987 -1.3540  0.8271
18318TIP3    H276446   2.746   5.469   4.750  0.2955  0.3070 -1.2728
18319TIP3   OH276447   5.952   3.694   2.565 -0.3767  0.4189  0.3001
18319TIP3    H176448   5.954   3.770   2.624  2.7459  0.4310  0.3530
18319TIP3    H276449   5.962   3.732   2.477  0.6446  0.1455  0.2832
18320TIP3   OH276450   3.865   5.220   3.322  0.2904  0.4819 -0.1234
18320TIP3    H176451   3.829   5.174   3.247 -0.4954  0.5154  0.2288
18320TIP3    H276452   3.903   5.151   3.376 -0.2707  0.3168  0.0661
18321TIP3   OH276453   3.023   0.459  16.281  0.3410 -0.0472 -0.0543
18321TIP3    H176454   3.055   0.488  16.366 -2.5562 -0.2807  1.2547
18321TIP3    H276455   2.935   0.496  16.275 -0.5487 -2.1931 -1.7436
18322TIP3   OH276456   0.171   5.998  17.011 -0.0674 -0.6758 -0.1561
18322TIP3    H176457   0.221   6.052  17.072  0.5630 -0.0392 -1.2078
18322TIP3    H276458   0.198   6.028  16.925 -2.4480 -0.1160 -0.7952
18323TIP3   OH276459   2.490   4.387   2.223  0.4173  0.1851 -0.0444
18323TIP3    H176460   2.474   4.318   2.288 -0.2959  1.6210  1.3788
18323TIP3    H276461   2.585   4.392   2.216  0.6140  0.9796  2.0973
18324TIP3   OH276462   2.040   5.736  13.181  0.4286  0.8653 -0.2119
18324TIP3    H176463   1.957   5.784  13.177 -0.0373  0.0559 -0.4210
18324TIP3    H276464   2.048   5.693  13.096 -1.0749 -2.4970  1.1824
18325TIP3   OH276465   2.433   3.295  15.971 -0.5831 -0.0745 -0.4031
18325TIP3    H176466   2.514   3.345  15.960 -0.7276 -0.2369 -2.5337
18325TIP3    H276467   2.452   3.210  15.932 -0.9546 -1.1174  1.5245
18326TIP3   OH276468   1.450   0.252   0.455  0.5475 -0.0130  0.1085
18326TIP3    H176469   1.422   0.166   0.487 -1.6614  0.3008 -0.8430
18326TIP3    H276470   1.539   0.238   0.423  0.5565 -1.7254  0.7934
18327TIP3   OH276471   5.043   1.942   4.140  0.5604 -0.5792  0.1277
18327TIP3    H176472   5.119   1.886   4.127  1.8909  0.6275  2.1975
18327TIP3    H276473   5.052   2.011   4.074 -0.0560 -1.6634 -1.1534
18328TIP3   OH276474   1.575   0.706   5.252  0.0723 -0.0646  0.0497
18328TIP3    H176475   1.612   0.629   5.209  1.2463  0.5917 -0.1536
18328TIP3    H276476   1.480   0.691   5.250  0.2415 -1.1739 -0.5956
18329TIP3   OH276477   0.974   6.002   0.574 -1.0444 -0.6453  0.2258
18329TIP3    H176478   1.041   5.989   0.641  1.0753 -0.6927 -1.7917
18329TIP3    H276479   0.966   5.916   0.532 -0.1660  0.0320 -1.4387
18330TIP3   OH276480   0.954   5.164  13.793  0.3458  0.1113  0.5473
18330TIP3    H176481   0.972   5.104  13.721 -0.4414  1.2557 -0.6453
18330TIP3    H276482   1.040   5.199  13.818  0.9107 -1.9705  1.7379
18331TIP3   OH276483   5.519   3.107   6.592 -0.2709 -0.0453 -0.2589
18331TIP3    H176484   5.458   3.092   6.519 -1.9278  0.8529  0.8822
18331TIP3    H276485   5.565   3.024   6.602  0.0248 -0.1788 -2.3376
18332TIP3   OH276486   5.494   6.270  16.461  0.0378 -0.4899  0.2285
18332TIP3    H176487   5.551   6.215  16.514 -0.2240 -0.1494  0.8714
18332TIP3    H276488   5.411   6.222  16.458 -0.1920 -0.1317  0.7922
18333TIP3   OH276489   6.195   0.524   4.552  0.3633  0.7554  0.3774
18333TIP3    H176490   6.212   0.448   4.497  0.0445  0.3068  0.8867
18333TIP3    H276491   6.278   0.540   4.598 -0.1671 -0.6225  1.8792
18334TIP3   OH276492   4.382   0.798  10.349 -0.1808 -0.6255  0.2782
18334TIP3    H176493   4.338   0.724  10.391 -1.1122 -1.1955 -1.5986
18334TIP3    H276494   4.311   0.857  10.324  0.3411 -0.2869 -0.4359
18335TIP3   OH276495   5.844   6.653   4.769 -0.3301 -0.1033 -0.0045
18335TIP3    H176496   5.920   6.706   4.744 -0.9427  1.1111  0.6381
18335TIP3    H276497   5.882   6.573   4.806  0.8094  1.8218  3.3884
18336TIP3   OH276498   1.303   0.192   3.599  0.0608 -0.9790  0.1049
18336TIP3    H176499   1.282   0.202   3.692  1.2134 -0.1046  0.2909
18336TIP3    H276500   1.387   0.147   3.598  0.7218  0.2212 -0.4525
18337TIP3   OH276501   3.996   5.146   2.189 -0.2418  0.4442 -0.4535
18337TIP3    H176502   3.982   5.051   2.187 -1.6558  0.6402 -2.2586
18337TIP3    H276503   4.051   5.164   2.113  0.2871  1.0549  0.0602
18338TIP3   OH276504   2.658   2.919  12.961 -0.0039 -0.1220  0.2812
18338TIP3    H176505   2.627   2.839  13.004 -0.9681 -1.2844 -2.3441
18338TIP3    H276506   2.746   2.897  12.931  0.0976  0.1548  0.3793
18339TIP3   OH276507   0.034   0.139  13.806 -0.8093  0.1146  0.3462
18339TIP3    H176508  -0.002   0.227  13.804  0.4808  0.7424  1.9314
18339TIP3    H276509  -0.032   0.086  13.851 -0.9147  0.6593  0.8471
18340TIP3   OH276510   6.241   1.150  13.599 -0.2814 -0.6784  0.6830
18340TIP3    H176511   6.314   1.153  13.661  0.1459  1.7199  0.1560
18340TIP3    H276512   6.282   1.151  13.513 -0.9284 -1.4424  0.3509
18341TIP3   OH276513   4.369   6.753  11.231  0.3003 -0.1771 -0.1505
18341TIP3    H176514   4.414   6.786  11.153  2.9377  0.0946  1.3475
18341TIP3    H276515   4.426   6.778  11.304  0.2820 -4.1393  1.5258
18342TIP3   OH276516   6.656   0.251   4.135  0.0573  0.6844 -0.3726
18342TIP3    H176517   6.567   0.229   4.108  0.3750 -0.8606 -0.2727
18342TIP3    H276518   6.647   0.332   4.186 -1.0041  1.6756 -2.0433
18343TIP3   OH276519   3.245   2.411   1.035  0.4060 -0.0156 -0.4721
18343TIP3    H176520   3.281   2.436   1.120 -1.9298 -1.2382  0.9865
18343TIP3    H276521   3.272   2.320   1.023 -0.0705 -0.1533 -0.5484
18344TIP3   OH276522   5.974   2.684  15.080  0.6155  0.7594 -0.3273
18344TIP3    H176523   6.050   2.626  15.081  1.2459  1.5571 -0.7257
18344TIP3    H276524   5.954   2.700  15.172 -0.6838 -1.4708 -0.1443
18345TIP3   OH276525   0.707   0.664  16.172 -0.2887 -0.2593 -0.0703
18345TIP3    H176526   0.677   0.721  16.243  1.7917 -0.6335  1.1815
18345TIP3    H276527   0.643   0.593  16.170 -1.7479  0.9970 -0.2769
18346TIP3   OH276528   1.367   4.617   5.822  0.4376 -0.4055 -0.5624
18346TIP3    H176529   1.426   4.685   5.790  0.9656 -0.1547  0.8516
18346TIP3    H276530   1.408   4.535   5.793 -0.6122 -0.1537 -2.9408
18347TIP3   OH276531   2.951   0.431   3.244  0.0159  0.8341  0.0376
18347TIP3    H176532   2.940   0.354   3.301  0.1455 -1.0350 -2.2922
18347TIP3    H276533   3.043   0.453   3.251 -0.2840  1.7829  1.8148
18348TIP3   OH276534   6.688   6.265   3.996 -0.2581  0.3032  0.2840
18348TIP3    H176535   6.606   6.309   3.975  0.4014  1.6791  0.4806
18348TIP3    H276536   6.666   6.206   4.068 -0.6557  2.2334  1.8293
18349TIP3   OH276537   0.995   2.732   4.981  0.5599 -1.3345 -0.0623
18349TIP3    H176538   0.914   2.761   4.938  0.6400 -0.3754  0.4248
18349TIP3    H276539   1.034   2.671   4.918  0.4939 -0.2402 -1.2048
18350TIP3   OH276540   6.624   0.402  11.573 -0.3343  0.3072  0.1531
18350TIP3    H176541   6.552   0.405  11.510 -0.0268  1.4574 -0.1682
18350TIP3    H276542   6.662   0.315  11.563 -1.5481 -0.2289  0.1776
18351TIP3   OH276543   3.686   4.379  16.793 -0.3253  0.4452  0.1210
18351TIP3    H176544   3.687   4.418  16.880  0.4536  0.3374  0.1670
18351TIP3    H276545   3.682   4.285  16.808  2.3110  0.2544  0.1373
18352TIP3   OH276546   0.528   0.095  12.958  0.3999  0.5622  0.4738
18352TIP3    H176547   0.436   0.114  12.940 -0.4350 -1.0232  2.7153
18352TIP3    H276548   0.541   0.123  13.049  1.4775 -1.3845  0.9654
18353TIP3   OH276549   3.609   5.593  11.206 -0.1000  0.1668  0.0446
18353TIP3    H176550   3.559   5.657  11.157  1.6420  0.1385 -1.8758
18353TIP3    H276551   3.648   5.642  11.279  0.3143  1.0710 -0.7714
18354TIP3   OH276552   2.866   3.747  11.432  0.2239  0.0528 -0.8123
18354TIP3    H176553   2.878   3.709  11.345  1.3468  1.3324 -1.2393
18354TIP3    H276554   2.954   3.770  11.461 -0.0206 -1.1458  1.0664
18355TIP3   OH276555   4.368   4.100   1.316  0.1462 -0.3470  0.4370
18355TIP3    H176556   4.436   4.153   1.359 -1.6543  0.4603  2.5003
18355TIP3    H276557   4.357   4.140   1.230  0.3191  1.3323  1.1569
18356TIP3   OH276558   4.091   5.630   0.667 -0.5661 -0.3471 -0.3980
18356TIP3    H176559   4.146   5.667   0.598 -1.2870 -0.0526 -0.8328
18356TIP3    H276560   4.047   5.556   0.626  0.7333 -1.6454  0.4191
18357TIP3   OH276561   5.670   2.629   2.116  0.0999  0.0286 -0.0785
18357TIP3    H176562   5.710   2.672   2.192  1.6906  0.1025 -0.8975
18357TIP3    H276563   5.677   2.694   2.046  0.0373 -0.5771 -0.6586
18358TIP3   OH276564   4.798   5.945  11.581  0.0240  0.4387  0.0972
18358TIP3    H176565   4.872   5.987  11.537  0.7605  0.8958  1.7179
18358TIP3    H276566   4.723   5.999  11.555  0.1529 -0.1975 -1.7987
18359TIP3   OH276567   0.941   2.500  11.275  0.4430  0.1733 -0.7193
18359TIP3    H176568   0.918   2.407  11.280 -0.7597  0.4616 -0.6912
18359TIP3    H276569   0.876   2.538  11.216  0.7921  1.0421 -0.5644
18360TIP3   OH276570   3.539   3.076  15.579  0.1975  0.1597 -0.4888
18360TIP3    H176571   3.535   2.991  15.535 -0.2037 -0.1240  0.0846
18360TIP3    H276572   3.560   3.138  15.509  0.3250 -0.3845 -0.9420
18361TIP3   OH276573   1.437   1.589   2.866  0.0485  0.4099 -0.3360
18361TIP3    H176574   1.453   1.664   2.809 -0.2917  1.2713  0.6561
18361TIP3    H276575   1.354   1.610   2.910  1.2151  0.7212  1.8917
18362TIP3   OH276576   0.955   5.074  14.166 -0.2948 -0.6268  0.1239
18362TIP3    H176577   0.951   4.990  14.121 -2.0079 -0.2917 -0.4120
18362TIP3    H276578   0.885   5.126  14.126 -1.2645  0.0115  2.5051
18363TIP3   OH276579   4.859   3.782   3.455 -0.4219 -0.6193  0.5559
18363TIP3    H176580   4.941   3.825   3.481 -0.4619  0.1526 -0.5260
18363TIP3    H276581   4.797   3.805   3.524 -1.3712  3.9620 -1.4952
18364TIP3   OH276582   5.686   2.386   2.267  0.0442 -0.3810  0.3258
18364TIP3    H176583   5.679   2.442   2.189 -0.0019 -0.9859 -0.1167
18364TIP3    H276584   5.600   2.389   2.307  0.1167  0.0717  0.4475
18365TIP3   OH276585   1.190   4.703  10.979 -0.4196 -0.1548 -0.0228
18365TIP3    H176586   1.139   4.761  11.036  0.3290 -1.3381  1.9303
18365TIP3    H276587   1.281   4.728  10.994 -0.0898 -1.6915  0.7520
18366TIP3   OH276588   3.583   6.551   1.168 -0.6328  0.2245  0.6784
18366TIP3    H176589   3.538   6.626   1.206  1.5851  1.5792  0.7916
18366TIP3    H276590   3.542   6.540   1.082 -0.8681  1.7068  0.5729
18367TIP3   OH276591   1.706   4.318   0.018  0.0369 -0.0250  0.5834
18367TIP3    H176592   1.783   4.371   0.042 -0.3223  0.8770 -0.2027
18367TIP3    H276593   1.682   4.274   0.100  0.8947  0.3151  1.0440
18368TIP3   OH276594   3.125   0.256   0.299  0.0466  0.2590 -0.0934
18368TIP3    H176595   3.113   0.194   0.371  0.3374 -1.0650 -1.1329
18368TIP3    H276596   3.205   0.226   0.256 -0.2748  0.8498 -1.1268
18369TIP3   OH276597   1.272   0.897   6.317 -0.5111  0.4741 -0.5513
18369TIP3    H176598   1.197   0.876   6.372  0.0734 -1.2011 -0.3477
18369TIP3    H276599   1.290   0.989   6.335 -2.0619  0.7109 -0.0774
18370TIP3   OH276600   4.094   3.795   1.158 -0.3019 -0.8622  0.2754
18370TIP3    H176601   4.048   3.877   1.177  0.4639  0.0613 -1.5263
18370TIP3    H276602   4.173   3.799   1.211 -0.0459 -0.1867 -0.1379
18371TIP3   OH276603   3.926   6.128  11.169 -0.4691  0.1266  0.3397
18371TIP3    H176604   3.972   6.094  11.093  1.8506 -0.8586  2.0660
18371TIP3    H276605   3.990   6.183  11.214 -1.6579  0.4247  1.7692
18372TIP3   OH276606   5.304   3.432  14.465  0.3463  0.0991 -0.1938
18372TIP3    H176607   5.218   3.461  14.494  0.9463  0.9901  0.7382
18372TIP3    H276608   5.304   3.449  14.370 -0.3382  0.4904 -0.1305
18373TIP3   OH276609   6.334   4.680  11.191 -0.1326  0.6229  0.2869
18373TIP3    H176610   6.321   4.718  11.104  0.9772  2.9182  1.0585
18373TIP3    H276611   6.281   4.735  11.249  0.4913  0.1743  1.3018
18374TIP3   OH276612   3.847   6.607  16.425  0.2223  0.2861  0.2160
18374TIP3    H176613   3.820   6.681  16.370  0.5862 -0.1296 -0.5529
18374TIP3    H276614   3.913   6.644  16.484 -0.3941  0.8102  0.5812
18375TIP3   OH276615   4.714   3.124  11.006  0.3755 -0.0610  0.5945
18375TIP3    H176616   4.686   3.155  10.919  1.2141  0.2261  0.4119
18375TIP3    H276617   4.782   3.059  10.987 -0.2355 -0.8296  1.0201
18376TIP3   OH276618   3.369   4.248   1.446 -0.4173  0.1742  0.6081
18376TIP3    H176619   3.309   4.296   1.504  0.2387  0.8384  0.7584
18376TIP3    H276620   3.435   4.211   1.505 -0.4134 -0.1556  0.3989
18377TIP3   OH276621   6.617   2.639   3.488  0.1476 -0.3583 -0.2503
18377TIP3    H176622   6.659   2.713   3.444  0.7866 -1.1459 -1.0152
18377TIP3    H276623   6.545   2.615   3.429 -0.0899 -0.3071  0.0208
18378TIP3   OH276624   0.567   5.903   6.125 -0.0197 -0.1330  0.3260
18378TIP3    H176625   0.494   5.963   6.134 -0.1677 -0.0994 -0.9617
18378TIP3    H276626   0.632   5.934   6.188 -0.2128  1.2126 -0.1059
18379TIP3   OH276627   1.990   3.405   0.118 -0.5304  0.8997 -0.2328
18379TIP3    H176628   1.970   3.381   0.028 -0.4297  0.6414 -0.1880
18379TIP3    H276629   1.925   3.471   0.141  0.1918  1.8746 -0.8938
18380TIP3   OH276630   4.609   3.196   3.474  0.3901  0.1908 -0.6144
18380TIP3    H176631   4.550   3.260   3.434  0.8973  0.9101 -0.2311
18380TIP3    H276632   4.554   3.147   3.535  0.1121  0.6157 -0.5213
18381TIP3   OH276633   2.766   1.283  10.976  0.3908 -0.1960  0.2130
18381TIP3    H176634   2.714   1.260  10.899  1.0669 -0.1640 -0.2576
18381TIP3    H276635   2.809   1.202  11.001 -0.3327 -0.3643  0.9610
18382TIP3   OH276636   6.771   1.542   0.833  0.2286 -0.1791  0.0166
18382TIP3    H176637   6.719   1.617   0.860 -1.5815 -1.1741 -0.4946
18382TIP3    H276638   6.740   1.470   0.888  3.4690 -0.1718  2.0530
18383TIP3   OH276639   3.237   5.432   1.565  0.4910 -0.2976 -0.0304
18383TIP3    H176640   3.327   5.456   1.546  0.7565 -2.2823 -1.5444
18383TIP3    H276641   3.244   5.355   1.621 -0.1815 -1.7211 -1.8176
18384TIP3   OH276642   5.167   5.133  11.896 -0.2190 -0.2127 -0.2031
18384TIP3    H176643   5.196   5.045  11.871 -0.5264 -0.3412 -0.1036
18384TIP3    H276644   5.088   5.148  11.844 -0.2388 -0.0460 -0.1242
18385TIP3   OH276645   4.965   2.864   5.415  0.3366 -0.4288  0.1574
18385TIP3    H176646   5.060   2.866   5.404  0.5337 -0.9938  1.6063
18385TIP3    H276647   4.947   2.783   5.462 -0.8071 -0.0516  0.4241
18386TIP3   OH276648   6.403   1.743   4.652  0.1935  0.3964 -0.5789
18386TIP3    H176649   6.479   1.757   4.596  0.5647 -0.1627 -0.2340
18386TIP3    H276650   6.418   1.656   4.690 -0.9576 -0.0300 -1.0444
18387TIP3   OH276651   4.055   2.365  15.207 -0.6612 -0.1762 -0.2812
18387TIP3    H176652   3.984   2.305  15.184  0.1127 -1.1811 -0.1291
18387TIP3    H276653   4.129   2.338  15.152  0.7487 -1.6457  2.1457
18388TIP3   OH276654   1.092   0.521   5.804 -0.5720 -0.1243  0.1973
18388TIP3    H176655   1.024   0.455   5.819  0.2509 -1.6632 -2.3219
18388TIP3    H276656   1.145   0.518   5.884 -1.7901 -0.9446  1.0151
18389TIP3   OH276657   6.631   2.239  14.620  0.4142  0.2668  0.6016
18389TIP3    H176658   6.597   2.176  14.683 -1.1140  2.0124  1.6262
18389TIP3    H276659   6.636   2.191  14.538 -1.1333 -1.0669  1.2395
18390TIP3   OH276660   5.279   5.246   0.918 -0.0764  0.3830 -0.4215
18390TIP3    H176661   5.255   5.291   0.837  0.3331  0.0638 -0.7316
18390TIP3    H276662   5.375   5.243   0.915 -0.0660  0.2645  0.0190
18391TIP3   OH276663   2.234   6.767   3.315 -0.4979 -0.7184 -0.0500
18391TIP3    H176664   2.262   6.726   3.234  0.0991 -1.6258  0.5867
18391TIP3    H276665   2.140   6.748   3.321 -0.5109 -0.7782 -0.4565
18392TIP3   OH276666   5.767   5.332   3.804 -0.5146  0.4402 -0.0505
18392TIP3    H176667   5.673   5.315   3.814 -0.5288  0.8801  0.6253
18392TIP3    H276668   5.791   5.379   3.884  0.2028  0.6605 -0.3928
18393TIP3   OH276669   1.868   5.969  15.149  0.0892  0.3334 -0.0076
18393TIP3    H176670   1.851   5.938  15.060  0.0638 -1.0704  0.4648
18393TIP3    H276671   1.783   6.000  15.181  0.3673  2.2116 -0.9444
18394TIP3   OH276672   4.159   0.058   6.721 -0.4631 -0.0416  0.1786
18394TIP3    H176673   4.157   0.102   6.806 -0.5272 -0.5867  0.4689
18394TIP3    H276674   4.108  -0.022   6.735 -2.4888  0.9517 -1.0003
18395TIP3   OH276675   2.347   2.727   3.652  0.4134  0.2814 -0.1269
18395TIP3    H176676   2.306   2.807   3.684 -0.0610 -0.2691  0.6669
18395TIP3    H276677   2.399   2.695   3.726  1.2014  0.2435 -0.6807
18396TIP3   OH276678   0.890   3.199   0.962 -0.1963 -0.0086 -0.1571
18396TIP3    H176679   0.876   3.212   1.056  0.2247  0.9893 -0.2214
18396TIP3    H276680   0.977   3.237   0.945 -0.9450  1.3017 -1.2419
18397TIP3   OH276681   4.128   4.816   0.597  0.2774 -0.1889 -0.2020
18397TIP3    H176682   4.041   4.801   0.632  0.0370  1.2766 -0.0997
18397TIP3    H276683   4.161   4.729   0.576 -1.5670 -0.7319 -1.1183
18398TIP3   OH276684   2.474   4.793   2.539 -0.0930  0.2861  0.3427
18398TIP3    H176685   2.394   4.779   2.590 -0.1383  0.5484  0.3408
18398TIP3    H276686   2.535   4.833   2.601 -0.6463  2.0385 -0.2070
18399TIP3   OH276687   6.569   0.847  15.035  0.5495  0.1120  0.0621
18399TIP3    H176688   6.504   0.786  15.001  1.0441 -0.8097  0.7265
18399TIP3    H276689   6.609   0.802  15.109 -0.0734  1.8122  1.5103
18400TIP3   OH276690   4.792   3.237   1.071  0.1758 -0.6980 -0.3286
18400TIP3    H176691   4.818   3.248   0.979  1.7738  0.9009  0.2392
18400TIP3    H276692   4.863   3.186   1.110  0.6525  0.5236  0.4594
18401TIP3   OH276693   2.005   0.776   4.356  0.6539 -0.3184  0.2086
18401TIP3    H176694   1.929   0.721   4.376  1.9011 -2.4890 -0.6688
18401TIP3    H276695   1.970   0.865   4.353 -1.9408 -1.2750 -0.6466
18402TIP3   OH276696   3.969   1.412   1.549 -0.4144 -0.3725  0.7450
18402TIP3    H176697   4.004   1.357   1.619 -0.1067 -0.6628  0.3714
18402TIP3    H276698   3.891   1.452   1.586  1.2720  1.7353  2.2500
18403TIP3   OH276699   4.612   4.662  15.533  0.4208  0.4685 -0.3782
18403TIP3    H176700   4.559   4.588  15.559  2.1170 -0.6078  0.1867
18403TIP3    H276701   4.593   4.730  15.598  0.1092 -0.0616  0.0855
18404TIP3   OH276702   5.127   2.643  10.836 -0.2046  0.3977  0.0741
18404TIP3    H176703   5.194   2.706  10.809 -0.4675  0.7513  0.2400
18404TIP3    H276704   5.044   2.688  10.819 -0.3903  0.9579  2.1481
18405TIP3   OH276705   6.601   4.174   1.644  0.1355  0.3071 -0.1661
18405TIP3    H176706   6.641   4.151   1.560 -0.0069  2.2892 -0.8338
18405TIP3    H276707   6.674   4.200   1.699  0.3448 -1.9853  0.7359
18406TIP3   OH276708   4.316   0.130   0.698 -0.2231 -0.0270  0.4086
18406TIP3    H176709   4.268   0.213   0.702 -0.4159  0.0023 -1.7696
18406TIP3    H276710   4.349   0.118   0.787 -2.1695  1.1886  1.3640
18407TIP3   OH276711   1.600   3.218   6.329 -0.2065 -0.0711 -0.4792
18407TIP3    H176712   1.636   3.306   6.328  0.4003 -0.2925  0.7569
18407TIP3    H276713   1.548   3.213   6.409  1.0144 -1.3001  0.2819
18408TIP3   OH276714   0.250   2.298  11.998 -0.3776 -0.2805  0.0950
18408TIP3    H176715   0.343   2.306  12.015 -0.2171  1.7413 -1.3915
18408TIP3    H276716   0.220   2.229  12.058  2.3744 -2.2876 -0.6357
18409TIP3   OH276717   4.611   4.358  12.419  0.4135 -0.0411 -0.4173
18409TIP3    H176718   4.563   4.303  12.357  1.1578 -1.1101 -0.0850
18409TIP3    H276719   4.671   4.297  12.463  0.0568  0.7341  1.1938
18410TIP3   OH276720   3.876   2.044   1.967  0.2293  0.1140  0.1040
18410TIP3    H176721   3.936   2.033   2.041 -0.1160 -1.4014  0.1866
18410TIP3    H276722   3.923   2.008   1.892 -1.1456 -2.6650  0.4772
18411TIP3   OH276723   3.521   0.661  12.155 -0.2682  0.0858 -0.4819
18411TIP3    H176724   3.528   0.668  12.250  1.3298 -0.4653 -0.5365
18411TIP3    H276725   3.457   0.591  12.141 -1.5590  1.0980  0.1557
18412TIP3   OH276726   0.619   0.351  14.057  0.1730 -0.6088  0.2343
18412TIP3    H176727   0.601   0.331  14.149 -2.0782  0.4643  0.0993
18412TIP3    H276728   0.709   0.382  14.056  0.4429 -1.2418  1.9610
18413TIP3   OH276729   2.748   1.219   0.222 -0.2273 -0.5374  0.3518
18413TIP3    H176730   2.827   1.217   0.167 -1.1248 -2.0831 -0.9636
18413TIP3    H276731   2.679   1.247   0.163 -0.8159  0.0903  1.3123
18414TIP3   OH276732   2.969   5.814   5.856 -0.1865  0.2411 -0.6645
18414TIP3    H176733   2.915   5.875   5.807  0.6673  0.7104 -1.0223
18414TIP3    H276734   2.908   5.745   5.883 -1.1560  1.2141 -0.2766
18415TIP3   OH276735   3.085   3.131  11.796 -0.2676 -0.7564  0.3654
18415TIP3    H176736   3.144   3.106  11.725 -1.1088 -1.0736 -0.2334
18415TIP3    H276737   3.002   3.151  11.752 -0.1956  1.1607  1.0287
18416TIP3   OH276738   5.571   3.552  13.091  0.2568 -0.3316  0.5076
18416TIP3    H176739   5.501   3.600  13.048  0.1811  0.7756  1.7983
18416TIP3    H276740   5.527   3.482  13.139  0.3191 -1.4040 -0.9569
18417TIP3   OH276741   3.829   1.836  13.036  0.1764 -0.3861  1.1388
18417TIP3    H176742   3.753   1.827  13.093 -0.0343  2.5996  1.4867
18417TIP3    H276743   3.796   1.884  12.959  1.0587 -1.8557 -0.2157
18418TIP3   OH276744   3.301   6.234  16.836  0.5542  0.3039  0.3102
18418TIP3    H176745   3.369   6.206  16.776 -0.3586 -2.0871  0.2945
18418TIP3    H276746   3.348   6.271  16.911  1.8600 -0.7541  0.0425
18419TIP3   OH276747   6.477   5.283   2.335  0.6479 -0.0541 -0.2090
18419TIP3    H176748   6.417   5.349   2.371  1.3192  0.2805  0.3357
18419TIP3    H276749   6.503   5.231   2.412  0.9741 -0.2539 -0.4528
18420TIP3   OH276750   3.806   0.571  15.082  0.4235 -0.4982 -0.2575
18420TIP3    H176751   3.764   0.644  15.128 -0.6771 -0.1909 -1.6631
18420TIP3    H276752   3.871   0.538  15.143 -0.1624  0.6406  1.0360
18421TIP3   OH276753   0.848   6.384   5.529  0.1832  0.0731 -0.1932
18421TIP3    H176754   0.910   6.416   5.463 -0.2457 -0.3032 -0.7838
18421TIP3    H276755   0.790   6.459   5.545 -0.8964 -0.4011 -1.6681
18422TIP3   OH276756   6.267   1.869  16.783  0.0939  0.0576  0.7188
18422TIP3    H176757   6.223   1.810  16.722  0.9315  0.6285 -0.4584
18422TIP3    H276758   6.352   1.887  16.743  0.2801  1.2109  1.5855
18423TIP3   OH276759   5.184   0.011  13.648  0.0144  0.3031  0.2483
18423TIP3    H176760   5.185   0.095  13.603  0.7173  0.1674 -0.0078
18423TIP3    H276761   5.103  -0.032  13.618  0.5315  0.1622 -1.0021
18424TIP3   OH276762   5.038   4.749   5.980  0.5959 -0.2944 -0.1162
18424TIP3    H176763   5.018   4.712   6.065  2.1646  0.2352  0.5285
18424TIP3    H276764   5.050   4.673   5.922 -0.2283 -0.6599  0.1853
18425TIP3   OH276765   1.453   3.456  13.791  0.0658 -0.2817 -0.4104
18425TIP3    H176766   1.372   3.470  13.841  0.0133  0.9307 -0.7882
18425TIP3    H276767   1.510   3.529  13.817  0.7843 -0.7451 -0.6560
18426TIP3   OH276768   4.170   0.053  11.406 -0.1917 -0.2516 -0.4006
18426TIP3    H176769   4.250   0.001  11.400  1.1185  1.7119 -0.9915
18426TIP3    H276770   4.173   0.112  11.331 -2.3061 -0.2249 -0.5405
18427TIP3   OH276771   6.813   6.260   0.368  0.0723  0.8206 -0.3594
18427TIP3    H176772   6.759   6.255   0.447 -0.2013  0.3356 -0.5735
18427TIP3    H276773   6.831   6.169   0.345  0.0339  0.9489 -0.9319
18428TIP3   OH276774   0.931   4.185  17.021  0.2104  0.5646 -1.1051
18428TIP3    H176775   0.933   4.199  16.927 -1.0815  0.9020 -1.1046
18428TIP3    H276776   0.897   4.096  17.032  1.0480  0.2544 -0.9612
18429TIP3   OH276777   3.941   0.376  13.255  0.8071 -0.2128  0.2710
18429TIP3    H176778   3.954   0.345  13.345  0.4535  0.0992  0.4355
18429TIP3    H276779   4.012   0.438  13.241  1.0765 -0.5367  0.2059
18430TIP3   OH276780   3.622   2.354   3.093  0.0267  0.0653 -0.6755
18430TIP3    H176781   3.580   2.407   3.161  1.3241 -0.0227  0.2374
18430TIP3    H276782   3.593   2.265   3.111  1.1153 -0.1001  0.4053
18431TIP3   OH276783   0.120   1.618  10.532  0.8544  0.3388 -0.5297
18431TIP3    H176784   0.157   1.539  10.492  1.4853  0.2671  0.1885
18431TIP3    H276785   0.160   1.690  10.483  1.5034  0.2478 -0.1340
18432TIP3   OH276786   3.178   5.711   2.848 -0.2913  0.2743  0.4474
18432TIP3    H176787   3.269   5.710   2.817 -0.4235 -1.5313 -0.0142
18432TIP3    H276788   3.167   5.798   2.886  0.5862  1.7938 -2.4872
18433TIP3   OH276789   3.279   6.629   2.691 -0.3420 -0.5176 -0.0401
18433TIP3    H176790   3.202   6.631   2.749  0.0731 -2.5594  0.6472
18433TIP3    H276791   3.289   6.537   2.668  2.3451 -0.4445  0.4934
18434TIP3   OH276792   5.475   4.511  14.234  0.1261  0.4284  0.3938
18434TIP3    H176793   5.428   4.430  14.252 -1.2366  1.3954  1.4438
18434TIP3    H276794   5.564   4.495  14.266  0.9182 -1.7781 -2.5267
18435TIP3   OH276795   2.979   5.085   3.364 -0.7279 -0.0886  0.4896
18435TIP3    H176796   3.020   5.017   3.310 -1.4521 -0.6655  0.6478
18435TIP3    H276797   3.052   5.130   3.406 -0.2508 -1.4295  1.1698
18436TIP3   OH276798   6.766   3.656  12.516  0.3786  0.1856 -0.3311
18436TIP3    H176799   6.704   3.727  12.537 -0.3754 -0.9677  1.5877
18436TIP3    H276800   6.729   3.579  12.558  2.9919 -0.6224  0.6548
18437TIP3   OH276801   2.380   6.735   0.115 -0.1618  0.1470 -0.4385
18437TIP3    H176802   2.445   6.674   0.148 -0.0375  0.9744  0.9072
18437TIP3    H276803   2.311   6.679   0.079  0.4357 -0.7636 -0.2000
18438TIP3   OH276804   2.102   1.326  15.238 -0.5390  0.0301  0.6508
18438TIP3    H176805   2.098   1.267  15.314  0.8045 -0.2469  0.5453
18438TIP3    H276806   2.012   1.336  15.210 -1.1854  0.7939  2.7884
18439TIP3   OH276807   3.639   1.317   2.470 -0.5478  0.0085 -0.3239
18439TIP3    H176808   3.719   1.330   2.522 -0.5769  1.8056 -0.6815
18439TIP3    H276809   3.671   1.280   2.387 -0.4754 -2.6120  0.7825
18440TIP3   OH276810   0.250   4.183  14.766 -0.0741 -0.0703 -0.6902
18440TIP3    H176811   0.257   4.087  14.766  2.2537  0.0018 -2.9913
18440TIP3    H276812   0.164   4.200  14.729 -0.0044 -1.3014 -1.4995
18441TIP3   OH276813   6.748   6.543   5.865 -0.0405 -0.1695 -0.0668
18441TIP3    H176814   6.826   6.488   5.862  0.0815 -0.0981  1.1632
18441TIP3    H276815   6.711   6.528   5.952 -0.0929  1.5557  0.2538
18442TIP3   OH276816   5.078   5.299  14.757 -0.1883  0.6293 -0.6502
18442TIP3    H176817   5.113   5.355  14.688 -0.8524  1.7143 -0.1271
18442TIP3    H276818   5.142   5.228  14.765  0.6129  1.2524 -1.3923
18443TIP3   OH276819   6.524   2.037  11.737 -0.1123 -0.1731 -0.5360
18443TIP3    H176820   6.509   2.015  11.646  0.2797 -1.0678 -0.3881
18443TIP3    H276821   6.508   1.956  11.785 -1.8680  0.6524  0.3665
18444TIP3   OH276822   2.046   5.898  10.646 -0.0694 -0.3836  0.2195
18444TIP3    H176823   1.956   5.901  10.613 -0.0170  1.2562  0.1941
18444TIP3    H276824   2.101   5.897  10.567 -0.0086  1.3021  0.2157
18445TIP3   OH276825   4.139   1.205  13.279  0.7166 -0.0828 -0.3028
18445TIP3    H176826   4.052   1.167  13.266  0.5771 -0.2185  0.9430
18445TIP3    H276827   4.189   1.176  13.203  0.5277 -2.5510  0.4410
18446TIP3   OH276828   3.188   1.399  13.015 -0.3565 -0.2376 -0.1663
18446TIP3    H176829   3.270   1.391  12.967 -0.5256 -0.3214 -0.4441
18446TIP3    H276830   3.134   1.457  12.961 -0.5328 -0.2998 -0.0576
18447TIP3   OH276831   6.415   2.005  11.475  0.1583  0.2793 -0.3386
18447TIP3    H176832   6.342   1.966  11.523  1.6539  0.2882  2.1281
18447TIP3    H276833   6.375   2.066  11.414 -2.0446 -2.1164 -1.4994
18448TIP3   OH276834   4.015   2.972  16.438  0.4461 -0.0086 -0.4238
18448TIP3    H176835   3.995   2.878  16.441  1.6834 -0.2499  1.2712
18448TIP3    H276836   4.029   2.997  16.529  2.7944  1.2273 -1.0512
18449TIP3   OH276837   6.432   6.309  13.263  0.0210  0.3239 -0.3953
18449TIP3    H176838   6.521   6.274  13.261 -0.0619 -0.2029  2.2775
18449TIP3    H276839   6.443   6.403  13.278  0.1299  0.1491  0.6511
18450TIP3   OH276840   0.578   5.567  16.506 -0.0090 -0.7947  1.0522
18450TIP3    H176841   0.652   5.517  16.470 -0.1824 -0.4501  0.2041
18450TIP3    H276842   0.522   5.501  16.547 -0.5986 -1.4141 -0.6862
18451TIP3   OH276843   6.144   6.427   5.450 -0.4120 -0.3300  0.1370
18451TIP3    H176844   6.157   6.510   5.404 -0.6645  0.8889  2.1576
18451TIP3    H276845   6.225   6.412   5.497  0.2080 -2.0686 -1.3540
18452TIP3   OH276846   6.010   4.318  14.913 -1.1753 -0.3631  0.1644
18452TIP3    H176847   6.014   4.256  14.841  0.6275 -0.5488  0.3705
18452TIP3    H276848   6.011   4.264  14.992  2.6412 -0.1999  0.4133
18453TIP3   OH276849   5.628   4.186  13.101 -0.6840 -0.2593  0.2883
18453TIP3    H176850   5.551   4.152  13.146 -1.1111  0.1234 -0.1501
18453TIP3    H276851   5.597   4.210  13.014  0.0183 -0.4843 -0.0353
18454TIP3   OH276852   1.037   0.285   3.523 -0.4055 -0.6666 -0.3856
18454TIP3    H176853   1.118   0.235   3.524  1.3257  1.9172  1.3907
18454TIP3    H276854   0.984   0.247   3.592  0.4243 -0.7678  0.2125
18455TIP3   OH276855   2.196   1.102   3.707 -0.6901  0.4819 -0.6946
18455TIP3    H176856   2.110   1.128   3.741 -0.7687  0.5173 -0.9202
18455TIP3    H276857   2.211   1.015   3.744 -0.6216  0.6628 -0.2907
18456TIP3   OH276858   3.777   1.945   0.243  0.3073  0.3523 -0.0076
18456TIP3    H176859   3.829   1.970   0.319  0.5745 -1.9006  0.6339
18456TIP3    H276860   3.797   1.853   0.230 -1.8995 -0.0486 -1.0612
18457TIP3   OH276861   2.872   5.512  11.944  0.1248 -0.4943  0.0229
18457TIP3    H176862   2.906   5.423  11.950  0.8008 -0.1890  0.9123
18457TIP3    H276863   2.865   5.542  12.034 -0.1892  0.3224 -0.2593
18458TIP3   OH276864   3.356   2.626   6.422  0.0865 -0.2969 -0.2130
18458TIP3    H176865   3.376   2.538   6.390  1.2290  0.0610 -0.5279
18458TIP3    H276866   3.271   2.617   6.465  0.0743 -1.5014 -0.4546
18459TIP3   OH276867   0.650   2.043   4.126  0.4156 -0.0118 -0.1504
18459TIP3    H176868   0.738   2.025   4.092  0.6704 -0.3854  0.6552
18459TIP3    H276869   0.653   2.010   4.216 -0.6986 -0.4572 -0.2599
18460TIP3   OH276870   4.623   3.989  12.378 -0.3457  0.3820 -0.0167
18460TIP3    H176871   4.698   4.049  12.373 -0.3044  0.3470  0.1551
18460TIP3    H276872   4.656   3.906  12.344 -0.3997  0.4527 -0.2435
18461TIP3   OH276873   1.512   3.711   4.151  0.0265  0.8000  0.2774
18461TIP3    H176874   1.486   3.752   4.233  1.2899  0.0097  1.0979
18461TIP3    H276875   1.549   3.626   4.176 -0.2474  0.2134 -1.1705
18462TIP3   OH276876   1.138   6.381   0.183 -0.2643  0.2723 -0.6545
18462TIP3    H176877   1.104   6.311   0.240  0.0157  1.6818  1.3568
18462TIP3    H276878   1.060   6.429   0.155 -0.2769  0.7541  0.1839
18463TIP3   OH276879   3.112   6.525   2.995 -0.0896 -0.1015 -0.5481
18463TIP3    H176880   3.060   6.550   3.072  0.1512 -0.3748 -0.2942
18463TIP3    H276881   3.200   6.560   3.014  0.1078 -0.6532 -0.4462
18464TIP3   OH276882   6.019   0.433   4.816  0.0135 -0.1663 -0.6458
18464TIP3    H176883   6.068   0.385   4.883  0.6883 -0.4655 -1.3407
18464TIP3    H276884   6.050   0.397   4.733 -0.2323  0.7484 -1.1508
18465TIP3   OH276885   1.235   1.078  12.881  0.0472 -0.2827 -0.4466
18465TIP3    H176886   1.216   0.985  12.867  0.1947 -0.2610 -0.7947
18465TIP3    H276887   1.195   1.122  12.806 -1.2797  0.0902  0.4360
18466TIP3   OH276888   2.066   5.415  16.979  0.0198  0.5323  0.4033
18466TIP3    H176889   2.125   5.392  16.908  0.4611 -1.2259  1.3037
18466TIP3    H276890   1.979   5.408  16.941  0.2756  0.2193 -0.1350
18467TIP3   OH276891   4.470   0.863   0.596 -0.0191  0.6503 -0.1165
18467TIP3    H176892   4.426   0.943   0.623 -1.3012 -0.2478  0.5181
18467TIP3    H276893   4.520   0.888   0.518 -1.7839  1.6775 -0.9700
18468TIP3   OH276894   3.733   2.884   1.637  0.2821  0.6683 -0.2569
18468TIP3    H176895   3.641   2.902   1.657  0.2709  0.0391  0.2965
18468TIP3    H276896   3.780   2.962   1.667  0.0704  0.4446  0.6999
18469TIP3   OH276897   6.095   4.092   1.357  0.1323  0.3372 -0.5285
18469TIP3    H176898   6.028   4.126   1.416  0.3089 -0.5158  0.1778
18469TIP3    H276899   6.069   4.124   1.271  0.2685  2.2181  0.0893
18470TIP3   OH276900   0.798   4.716  12.631 -0.1563  0.5380  1.2420
18470TIP3    H176901   0.761   4.636  12.594 -0.7599  0.2121  2.5014
18470TIP3    H276902   0.774   4.785  12.569  1.2096 -0.3470 -0.3855
18471TIP3   OH276903   2.536   3.881   3.051  0.1110  0.1006 -0.1971
18471TIP3    H176904   2.544   3.955   3.111 -1.3016  0.1369 -0.0040
18471TIP3    H276905   2.471   3.823   3.092  1.6401 -1.5819 -0.0287
18472TIP3   OH276906   6.132   2.049   3.844  0.3344 -0.1950 -0.1239
18472TIP3    H176907   6.179   1.979   3.799 -0.8281 -0.8599 -0.3629
18472TIP3    H276908   6.061   2.004   3.891  1.2258  0.5235  2.0382
18473TIP3   OH276909   2.761   4.080  15.096  0.4918 -0.0300 -0.6275
18473TIP3    H176910   2.760   4.120  15.183  3.8408 -2.3321  0.6906
18473TIP3    H276911   2.696   4.010  15.100  0.3348  0.1475 -0.1240
18474TIP3   OH276912   3.071   1.825   5.997 -0.1679  0.0598 -0.4550
18474TIP3    H176913   3.165   1.815   6.010 -0.4171  0.3519  2.0261
18474TIP3    H276914   3.038   1.858   6.081 -2.5927 -0.7080 -1.0195
18475TIP3   OH276915   0.814   0.155  12.894  0.0647 -0.1103 -0.0151
18475TIP3    H176916   0.742   0.165  12.831  0.3077  3.1801  0.0728
18475TIP3    H276917   0.772   0.157  12.980  0.1519  0.4144  0.0147
18476TIP3   OH276918   0.038   0.882  10.827 -0.3410 -0.5366  0.1196
18476TIP3    H176919  -0.034   0.943  10.811  1.2864  1.7848  1.0453
18476TIP3    H276920   0.046   0.833  10.746 -1.8458  0.3439 -0.6206
18477TIP3   OH276921   1.436   4.521  13.934 -0.0381  0.2106 -0.1318
18477TIP3    H176922   1.388   4.603  13.948  0.1628  0.1304  1.1185
18477TIP3    H276923   1.528   4.547  13.930 -0.0822  0.2573 -1.6810
18478TIP3   OH276924   4.106   5.201   3.855 -0.0821  0.0698  0.0320
18478TIP3    H176925   4.031   5.241   3.811 -0.1033 -0.6198 -0.5643
18478TIP3    H276926   4.073   5.178   3.942 -0.2719  0.6636  0.1258
18479TIP3   OH276927   6.145   0.924  13.909 -0.2167  0.8181  0.3483
18479TIP3    H176928   6.114   0.973  13.832 -0.9770  0.4362  0.3946
18479TIP3    H276929   6.182   0.844  13.873 -0.0486  0.8949  0.3476
18480TIP3   OH276930   5.030   4.976   4.089 -0.2294  0.5119  0.7510
18480TIP3    H176931   4.985   4.896   4.062  1.0903 -0.5208  1.4904
18480TIP3    H276932   4.963   5.044   4.083 -1.4315 -0.6598  0.2604
18481TIP3   OH276933   5.509   5.492   0.087  0.6684  0.1902 -0.1698
18481TIP3    H176934   5.561   5.509   0.008  0.7863  1.0295  0.0746
18481TIP3    H276935   5.526   5.567   0.144  0.3104 -0.2329  0.5139
18482TIP3   OH276936   1.516   1.725  11.122  0.2453  0.5534  0.2204
18482TIP3    H176937   1.537   1.818  11.132 -2.0153  1.0042  1.4441
18482TIP3    H276938   1.496   1.695  11.211  0.6499 -1.0550 -0.1912
18483TIP3   OH276939   5.664   4.980   3.286 -0.5693  0.4071 -0.5847
18483TIP3    H176940   5.594   5.034   3.250 -2.0809 -1.6004 -0.7710
18483TIP3    H276941   5.665   5.002   3.380 -2.4897 -0.5916 -0.2859
18484TIP3   OH276942   0.139   1.779   4.372 -0.2858  0.0443  0.0123
18484TIP3    H176943   0.220   1.828   4.383 -1.3824  2.1336 -0.6505
18484TIP3    H276944   0.129   1.770   4.277 -0.5822 -0.6415  0.1041
18485TIP3   OH276945   2.352   1.246   1.646  0.3362 -0.4503 -0.4576
18485TIP3    H176946   2.400   1.284   1.719  1.9402 -0.0011 -1.6952
18485TIP3    H276947   2.279   1.199   1.687  1.7001 -0.9898  1.4782
18486TIP3   OH276948   5.654   2.457  10.454  1.1319 -0.2664  0.0024
18486TIP3    H176949   5.702   2.520  10.402  0.8167  0.1279  0.1815
18486TIP3    H276950   5.697   2.373  10.437  0.8049 -0.2050 -1.1677
18487TIP3   OH276951   3.538   1.390  16.051 -0.0648  0.1745 -0.6223
18487TIP3    H176952   3.500   1.446  15.984  0.0390 -2.1613 -2.7805
18487TIP3    H276953   3.465   1.339  16.085  0.0533  0.6205  0.3324
18488TIP3   OH276954   0.255   6.771  13.284  0.0566  0.0706  0.3615
18488TIP3    H176955   0.346   6.801  13.277  0.0933  0.1753  1.1847
18488TIP3    H276956   0.262   6.680  13.316 -0.0199 -1.1731 -2.8454
18489TIP3   OH276957   1.356   0.094  16.833 -0.0569 -0.8782 -0.0475
18489TIP3    H176958   1.447   0.064  16.822 -0.4315 -2.5098  1.0655
18489TIP3    H276959   1.323   0.103  16.744  0.9228 -1.1058 -0.4466
18490TIP3   OH276960   1.733   2.954  12.765  0.1700  0.6028  0.3180
18490TIP3    H176961   1.816   2.921  12.730  1.0480 -1.1452  3.6100
18490TIP3    H276962   1.667   2.899  12.723  1.0791 -0.8689  0.7178
18491TIP3   OH276963   0.433   6.111  15.244  0.2558  0.3102 -0.6250
18491TIP3    H176964   0.465   6.102  15.154  1.6233  0.0699 -0.1275
18491TIP3    H276965   0.442   6.023  15.282 -1.1276  0.2007 -0.4947
18492TIP3   OH276966   4.705   2.547  15.917  0.5239  0.3638  0.0949
18492TIP3    H176967   4.774   2.587  15.969  2.7044 -1.5275 -1.1666
18492TIP3    H276968   4.730   2.564  15.826 -1.0999  0.2793 -0.3995
18493TIP3   OH276969   4.454   6.208   3.982 -0.5601  0.8678  0.4308
18493TIP3    H176970   4.446   6.161   4.065  2.1065 -0.4561  0.0433
18493TIP3    H276971   4.384   6.172   3.928  1.0998 -2.5796  0.2873
18494TIP3   OH276972   5.958   3.474  11.563 -0.1147 -0.6087  0.1871
18494TIP3    H176973   5.991   3.563  11.569 -1.3160 -0.0400 -1.2210
18494TIP3    H276974   6.019   3.423  11.617  2.1188  0.6282 -1.0251
18495TIP3   OH276975   0.819   5.448   1.212  0.0832 -0.0934 -0.4187
18495TIP3    H176976   0.799   5.365   1.255  0.9568  0.6480  1.4980
18495TIP3    H276977   0.905   5.435   1.173 -0.1092 -0.3142 -0.7792
18496TIP3   OH276978   0.123   5.349   4.740  0.3167 -0.7947 -0.1862
18496TIP3    H176979   0.034   5.383   4.752  0.7509 -0.1276  1.3345
18496TIP3    H276980   0.166   5.414   4.684  0.4579 -0.0217  0.8082
18497TIP3   OH276981   6.608   4.315   4.041  0.8863  0.2194  0.4038
18497TIP3    H176982   6.575   4.370   3.970 -0.7944  0.0828  1.0307
18497TIP3    H276983   6.701   4.302   4.020  0.3850 -0.1018 -1.9498
18498TIP3   OH276984   6.138   2.501  13.412 -0.5114  0.1921  0.4352
18498TIP3    H176985   6.077   2.574  13.410 -0.0113  0.7572  2.6039
18498TIP3    H276986   6.212   2.533  13.465 -0.3167 -1.8745  1.5213
18499TIP3   OH276987   2.216   1.352   4.447 -0.1825 -0.0696  0.1388
18499TIP3    H176988   2.194   1.357   4.540 -1.0675  2.8233 -0.1331
18499TIP3    H276989   2.132   1.342   4.403  0.0563  0.4630 -0.4399
18500TIP3   OH276990   4.943   1.948   1.768  0.3906 -0.1622  0.1149
18500TIP3    H176991   4.852   1.975   1.774  0.8574  1.1254  2.3137
18500TIP3    H276992   4.984   2.013   1.711  0.1883 -0.1028  0.0347
18501TIP3   OH276993   5.971   3.662  13.397 -0.4719 -0.1004  0.2843
18501TIP3    H176994   5.922   3.729  13.445 -1.5940  0.1757 -1.1907
18501TIP3    H276995   6.024   3.711  13.334 -0.4008 -0.5554 -0.0151
18502TIP3   OH276996   0.535   0.477  15.777 -1.3429 -0.9049 -0.1068
18502TIP3    H176997   0.581   0.402  15.815  0.9354 -0.1479 -1.1528
18502TIP3    H276998   0.537   0.544  15.845  1.7445  0.0695 -0.9715
18503TIP3   OH276999   4.332   6.454  12.034  0.2173 -0.5238 -0.0823
18503TIP3    H177000   4.248   6.410  12.043  0.7963 -1.4251  1.1116
18503TIP3    H277001   4.310   6.545  12.012 -1.0448 -0.7982  0.0155
18504TIP3   OH277002   1.163   4.984  15.919 -0.3420  0.0925  0.9448
18504TIP3    H177003   1.096   4.937  15.869  0.1188 -0.3188  0.7058
18504TIP3    H277004   1.142   4.966  16.010 -0.1548 -0.6201  0.8553
18505TIP3   OH277005   5.964   4.223  12.768 -0.1443 -0.1042  0.2588
18505TIP3    H177006   5.894   4.211  12.704 -0.9786 -1.2246  1.3236
18505TIP3    H277007   5.924   4.273  12.839  0.2601 -0.3525  0.6719
18506TIP3   OH277008   1.363   0.676   2.035  0.1491 -1.0465  0.1803
18506TIP3    H177009   1.350   0.702   1.944  1.8589  3.4450  0.9707
18506TIP3    H277010   1.448   0.632   2.036  1.1661  0.8117 -0.1938
18507TIP3   OH277011   0.531   4.877  15.266 -0.3588 -0.1670  0.4827
18507TIP3    H177012   0.502   4.855  15.178  0.3906  2.2481 -0.4617
18507TIP3    H277013   0.625   4.860  15.266 -0.4509 -0.7268  1.0361
18508TIP3   OH277014   6.343   6.421   0.724  0.6007  0.0952  0.6129
18508TIP3    H177015   6.302   6.344   0.685  1.3696  1.3221 -3.0233
18508TIP3    H277016   6.411   6.385   0.781 -1.0879 -1.8647  1.5380
18509TIP3   OH277017   6.190   6.726  12.893  0.2973 -0.4595  0.1175
18509TIP3    H177018   6.232   6.736  12.807 -0.5686 -1.0692 -0.3912
18509TIP3    H277019   6.155   6.637  12.892  0.9080 -0.7332  1.4010
18510TIP3   OH277020   5.233   3.454  11.990  0.2958  0.1844  0.0667
18510TIP3    H177021   5.165   3.393  11.961  1.1158 -0.6722 -0.1150
18510TIP3    H277022   5.310   3.432  11.936  0.8029  0.9414  0.4596
18511TIP3   OH277023   0.375   5.319  14.043 -0.0329 -0.6995 -0.3080
18511TIP3    H177024   0.358   5.271  14.124 -0.0735 -1.6829 -0.8927
18511TIP3    H277025   0.290   5.351  14.015  0.2309  1.5684  1.1772
18512TIP3   OH277026   2.893   1.637   1.325  0.2433 -0.0788  0.2502
18512TIP3    H177027   2.815   1.584   1.341 -0.5593  0.3826 -1.7400
18512TIP3    H277028   2.887   1.661   1.232  2.0428  1.1375  0.3843
18513TIP3   OH277029   5.246   3.977   4.021 -0.1482 -0.2725  0.3217
18513TIP3    H177030   5.174   4.002   4.079  0.5127 -0.5574  1.2949
18513TIP3    H277031   5.303   3.922   4.076 -0.0240 -1.4076 -0.8895
18514TIP3   OH277032   0.383   0.999  13.528  0.0487  0.2481 -0.9388
18514TIP3    H177033   0.402   1.063  13.459 -1.6342  1.5272 -0.2807
18514TIP3    H277034   0.465   0.991  13.576  0.8336  0.4292 -2.1934
18515TIP3   OH277035   5.502   2.916   0.831  0.3877 -0.3209 -0.1287
18515TIP3    H177036   5.587   2.874   0.820  0.1402 -0.5682 -1.2233
18515TIP3    H277037   5.484   2.909   0.925 -0.2536 -3.8892 -0.3730
18516TIP3   OH277038   5.282   5.896   6.498 -0.2217 -0.2005 -0.3950
18516TIP3    H177039   5.352   5.850   6.452  0.2500 -0.3688  0.4729
18516TIP3    H277040   5.285   5.861   6.587 -0.3572  0.9540  0.0789
18517TIP3   OH277041   4.321   4.493  13.106  0.9529  0.2276  0.0576
18517TIP3    H177042   4.264   4.417  13.118 -1.3055  2.0603  1.9663
18517TIP3    H277043   4.400   4.457  13.067 -0.2951 -2.9667  0.1332
18518TIP3   OH277044   2.502   1.257   6.229 -0.0130 -0.7482  0.4608
18518TIP3    H177045   2.594   1.244   6.206  0.7564  1.3440  2.0035
18518TIP3    H277046   2.492   1.215   6.315  0.7113  2.3742  2.2475
18519TIP3   OH277047   1.354   5.598   3.892  0.5736 -0.1131 -0.6396
18519TIP3    H177048   1.369   5.563   3.804  0.0176 -0.5589 -0.5668
18519TIP3    H277049   1.329   5.689   3.878  0.7054 -0.1203 -0.9312
18520TIP3   OH277050   1.379   1.270  13.443  0.3282 -0.5570 -0.1211
18520TIP3    H177051   1.352   1.179  13.444 -0.6955 -0.2761 -0.8307
18520TIP3    H277052   1.433   1.281  13.521  0.1365 -1.6662  0.1696
18521TIP3   OH277053   6.695   2.101   1.480 -0.0405  0.4391  0.5624
18521TIP3    H177054   6.719   2.043   1.408 -0.4468 -0.9044  1.4723
18521TIP3    H277055   6.771   2.158   1.493  1.2307 -1.2942  1.0045
18522TIP3   OH277056   5.029   0.405   5.826 -0.1969 -0.3130  0.0682
18522TIP3    H177057   5.103   0.466   5.828  0.3590 -0.9919  2.2324
18522TIP3    H277058   5.065   0.325   5.787 -0.2838 -0.0622 -0.5352
18523TIP3   OH277059   5.398   1.624  15.406 -0.0461  0.0194  0.2144
18523TIP3    H177060   5.311   1.658  15.385 -0.1514 -0.1085  0.4257
18523TIP3    H277061   5.444   1.698  15.446  0.6287  0.6606 -1.6820
18524TIP3   OH277062   0.527   6.521   1.860 -0.2242  0.0232 -0.2404
18524TIP3    H177063   0.490   6.435   1.881  2.7816 -1.4604 -0.5199
18524TIP3    H277064   0.546   6.517   1.766  0.5716  0.7343 -0.1213
18525TIP3   OH277065   5.529   5.219   0.101 -0.0951 -0.0660 -0.4106
18525TIP3    H177066   5.625   5.212   0.101 -0.1791 -2.0855 -1.5700
18525TIP3    H277067   5.512   5.313   0.098  1.7487  0.5756  3.4552
18526TIP3   OH277068   1.024   1.783  15.684  0.0662 -0.3585  0.0880
18526TIP3    H177069   1.113   1.791  15.649  0.4481  1.6252  1.3955
18526TIP3    H277070   1.026   1.704  15.738  0.5992 -1.1320 -1.0248
18527TIP3   OH277071   2.189   3.758  14.721 -0.3799 -0.5169  0.4677
18527TIP3    H177072   2.232   3.789  14.641  0.7413 -0.3202  1.1261
18527TIP3    H277073   2.108   3.810  14.727 -0.5543 -0.6415 -0.6070
18528TIP3   OH277074   1.383   5.017   3.537  0.0329  0.1552  0.0330
18528TIP3    H177075   1.477   5.015   3.551 -0.0088 -0.6065  0.2518
18528TIP3    H277076   1.364   4.937   3.488 -0.2617  1.1830 -1.6291
18529TIP3   OH277077   6.719   3.256   1.337 -0.1750 -0.6854  0.2671
18529TIP3    H177078   6.723   3.316   1.262  0.3912 -0.5174  0.4278
18529TIP3    H277079   6.792   3.283   1.393 -2.1463  0.9932  2.2256
18530TIP3   OH277080   3.215   5.147   1.694 -0.1997  0.1180 -0.1999
18530TIP3    H177081   3.204   5.112   1.606  3.0448 -0.2171 -0.5959
18530TIP3    H277082   3.293   5.104   1.728 -0.5256  1.3023  2.3191
18531TIP3   OH277083   3.990   6.692  11.238 -0.0271  0.5542 -0.4925
18531TIP3    H177084   4.047   6.754  11.193 -0.2000  0.1458 -1.2789
18531TIP3    H277085   4.025   6.688  11.327 -0.4817  2.3829 -0.1932
18532TIP3   OH277086   1.093   5.536   3.639 -1.0714 -0.3798 -0.3808
18532TIP3    H177087   1.110   5.447   3.671  0.1121  0.0496  0.2175
18532TIP3    H277088   1.029   5.572   3.700 -0.5925 -0.3802  0.1224
18533TIP3   OH277089   1.696   4.251   1.708  0.1034  0.5266  0.2227
18533TIP3    H177090   1.636   4.178   1.692 -0.3583  0.1143  3.2221
18533TIP3    H277091   1.759   4.246   1.637 -2.8410  0.4831 -2.6491
18534TIP3   OH277092   0.567   0.606  17.106  0.2526 -0.0232 -0.0079
18534TIP3    H177093   0.513   0.596  17.027 -0.4444  0.0200  0.4464
18534TIP3    H277094   0.607   0.693  17.097  0.9589 -0.4148 -0.7700
18535TIP3   OH277095   4.445   6.385  11.222 -0.0322  0.6267 -0.5446
18535TIP3    H177096   4.381   6.457  11.213 -1.8188 -0.6613  1.0644
18535TIP3    H277097   4.514   6.421  11.277 -0.3967  1.4378 -0.6005
18536TIP3   OH277098   6.240   0.129  16.399  0.0710  0.3182  0.0997
18536TIP3    H177099   6.212   0.172  16.480  1.1690 -1.2159  1.3577
18536TIP3    H277100   6.250   0.037  16.423  1.9204  0.0622 -1.3753
18537TIP3   OH277101   6.188   3.336   3.007  0.4490  0.3728 -0.1927
18537TIP3    H177102   6.212   3.243   3.004  0.8010  0.4658 -0.1842
18537TIP3    H277103   6.271   3.383   3.009  0.3672  0.7903 -2.7344
18538TIP3   OH277104   2.542   1.657   0.185  0.3032  0.3087  0.0921
18538TIP3    H177105   2.611   1.681   0.247  0.4791  1.0169 -0.3613
18538TIP3    H277106   2.581   1.673   0.099 -0.3807  0.6113 -0.1695
18539TIP3   OH277107   4.472   6.579   3.240 -0.5857 -0.3440 -0.4443
18539TIP3    H177108   4.396   6.583   3.183  0.1633  1.9163 -1.4094
18539TIP3    H277109   4.469   6.660   3.290  0.7598 -0.5792  0.0698
18540TIP3   OH277110   4.518   6.382   5.974  0.6475 -0.7582  0.3908
18540TIP3    H177111   4.567   6.463   5.989  2.0765 -1.1306 -1.8503
18540TIP3    H277112   4.479   6.362   6.059  2.6046  0.7431  1.7413
18541TIP3   OH277113   2.397   3.462   3.992 -0.5658 -0.2409  0.1905
18541TIP3    H177114   2.448   3.505   3.924  0.3437  0.2158  1.1357
18541TIP3    H277115   2.311   3.506   3.988 -0.0768  0.7602  0.2528
18542TIP3   OH277116   4.577   4.334  14.600  0.1435  0.5947 -0.2685
18542TIP3    H177117   4.657   4.295  14.635 -0.6284 -0.1254  0.7341
18542TIP3    H277118   4.519   4.345  14.675 -0.2143  2.3807 -0.7556
18543TIP3   OH277119   2.042   3.116   3.091  0.0752  0.1053 -0.3958
18543TIP3    H177120   2.033   3.100   3.184  1.2225 -1.8476 -0.5768
18543TIP3    H277121   1.983   3.054   3.049 -2.0233  2.3335 -1.0095
18544TIP3   OH277122   1.318   4.141  12.271 -0.3335 -0.0311  0.3394
18544TIP3    H177123   1.325   4.140  12.175  1.2931  1.2886  0.4108
18544TIP3    H277124   1.390   4.085  12.301 -0.0989  0.5198  0.8152
18545TIP3   OH277125   2.240   1.719   1.223 -0.4765 -0.0420 -0.1699
18545TIP3    H177126   2.207   1.663   1.153 -1.6464  1.7438 -1.1074
18545TIP3    H277127   2.162   1.740   1.275 -0.2142  1.3424 -0.3122
18546TIP3   OH277128   5.895   3.454   3.204 -0.0386  0.0264 -0.0376
18546TIP3    H177129   5.932   3.370   3.233 -0.8931 -0.4862 -0.3928
18546TIP3    H277130   5.908   3.454   3.110 -0.5796  0.0124 -0.1166
18547TIP3   OH277131   1.052   2.569   5.616  0.4624  0.3058  0.3402
18547TIP3    H177132   1.136   2.614   5.623  0.6792 -0.2800  2.7669
18547TIP3    H277133   1.072   2.488   5.568  0.6687  1.3980 -1.4836
18548TIP3   OH277134   1.935   0.612  17.012 -0.5067 -0.0043 -0.5707
18548TIP3    H177135   2.000   0.632  17.080  0.4784 -0.9601 -1.1912
18548TIP3    H277136   1.951   0.675  16.943 -0.6926  0.1910 -0.4358
18549TIP3   OH277137   2.345   5.841  17.125 -0.0358  0.6221 -0.1312
18549TIP3    H177138   2.286   5.766  17.132  0.4411  0.1372 -1.1044
18549TIP3    H277139   2.433   5.803  17.125  0.2413  1.2434  0.0571
18550TIP3   OH277140   5.991   1.176  14.131  1.0741  0.3148  0.1474
18550TIP3    H177141   5.936   1.165  14.053  1.1388  0.3082  0.1025
18550TIP3    H277142   6.031   1.262  14.119  0.3993  0.6980  0.6055
18551TIP3   OH277143   2.637   2.344   2.726  0.0632  0.0739 -0.0518
18551TIP3    H177144   2.639   2.439   2.721 -0.5690  0.2337  1.8429
18551TIP3    H277145   2.561   2.318   2.673 -0.0242  0.6500 -0.2120
18552TIP3   OH277146   5.329   3.952   6.014 -0.4512 -0.2145 -0.2022
18552TIP3    H177147   5.265   3.922   6.078  0.0078 -0.3089  0.2170
18552TIP3    H277148   5.326   4.047   6.020  1.2122 -0.2237  1.6170
18553TIP3   OH277149   6.737   4.813  11.542 -0.0273 -0.4599 -0.8229
18553TIP3    H177150   6.801   4.743  11.557  0.6468 -0.0100 -1.5538
18553TIP3    H277151   6.684   4.782  11.469 -2.1879 -1.8673  1.1952
18554TIP3   OH277152   3.812   3.173  14.150  0.1279  0.2992 -0.2960
18554TIP3    H177153   3.859   3.107  14.098 -1.8882  0.2966 -2.2858
18554TIP3    H277154   3.775   3.233  14.085 -0.2597  1.9149  1.3314
18555TIP3   OH277155   4.323   0.941  12.355  0.2947  0.4374  0.3253
18555TIP3    H177156   4.387   0.977  12.417  0.2841  0.4042  0.3562
18555TIP3    H277157   4.373   0.920  12.277  0.6404 -1.0970  0.9107
18556TIP3   OH277158   5.425   5.855  15.371 -0.2013 -0.2841  0.2010
18556TIP3    H177159   5.503   5.905  15.345  0.0578 -0.0761  1.2918
18556TIP3    H277160   5.442   5.766  15.341  0.7149 -0.3575  0.8940
18557TIP3   OH277161   5.935   3.993  12.021 -0.2134  0.4770 -0.3325
18557TIP3    H177162   5.901   3.903  12.025  1.4039 -0.1305  1.0060
18557TIP3    H277163   5.913   4.031  12.105 -1.5268  1.6222 -1.1626
18558TIP3   OH277164   1.510   0.104   6.007  0.0667  0.2597 -0.5613
18558TIP3    H177165   1.460   0.144   6.078  0.1962 -0.0621 -0.2827
18558TIP3    H277166   1.584   0.163   5.994 -0.6861  1.0533 -1.3807
18559TIP3   OH277167   4.791   5.801  14.167 -0.0614 -0.3011  0.0956
18559TIP3    H177168   4.868   5.822  14.219  1.2050 -2.5708 -0.7343
18559TIP3    H277169   4.721   5.792  14.231  0.2031  2.1919  0.8263
18560TIP3   OH277170   0.657   0.619  15.562  0.7843  0.5244  0.1260
18560TIP3    H177171   0.735   0.670  15.585  1.5715  0.5334 -2.2208
18560TIP3    H277172   0.618   0.595  15.646  3.9734 -0.5220  1.4676
18561TIP3   OH277173   3.320   5.419  13.479 -0.0216  0.3654  0.2015
18561TIP3    H177174   3.367   5.496  13.448  0.4568  0.4946  1.1927
18561TIP3    H277175   3.375   5.385  13.550 -1.8763  1.0919  2.0754
18562TIP3   OH277176   4.018   1.671   5.203  0.1482  0.0657  0.4189
18562TIP3    H177177   3.984   1.619   5.275  0.1001 -2.0720 -1.0580
18562TIP3    H277178   3.966   1.645   5.127  1.4037  0.8691 -0.7759
18563TIP3   OH277179   0.215   6.718   1.127 -0.0201  0.2590 -0.1558
18563TIP3    H177180   0.164   6.672   1.194 -0.0134 -1.1478 -1.0613
18563TIP3    H277181   0.152   6.733   1.056  0.2800  0.5543 -0.3591
18564TIP3   OH277182   1.799   1.166   1.721 -0.1895 -0.6413  0.2620
18564TIP3    H177183   1.720   1.168   1.668  1.8181  0.6003 -2.9649
18564TIP3    H277184   1.842   1.083   1.699 -0.8488 -1.7094  2.6179
18565TIP3   OH277185   4.214   0.694   5.086 -0.6108 -0.3023 -0.0235
18565TIP3    H177186   4.153   0.680   5.158  0.9189  1.1493  1.6459
18565TIP3    H277187   4.281   0.626   5.098  0.4708  0.8872  0.9155
18566TIP3   OH277188   4.135   2.804  13.798  0.0588  0.3812 -0.0798
18566TIP3    H177189   4.068   2.757  13.848  0.0621 -0.6428 -0.9973
18566TIP3    H277190   4.154   2.881  13.850 -2.5165  1.2120 -0.2299
18567TIP3   OH277191   5.610   3.782   2.691  0.1416  0.4416  0.1268
18567TIP3    H177192   5.568   3.744   2.768  0.1740  0.8157  0.3318
18567TIP3    H277193   5.627   3.873   2.716  0.8254  0.3645 -0.0544
18568TIP3   OH277194   5.194   6.843   0.389  0.6707 -0.2901 -0.2166
18568TIP3    H177195   5.122   6.782   0.373  1.1218 -0.9186  0.0788
18568TIP3    H277196   5.272   6.795   0.362  1.2312 -0.5490  1.6990
18569TIP3   OH277197   6.197   1.989   0.627 -0.1384  0.0958  0.5438
18569TIP3    H177198   6.202   1.978   0.722 -0.5638 -2.0379  0.3786
18569TIP3    H277199   6.149   2.071   0.615  2.2871  1.8571  2.1119
18570TIP3   OH277200   4.424   3.083   1.162  0.8674  0.2549 -0.2333
18570TIP3    H177201   4.520   3.084   1.166  0.8375  1.2959  1.1273
18570TIP3    H277202   4.401   3.158   1.109  0.8019 -0.2421 -0.9178
18571TIP3   OH277203   1.569   2.274  10.309  0.0389  0.8070 -0.0382
18571TIP3    H177204   1.500   2.216  10.276  0.7819  0.1424 -0.4484
18571TIP3    H277205   1.604   2.316  10.231  1.5995 -0.5413 -0.1047
18572TIP3   OH277206   0.842   4.632   4.329 -0.1346 -0.0093 -0.1037
18572TIP3    H177207   0.818   4.539   4.326  0.8894 -0.3016  0.6108
18572TIP3    H277208   0.911   4.641   4.264  1.3839 -0.2580  1.3924
18573TIP3   OH277209   6.549   2.319   1.060 -0.0264 -0.3879  0.1994
18573TIP3    H177210   6.531   2.374   1.137  1.5887 -0.2286  0.5120
18573TIP3    H277211   6.641   2.294   1.071  0.3674 -0.0182 -1.8885
18574TIP3   OH277212   3.065   6.707  14.104  0.0488  0.0954 -0.3379
18574TIP3    H177213   2.984   6.715  14.054 -0.2378  2.6762  0.3579
18574TIP3    H277214   3.126   6.765  14.059  0.7603  0.0172  0.5022
18575TIP3   OH277215   0.287   3.220   3.685 -0.2771 -0.3701 -0.3266
18575TIP3    H177216   0.251   3.132   3.691 -0.4724 -0.3436 -1.0245
18575TIP3    H277217   0.234   3.272   3.745  1.3082 -1.1690  1.8973
18576TIP3   OH277218   1.225   4.542  11.555  0.0420  0.1298  0.0147
18576TIP3    H177219   1.227   4.616  11.616  1.2198 -0.4139  0.6645
18576TIP3    H277220   1.147   4.558  11.501  1.1174  2.7084 -0.9588
18577TIP3   OH277221   6.560   1.739   3.832 -0.8070  0.6965  0.3109
18577TIP3    H177222   6.540   1.800   3.762 -0.0923 -1.6252 -2.0596
18577TIP3    H277223   6.477   1.729   3.879 -1.3946  2.0191 -0.3914
18578TIP3   OH277224   3.484   3.643  12.752  0.0228 -0.1748 -0.0826
18578TIP3    H177225   3.524   3.674  12.671  1.1441  0.5503  0.7166
18578TIP3    H277226   3.483   3.548  12.744  0.0528 -0.1008 -0.9830
18579TIP3   OH277227   2.251   1.680   1.540  0.2854  0.0962  0.0200
18579TIP3    H177228   2.189   1.733   1.491 -0.2371 -0.3901  0.1479
18579TIP3    H277229   2.204   1.656   1.620  0.5679 -0.4275  0.0353
18580TIP3   OH277230   4.026   3.414  16.066  0.0368  0.7816 -0.2705
18580TIP3    H177231   4.114   3.439  16.091  0.9391  0.0458 -2.4465
18580TIP3    H277232   3.971   3.439  16.140  2.2155  0.1821  1.6558
18581TIP3   OH277233   5.695   0.082   3.848  0.5116  0.0945  0.0179
18581TIP3    H177234   5.756   0.039   3.788  1.2502  0.0621  0.7759
18581TIP3    H277235   5.746   0.153   3.886  0.0577  0.0920  0.6388
18582TIP3   OH277236   0.086   2.175   1.904 -0.5205 -0.1188 -0.0218
18582TIP3    H177237   0.111   2.246   1.963  0.5297 -0.4275 -0.0774
18582TIP3    H277238   0.161   2.115   1.906  0.2489  0.5989 -2.8350
18583TIP3   OH277239   3.808   4.308   5.432  0.2314  0.0149 -0.1146
18583TIP3    H177240   3.814   4.340   5.522 -0.9511  1.4764 -0.5060
18583TIP3    H277241   3.741   4.239   5.436  0.5715 -0.3048  0.2009
18584TIP3   OH277242   1.915   5.288  16.643 -0.3060  0.2297  0.2742
18584TIP3    H177243   1.916   5.344  16.721 -0.1944  0.5483  0.0481
18584TIP3    H277244   1.938   5.347  16.571 -1.4792  0.1767 -0.1635
18585TIP3   OH277245   5.489   3.462   0.024  0.2453 -0.3713 -0.1295
18585TIP3    H177246   5.405   3.450  -0.021  0.9055 -3.8667 -0.7750
18585TIP3    H277247   5.483   3.405   0.101  1.5610  0.3726  0.5658
18586TIP3   OH277248   2.896   1.177  15.292 -0.7732 -0.2823 -0.8716
18586TIP3    H177249   2.904   1.272  15.286 -1.9740  0.0974  2.0894
18586TIP3    H277250   2.985   1.145  15.304 -0.4196  0.4754 -1.4241
18587TIP3   OH277251   3.421   3.537   3.683 -0.2606 -0.1261  0.4455
18587TIP3    H177252   3.413   3.445   3.656 -0.1551 -0.0732  0.2297
18587TIP3    H277253   3.373   3.542   3.766 -0.6042 -0.2885  0.2605
18588TIP3   OH277254   1.492   0.133  10.986 -0.1340  0.4541  0.0730
18588TIP3    H177255   1.496   0.118  10.892 -2.5935 -2.5636  0.2878
18588TIP3    H277256   1.569   0.087  11.021 -1.4078 -2.1001 -0.2562
18589TIP3   OH277257   2.591   0.331  16.259  0.7718  0.8231  0.3162
18589TIP3    H177258   2.509   0.371  16.231 -0.8808 -2.7212 -0.4263
18589TIP3    H277259   2.579   0.314  16.352  1.0055  0.9972  0.3809
18590TIP3   OH277260   3.639   1.686  15.790 -0.0157 -1.3455 -0.2003
18590TIP3    H177261   3.689   1.754  15.744 -1.7007  0.1689  0.0833
18590TIP3    H277262   3.599   1.635  15.720 -1.4965  0.1292 -0.4953
18591TIP3   OH277263   3.290   2.878   2.715 -0.2095 -0.6213 -0.6024
18591TIP3    H177264   3.310   2.935   2.790 -0.7804  2.3155 -2.4877
18591TIP3    H277265   3.220   2.822   2.746  1.4957 -1.5626  1.8866
18592TIP3   OH277266   1.552   4.277   4.978 -0.0580 -0.5141 -0.3321
18592TIP3    H177267   1.596   4.203   4.937 -0.0390 -0.2368 -0.8321
18592TIP3    H277268   1.594   4.286   5.064 -0.6268 -1.5793  0.0651
18593TIP3   OH277269   0.028   1.464   0.377 -0.6311 -0.4178  0.3457
18593TIP3    H177270   0.086   1.402   0.332 -1.0448 -0.7758  0.3024
18593TIP3    H277271  -0.012   1.515   0.307  0.3191  0.4598  0.4162
18594TIP3   OH277272   2.576   5.714  13.404  0.1997  0.2741  0.1266
18594TIP3    H177273   2.604   5.743  13.317 -1.1520  0.9218 -0.1157
18594TIP3    H277274   2.575   5.793  13.457 -2.1508  0.5144 -0.1690
18595TIP3   OH277275   6.385   5.674  14.742  0.7659 -0.6003  0.2963
18595TIP3    H177276   6.419   5.589  14.715  0.8242 -0.7535  0.8302
18595TIP3    H277277   6.302   5.682  14.695  0.6483 -1.0597  0.4157
18596TIP3   OH277278   1.281   2.640  11.996 -0.2365 -0.5191 -0.5315
18596TIP3    H177279   1.187   2.626  11.983 -0.2802 -0.5406 -0.1887
18596TIP3    H277280   1.290   2.735  11.997 -0.1290 -0.5074 -1.4592
18597TIP3   OH277281   2.924   5.232  16.557  0.2213  0.0537  0.2622
18597TIP3    H177282   2.980   5.175  16.505  0.4836 -0.9703  1.6206
18597TIP3    H277283   2.933   5.318  16.517  0.6185 -0.6511 -1.2001
18598TIP3   OH277284   6.691   0.340   5.378 -0.2512  0.2452 -0.2215
18598TIP3    H177285   6.682   0.400   5.304 -0.5438 -0.7366 -1.0128
18598TIP3    H277286   6.640   0.263   5.352  1.1394 -0.8538  0.2003
18599TIP3   OH277287   2.216   1.598  16.014 -0.2771 -0.5910  0.3153
18599TIP3    H177288   2.194   1.550  15.934  0.6330 -1.1221  0.3651
18599TIP3    H277289   2.208   1.533  16.084  1.6379 -0.9049  0.3031
18600TIP3   OH277290   4.077   0.445  14.190  0.0234 -0.1860  0.2678
18600TIP3    H177291   4.067   0.415  14.100  0.9604 -1.0276  0.4233
18600TIP3    H277292   3.994   0.486  14.212 -1.2333 -2.4068 -0.0704
18601TIP3   OH277293   2.383   5.459   4.605 -0.0506 -0.3433 -0.2617
18601TIP3    H177294   2.401   5.522   4.675  0.5451 -1.8451  0.9801
18601TIP3    H277295   2.349   5.513   4.533 -0.1288  1.3126  0.9554
18602TIP3   OH277296   4.525   5.276  16.345 -0.4040 -0.4285  0.2533
18602TIP3    H177297   4.545   5.273  16.251 -0.4520 -0.2205  0.2362
18602TIP3    H277298   4.559   5.193  16.380  0.7050  0.0161  0.2690
18603TIP3   OH277299   4.446   5.685   0.007  0.1447  0.3018  0.5435
18603TIP3    H177300   4.525   5.739  -0.002  0.5333 -0.3432 -0.0797
18603TIP3    H277301   4.399   5.724   0.080  0.9918  0.7595  0.8682
18604TIP3   OH277302   4.210   2.221  16.136  0.3808 -0.2600  0.2047
18604TIP3    H177303   4.297   2.232  16.098  0.2613 -0.5452 -0.1565
18604TIP3    H277304   4.209   2.131  16.169  0.0062 -0.4776 -0.3738
18605TIP3   OH277305   2.110   1.199  11.851 -0.2840 -0.1348  0.2218
18605TIP3    H177306   2.078   1.289  11.860 -0.5244 -0.1274 -0.6205
18605TIP3    H277307   2.192   1.209  11.802 -0.7383 -0.4358 -0.6210
18606TIP3   OH277308   5.864   6.149   4.431  0.3180  0.4676  0.1229
18606TIP3    H177309   5.789   6.105   4.471  0.5856  0.2408  0.3825
18606TIP3    H277310   5.831   6.184   4.348 -0.5403  1.9061  1.0405
18607TIP3   OH277311   6.182   2.188  10.553  0.1548  0.0060 -0.4192
18607TIP3    H177312   6.094   2.150  10.553 -0.3730  1.1207 -2.2706
18607TIP3    H277313   6.237   2.122  10.511 -0.0634 -0.1126 -0.5205
18608TIP3   OH277314   5.831   3.615   1.697 -0.4999 -0.0728  0.5047
18608TIP3    H177315   5.838   3.629   1.792 -1.1072  0.0654  0.5332
18608TIP3    H277316   5.830   3.703   1.660  0.1757 -0.1370  0.3354
18609TIP3   OH277317   4.747   1.058   6.077 -0.0275  0.1152 -0.2467
18609TIP3    H177318   4.712   1.130   6.026 -0.9550 -0.3181 -0.2494
18609TIP3    H277319   4.745   0.983   6.018  0.0496 -0.1200  0.0425
18610TIP3   OH277320   4.931   6.752   2.616 -0.7934  0.0132 -0.3477
18610TIP3    H177321   4.997   6.821   2.606  0.5806 -1.1068  0.6516
18610TIP3    H277322   4.895   6.766   2.703 -0.5796 -0.4404 -0.1797
18611TIP3   OH277323   3.719   0.633   4.721  0.1096  0.4990 -0.0983
18611TIP3    H177324   3.809   0.618   4.751 -0.8541 -1.4057  2.1429
18611TIP3    H277325   3.676   0.675   4.795 -0.7366  1.9565 -1.3771
18612TIP3   OH277326   4.962   0.849  12.832 -0.0226 -0.3595 -0.1356
18612TIP3    H177327   5.016   0.869  12.756 -0.7275  3.2663  0.1308
18612TIP3    H277328   5.017   0.868  12.907 -0.7190  0.5368  0.1692
18613TIP3   OH277329   1.831   5.729   5.097 -0.1048 -0.7849 -0.5197
18613TIP3    H177330   1.757   5.787   5.077  0.6892 -0.0950 -1.5962
18613TIP3    H277331   1.794   5.660   5.152 -1.3713 -0.0113 -0.3697
18614TIP3   OH277332   5.558   1.229   1.450  0.2444 -0.2996 -0.6303
18614TIP3    H177333   5.652   1.240   1.464  0.2409 -0.9945  0.0594
18614TIP3    H277334   5.531   1.307   1.403  1.4447 -0.7811 -2.2180
18615TIP3   OH277335   2.890   6.096  10.936 -0.0641  0.0044  0.2291
18615TIP3    H177336   2.856   6.143  10.861  0.8784  2.8254  1.4304
18615TIP3    H277337   2.929   6.016  10.900 -2.7924 -0.5663 -1.7623
18616TIP3   OH277338   3.447   6.388   4.444  0.0761 -0.0632 -0.0932
18616TIP3    H177339   3.408   6.312   4.488 -1.7137  0.6613 -0.3456
18616TIP3    H277340   3.478   6.354   4.361  0.7162 -0.8300  0.4461
18617TIP3   OH277341   5.676   0.933  11.234 -0.0375 -0.5116  0.1063
18617TIP3    H177342   5.719   0.882  11.166  1.0900  0.6001 -0.0669
18617TIP3    H277343   5.748   0.976  11.280 -0.8943  0.2607  0.7622
18618TIP3   OH277344   6.184   3.616   0.841 -0.2678  0.3498 -0.2062
18618TIP3    H177345   6.122   3.601   0.769 -0.9202 -0.0745  0.4355
18618TIP3    H277346   6.133   3.664   0.907  0.6672  1.8949 -0.5354
18619TIP3   OH277347   6.774   1.242  14.608  0.4049  0.4181  0.1374
18619TIP3    H177348   6.692   1.290  14.622 -0.3275 -1.0690  1.1878
18619TIP3    H277349   6.802   1.216  14.695  1.8684  0.6272 -0.2331
18620TIP3   OH277350   4.415   0.235   3.228 -0.5853  0.0410  0.1999
18620TIP3    H177351   4.501   0.230   3.188  0.8127  1.0074  2.8461
18620TIP3    H277352   4.406   0.326   3.255 -2.1174 -0.2229  0.6758
18621TIP3   OH277353   2.290   3.259   5.231 -0.1123  0.1957  0.2422
18621TIP3    H177354   2.223   3.264   5.300 -0.7979  1.1234 -0.4632
18621TIP3    H277355   2.370   3.233   5.276 -0.6002  0.5703  1.3476
18622TIP3   OH277356   5.240   6.284   2.913 -0.3964  0.2793  0.0767
18622TIP3    H177357   5.230   6.285   2.817  0.5250 -0.3940 -0.0405
18622TIP3    H277358   5.261   6.374   2.936 -1.1792  0.5609 -0.2900
18623TIP3   OH277359   1.585   5.055  15.183  0.0552 -0.8646 -0.3442
18623TIP3    H177360   1.559   5.058  15.275 -0.0311  1.8801 -0.3840
18623TIP3    H277361   1.523   5.112  15.138  0.3421 -1.8359 -2.0577
18624TIP3   OH277362   4.860   6.025  15.335 -0.6306  0.2043 -0.4359
18624TIP3    H177363   4.799   5.982  15.276 -0.3092 -0.2251 -0.4608
18624TIP3    H277364   4.814   6.029  15.419 -1.2162  1.1082 -0.7760
18625TIP3   OH277365   5.431   5.044   2.255  0.2253  0.1977  0.0341
18625TIP3    H177366   5.433   5.037   2.350 -0.4306  0.0997  0.0430
18625TIP3    H277367   5.410   5.136   2.238  1.7653  0.5744 -0.0400
18626TIP3   OH277368   2.556   6.850  14.717 -0.3943  0.6387  0.4929
18626TIP3    H177369   2.604   6.865  14.798  0.6843  1.9069 -0.3399
18626TIP3    H277370   2.622   6.815  14.656 -1.7070 -2.8021  0.8302
18627TIP3   OH277371   6.031   1.240   3.199 -0.0907 -0.3338  0.2538
18627TIP3    H177372   5.995   1.151   3.194  0.2521 -0.5343  1.1545
18627TIP3    H277373   5.976   1.291   3.141 -0.0868 -1.2039 -0.5516
18628TIP3   OH277374   2.675   3.414  14.161  0.2831 -0.5613  0.2130
18628TIP3    H177375   2.599   3.440  14.213 -2.4976 -2.4812 -2.5342
18628TIP3    H277376   2.710   3.337  14.205  0.2155 -0.1037  1.0937
18629TIP3   OH277377   5.552   5.606  16.541  0.2040  0.4985  0.6164
18629TIP3    H177378   5.466   5.647  16.557 -0.4044 -1.1190  1.8425
18629TIP3    H277379   5.531   5.517  16.512  1.4861  0.5316 -0.5075
18630TIP3   OH277380   0.977   6.706  12.667  0.1091 -0.3213  0.2371
18630TIP3    H177381   0.984   6.793  12.629 -0.6881  0.2923  1.4513
18630TIP3    H277382   0.900   6.667  12.625  0.8421 -0.7184 -0.7873
18631TIP3   OH277383   2.647   5.348  13.820 -0.1012  0.2011 -0.6099
18631TIP3    H177384   2.590   5.286  13.774 -0.3016 -0.1134  0.0543
18631TIP3    H277385   2.623   5.338  13.912 -0.1957  1.3314 -0.5077
18632TIP3   OH277386   0.983   6.714   3.721 -0.0590 -0.3585  0.2539
18632TIP3    H177387   1.060   6.657   3.725  0.1387 -0.0803  0.3985
18632TIP3    H277388   0.980   6.744   3.630  0.0943 -0.2463  0.2848
18633TIP3   OH277389   3.674   0.354   0.638  0.6134  0.1593  0.5475
18633TIP3    H177390   3.745   0.298   0.670  0.3949 -0.3101  0.2166
18633TIP3    H277391   3.622   0.297   0.582  0.1803  0.6006  0.4972
18634TIP3   OH277392   5.121   1.530   4.367 -0.1578  0.3255  0.0405
18634TIP3    H177393   5.100   1.588   4.440 -1.8628  0.1812 -0.3076
18634TIP3    H277394   5.050   1.543   4.304  0.6831 -0.3959 -1.0902
18635TIP3   OH277395   0.715   4.911   0.748  0.2944  0.0223 -0.0251
18635TIP3    H177396   0.665   4.974   0.800 -0.4416 -1.5162  1.2254
18635TIP3    H277397   0.804   4.917   0.783  0.6096  1.5040 -1.0351
18636TIP3   OH277398   0.860   2.713  15.248 -0.4112 -0.0903 -0.1693
18636TIP3    H177399   0.886   2.792  15.202  2.0672 -0.2936  0.7495
18636TIP3    H277400   0.783   2.681  15.200 -0.2513  1.7659 -1.7552
18637TIP3   OH277401   4.346   4.551   0.777 -0.4584  0.1582  0.0545
18637TIP3    H177402   4.400   4.484   0.819 -1.0949 -0.3421  0.0905
18637TIP3    H277403   4.331   4.616   0.845 -0.6948 -0.1787  0.3260
18638TIP3   OH277404   1.751   2.549  13.977 -0.4008  0.2767  0.6428
18638TIP3    H177405   1.669   2.520  13.937 -1.2859 -0.4560  2.8340
18638TIP3    H277406   1.739   2.643  13.992  0.1936  0.7015 -1.2609
18639TIP3   OH277407   2.241   1.826  13.456  0.3259  0.2601  0.5085
18639TIP3    H177408   2.216   1.769  13.383  0.5043  2.2703 -1.2244
18639TIP3    H277409   2.172   1.893  13.458 -0.1736 -0.2549  2.8310
18640TIP3   OH277410   4.735   3.994  16.689 -0.1187 -0.4534 -0.2810
18640TIP3    H177411   4.783   4.041  16.757 -1.8680  0.4122  0.4293
18640TIP3    H277412   4.739   3.902  16.716  1.1781 -0.4151 -0.2954
18641TIP3   OH277413   6.221   3.961   5.015  0.1278 -0.2105 -0.5963
18641TIP3    H177414   6.161   3.921   5.077 -0.9647  0.1849 -1.3584
18641TIP3    H277415   6.194   4.053   5.011  1.5977  0.2742 -0.0258
18642TIP3   OH277416   1.832   3.495  15.846  0.7517  0.4786 -0.4787
18642TIP3    H177417   1.769   3.545  15.793 -0.0780 -0.0699 -0.0366
18642TIP3    H277418   1.896   3.463  15.783 -1.4118 -2.0386 -1.6132
18643TIP3   OH277419   0.509   2.626   2.197 -0.8658 -0.4471 -0.2115
18643TIP3    H177420   0.523   2.699   2.137  1.8487 -1.2075 -0.6511
18643TIP3    H277421   0.464   2.560   2.144 -0.6162 -0.2253 -0.7064
18644TIP3   OH277422   2.096   4.735   1.419  0.0249 -0.1665  0.3855
18644TIP3    H177423   2.138   4.680   1.352 -0.3328 -0.1404  0.1365
18644TIP3    H277424   2.003   4.718   1.409 -0.2566  1.7700 -0.8771
18645TIP3   OH277425   5.918   2.901  15.932 -0.2962 -1.0523 -0.5412
18645TIP3    H177426   6.000   2.905  15.883 -0.4412  0.7060 -0.7097
18645TIP3    H277427   5.854   2.946  15.877 -0.7492 -0.1133  0.7026
18646TIP3   OH277428   6.246   3.566   0.137 -0.1597 -0.3134  0.3438
18646TIP3    H177429   6.250   3.603   0.225  0.7785 -1.4615  0.8239
18646TIP3    H277430   6.337   3.542   0.117 -0.4640 -0.6901 -0.6487
18647TIP3   OH277431   1.162   2.600  14.856 -0.4231 -0.2788 -0.2131
18647TIP3    H177432   1.085   2.639  14.898 -0.3817 -2.5057  2.1702
18647TIP3    H277433   1.232   2.612  14.919  0.8695  0.3168 -1.6904
18648TIP3   OH277434   0.936   1.798  11.149  0.3199 -0.1088  0.2961
18648TIP3    H177435   0.901   1.776  11.063 -2.5280  1.3845  0.9285
18648TIP3    H277436   0.951   1.892  11.146  2.5925 -0.4135  0.7055
18649TIP3   OH277437   4.245   0.877  14.061 -0.3453 -0.2384 -0.3647
18649TIP3    H177438   4.283   0.916  14.139 -3.1579 -1.3470  1.7314
18649TIP3    H277439   4.265   0.784  14.069  0.0496 -0.2630 -1.4492
18650TIP3   OH277440   1.728   0.265  13.131 -0.1707  0.0770  0.7259
18650TIP3    H177441   1.763   0.236  13.046  3.3019 -2.3466  2.7470
18650TIP3    H277442   1.691   0.187  13.171 -0.4418  0.8464  2.0433
18651TIP3   OH277443   4.181   0.022  13.743 -0.2934  0.3007 -0.5249
18651TIP3    H177444   4.268   0.062  13.738 -0.7298  1.4871  0.7769
18651TIP3    H277445   4.197  -0.072  13.732  1.2316  0.4272  0.3215
18652TIP3   OH277446   6.852   4.938   1.340 -0.5808 -0.0980 -0.3038
18652TIP3    H177447   6.890   4.880   1.274  1.3521  1.0102 -0.2473
18652TIP3    H277448   6.803   4.880   1.398 -1.6429 -1.2053 -2.1916
18653TIP3   OH277449   2.019   4.907  11.323 -0.4597 -0.5276  0.1238
18653TIP3    H177450   2.054   4.981  11.372  1.3984 -2.7712  2.4528
18653TIP3    H277451   1.927   4.929  11.308 -0.4344  1.4355  2.3529
18654TIP3   OH277452   3.078   1.805   5.150  0.2827 -0.2938  0.4452
18654TIP3    H177453   3.060   1.883   5.099 -1.3694  0.1110  1.5797
18654TIP3    H277454   3.049   1.732   5.095 -0.5619  0.0708  0.3991
18655TIP3   OH277455   4.490   2.274   6.592 -0.1845  0.0295 -0.0416
18655TIP3    H177456   4.402   2.241   6.576 -0.1373  0.2137 -0.7228
18655TIP3    H277457   4.520   2.227   6.669 -0.3418 -1.0764 -0.6430
18656TIP3   OH277458   1.569   5.018   3.973 -0.1396 -0.2292 -0.8367
18656TIP3    H177459   1.593   5.108   3.997 -0.2333  0.0332 -1.6850
18656TIP3    H277460   1.640   4.964   4.006 -0.6435  0.0098  0.7283
18657TIP3   OH277461   3.741   4.610  16.116  0.5808 -0.2135  0.0738
18657TIP3    H177462   3.703   4.583  16.200  0.6137  1.5574  0.7016
18657TIP3    H277463   3.780   4.695  16.134 -0.5927  0.8461 -2.0643
18658TIP3   OH277464   0.718   2.239   6.326 -0.3646  0.0231 -0.1027
18658TIP3    H177465   0.788   2.178   6.303  0.2012 -0.0760  1.7432
18658TIP3    H277466   0.637   2.189   6.311  0.0585 -0.8242  0.3779
18659TIP3   OH277467   3.923   4.533   3.319 -0.5326  0.3553 -1.0804
18659TIP3    H177468   4.017   4.550   3.306 -0.6087  0.7572 -1.1247
18659TIP3    H277469   3.880   4.601   3.267 -0.8476  0.6450 -0.4514
18660TIP3   OH277470   4.113   4.839   3.285 -0.6177 -0.2321  0.0321
18660TIP3    H177471   4.052   4.804   3.221  0.5605 -0.5425 -0.9544
18660TIP3    H277472   4.197   4.800   3.263  0.6035  2.4733 -0.5875
18661TIP3   OH277473   5.500   2.348   0.778 -0.2103 -0.0268 -0.0381
18661TIP3    H177474   5.566   2.287   0.812  0.8555  1.6886  1.0908
18661TIP3    H277475   5.484   2.409   0.850 -2.8695 -0.2074 -0.3704
18662TIP3   OH277476   0.354   0.133   1.512  0.7326 -0.2925  0.4107
18662TIP3    H177477   0.296   0.107   1.442  1.3859  1.4176 -0.8458
18662TIP3    H277478   0.413   0.059   1.524  0.9651 -0.4049 -1.2550
18663TIP3   OH277479   4.527   3.456   4.140  0.1511 -0.6777  0.3558
18663TIP3    H177480   4.558   3.366   4.149 -2.0707 -1.4918  0.6450
18663TIP3    H277481   4.477   3.472   4.220 -0.8049  0.2309 -0.3910
18664TIP3   OH277482   2.963   2.754  17.026  0.3061  0.0315 -0.4867
18664TIP3    H177483   2.929   2.665  17.016  0.5650 -0.2297  0.7517
18664TIP3    H277484   2.975   2.786  16.936 -0.0178 -1.0894 -0.9437
18665TIP3   OH277485   0.514   6.133  10.690 -0.0300 -0.2351 -0.1616
18665TIP3    H177486   0.558   6.164  10.769  0.5139 -2.7335  0.5919
18665TIP3    H277487   0.421   6.131  10.713 -0.0131  0.2602 -0.0417
18666TIP3   OH277488   4.784   3.687   5.803 -0.0929 -0.3061 -0.2945
18666TIP3    H177489   4.826   3.601   5.807  0.3019 -0.1105 -0.1675
18666TIP3    H277490   4.853   3.749   5.830  0.0248  0.1809 -1.6216
18667TIP3   OH277491   5.921   2.838   3.746 -0.0949 -0.0396  0.0773
18667TIP3    H177492   5.910   2.795   3.831 -4.8995 -0.4909 -0.5368
18667TIP3    H277493   5.976   2.778   3.696  1.1756 -0.7245  2.1447
18668TIP3   OH277494   5.829   5.422   0.227  0.3019  0.4237  0.8080
18668TIP3    H177495   5.761   5.436   0.293 -0.3141 -1.0925  0.5305
18668TIP3    H277496   5.782   5.420   0.143  0.5901 -1.0570  0.6498
18669TIP3   OH277497   1.127   5.499  12.267 -0.4456 -0.4472 -0.6252
18669TIP3    H177498   1.126   5.409  12.234  0.8945 -0.7263  0.0383
18669TIP3    H277499   1.205   5.538  12.227  0.1216 -0.2081  0.6665
18670TIP3   OH277500   0.901   5.034  12.906  0.3516  0.0464  0.3565
18670TIP3    H177501   0.890   5.083  12.824  0.0903  0.6562  0.7460
18670TIP3    H277502   0.996   5.031  12.919  0.3831  0.1664  0.1651
18671TIP3   OH277503   0.310   5.325   0.155 -0.1733  0.1625  0.6712
18671TIP3    H177504   0.385   5.369   0.114 -0.5499 -0.2561 -0.5030
18671TIP3    H277505   0.241   5.330   0.089 -1.1332  0.3698  1.6630
18672TIP3   OH277506   1.269   1.546   0.283 -0.5705  0.2210 -0.1007
18672TIP3    H177507   1.273   1.510   0.195  2.1383 -2.0681  0.8176
18672TIP3    H277508   1.359   1.574   0.302 -0.6675 -0.8631  2.4458
18673TIP3   OH277509   1.747   6.830  12.848 -0.0634 -0.2460 -0.1856
18673TIP3    H177510   1.669   6.811  12.900 -0.5940 -1.4684 -1.3667
18673TIP3    H277511   1.816   6.776  12.887  0.7430  2.1165  1.9688
18674TIP3   OH277512   6.726   3.745  10.989 -0.0637 -0.6513 -0.5861
18674TIP3    H177513   6.783   3.759  11.065  2.6310 -1.0574 -2.3786
18674TIP3    H277514   6.669   3.821  10.988  2.0741  1.0884  0.0292
18675TIP3   OH277515   4.650   4.216  16.364 -0.4382 -0.7559  0.2813
18675TIP3    H177516   4.566   4.244  16.399 -0.7134 -1.3617  0.1135
18675TIP3    H277517   4.711   4.285  16.389 -0.9006 -0.5237  0.7753
18676TIP3   OH277518   6.618   5.672  10.995 -0.3619 -0.1941 -0.3102
18676TIP3    H177519   6.636   5.760  11.026  3.2293 -0.3680 -1.4460
18676TIP3    H277520   6.641   5.674  10.902  0.4821 -2.4286 -0.2288
18677TIP3   OH277521   4.514   5.444  14.574  0.1004 -0.6252 -0.1182
18677TIP3    H177522   4.579   5.488  14.519  0.5467 -0.8754  0.2024
18677TIP3    H277523   4.565   5.381  14.625 -0.3886 -0.7839  0.1761
18678TIP3   OH277524   6.183   0.176  16.664  0.1074  0.2977  0.2968
18678TIP3    H177525   6.269   0.148  16.694  1.3713  2.0406 -1.4568
18678TIP3    H277526   6.163   0.254  16.715 -0.2100  0.1745  0.3626
18679TIP3   OH277527   2.960   4.615   0.757 -0.4766 -0.2093 -0.3140
18679TIP3    H177528   3.006   4.591   0.677  1.8554 -0.6535  1.0729
18679TIP3    H277529   2.946   4.709   0.749 -0.1701 -0.2247 -1.1608
18680TIP3   OH277530   6.030   5.812  16.369  0.0811  0.3476  0.4055
18680TIP3    H177531   5.955   5.768  16.408  1.3939 -0.5779  2.0181
18680TIP3    H277532   6.029   5.900  16.407 -0.5565  0.5764 -0.1189
18681TIP3   OH277533   3.914   5.628  13.889 -0.1323 -0.3719  0.3086
18681TIP3    H177534   3.897   5.716  13.855 -2.1149 -1.6650 -2.3987
18681TIP3    H277535   3.911   5.638  13.985 -1.5971  2.2788  0.0674
18682TIP3   OH277536   0.816   2.335   3.646 -0.0608 -0.1675  0.9738
18682TIP3    H177537   0.773   2.271   3.702 -1.0643 -1.2207 -0.9199
18682TIP3    H277538   0.881   2.376   3.704  0.8244 -3.0320  2.2328
18683TIP3   OH277539   1.094   0.958  15.583  0.8960 -0.2333 -0.6537
18683TIP3    H177540   1.187   0.937  15.593  1.1123  1.1347  0.3588
18683TIP3    H277541   1.071   1.006  15.662 -0.8100 -0.9449 -0.6759
18684TIP3   OH277542   1.067   2.539   0.290 -0.0798  0.1392 -0.4578
18684TIP3    H177543   1.061   2.604   0.220 -1.6228 -2.0838 -2.6043
18684TIP3    H277544   0.991   2.556   0.346 -0.6632  0.0634 -1.1968
18685TIP3   OH277545   4.180   3.074   2.778 -0.3542 -0.4246  0.0035
18685TIP3    H177546   4.109   3.134   2.757  0.4634  0.6133  0.1253
18685TIP3    H277547   4.220   3.054   2.693  0.2433  0.3327  0.0937
18686TIP3   OH277548   0.304   2.260   0.652  0.0663  0.0090  0.2918
18686TIP3    H177549   0.272   2.351   0.653  2.4954  0.9385 -0.4935
18686TIP3    H277550   0.251   2.218   0.584 -1.6840  0.5521  1.2474
18687TIP3   OH277551   4.808   1.796   2.493 -0.4696  0.3705  0.7610
18687TIP3    H177552   4.828   1.876   2.542  1.7439  0.7654 -0.6229
18687TIP3    H277553   4.863   1.802   2.415 -0.4427 -2.3672  0.4704
18688TIP3   OH277554   0.100   2.015  14.430  0.2465  0.5071 -0.2097
18688TIP3    H177555   0.089   2.110  14.439  3.3710  1.2280 -2.3972
18688TIP3    H277556   0.070   1.996  14.341  2.8346  0.1403 -1.0673
18689TIP3   OH277557   2.952   1.858   3.820  0.2111  0.3901  0.1543
18689TIP3    H177558   2.864   1.890   3.842 -0.2822 -0.4883 -0.4310
18689TIP3    H277559   3.011   1.912   3.871 -0.5661  2.2690 -0.8599
18690TIP3   OH277560   2.269   5.765   4.990 -0.4269 -1.1738  0.3364
18690TIP3    H177561   2.264   5.846   4.940 -1.6585 -1.6320 -0.3365
18690TIP3    H277562   2.194   5.714   4.960 -0.9054 -1.6843  2.2979
18691TIP3   OH277563   5.631   5.910   0.918 -0.1537 -0.8058  0.3919
18691TIP3    H177564   5.536   5.904   0.914 -0.4339  0.9153  2.6127
18691TIP3    H277565   5.651   6.001   0.898  0.8251 -0.6631  1.8691
18692TIP3   OH277566   2.930   4.780  11.213  0.3226  0.2156 -0.4916
18692TIP3    H177567   3.001   4.770  11.276 -0.8002  0.4309  0.8636
18692TIP3    H277568   2.862   4.827  11.261 -0.8663 -0.2604 -1.6383
18693TIP3   OH277569   5.752   4.731   3.092  0.2658 -0.6636 -0.6105
18693TIP3    H177570   5.719   4.814   3.126  2.4617  1.0055 -2.2563
18693TIP3    H277571   5.845   4.731   3.113  0.3440 -2.6781 -0.7710
18694TIP3   OH277572   6.565   0.510  15.766 -0.1986  0.2257 -0.0077
18694TIP3    H177573   6.534   0.596  15.796  0.0864  0.1401  0.5381
18694TIP3    H277574   6.610   0.529  15.683 -1.6400  0.3584 -0.7971
18695TIP3   OH277575   3.344   4.710  14.913  0.3516 -0.1697  0.4644
18695TIP3    H177576   3.309   4.715  14.824  0.3456  0.8235  0.5115
18695TIP3    H277577   3.437   4.732  14.903  0.1221  1.0482  0.8276
18696TIP3   OH277578   1.585   5.328  17.031  0.2922 -0.0300 -0.1418
18696TIP3    H177579   1.615   5.327  17.121  0.4789 -0.3911 -0.2074
18696TIP3    H277580   1.575   5.236  17.007 -0.7449  0.0755 -0.1601
18697TIP3   OH277581   5.928   2.879   0.659 -0.0451  0.1611 -0.3618
18697TIP3    H177582   5.863   2.813   0.635  1.6506 -0.6878 -2.9545
18697TIP3    H277583   5.890   2.962   0.629 -0.2681 -0.2278 -1.1833
18698TIP3   OH277584   3.005   4.103  11.302 -0.0542  0.1650  0.1148
18698TIP3    H177585   3.008   4.022  11.251 -0.2527  0.7242 -0.7979
18698TIP3    H277586   2.922   4.098  11.350 -1.3960  1.0298 -1.9970
18699TIP3   OH277587   2.617   0.718  15.334  0.3371  0.3211 -0.6133
18699TIP3    H177588   2.619   0.665  15.254 -1.6016  0.9630 -1.1596
18699TIP3    H277589   2.676   0.673  15.395  0.7908 -0.9546 -1.9352
18700TIP3   OH277590   6.830   5.497  14.473  0.5954 -0.1726  0.0169
18700TIP3    H177591   6.809   5.405  14.458 -0.5617 -0.2138  1.5959
18700TIP3    H277592   6.917   5.509  14.434  0.0892 -1.5009 -1.6433
18701TIP3   OH277593   1.291   1.672   4.118 -0.5807  0.3803  0.4470
18701TIP3    H177594   1.252   1.590   4.148  1.3350 -0.8283 -0.1662
18701TIP3    H277595   1.325   1.714   4.197  1.1196 -0.9529  0.4765
18702TIP3   OH277596   4.060   0.592   3.177 -0.2485 -0.0211  0.4587
18702TIP3    H177597   3.976   0.584   3.132 -0.3998  2.3114  0.1912
18702TIP3    H277598   4.125   0.566   3.113 -0.6755 -0.1332  0.0695
18703TIP3   OH277599   3.494   5.108   4.874  0.3880  0.1874 -0.1986
18703TIP3    H177600   3.459   5.171   4.937 -1.3017 -1.4493  0.5804
18703TIP3    H277601   3.423   5.047   4.859  1.7601 -1.1827 -1.4244
18704TIP3   OH277602   2.018   3.702   3.699  0.3697 -0.2937 -0.2675
18704TIP3    H177603   2.002   3.651   3.778  1.5276 -1.3704 -0.6982
18704TIP3    H277604   2.103   3.743   3.714 -0.1896  0.9139 -0.2599
18705TIP3   OH277605   0.203   4.442  12.558  0.5381 -0.1907 -0.4914
18705TIP3    H177606   0.227   4.485  12.476  0.4077  0.3249 -0.2637
18705TIP3    H277607   0.237   4.352  12.549 -0.6263 -0.5416 -1.6470
18706TIP3   OH277608   3.953   1.268   6.163  0.2248  0.5491  0.8722
18706TIP3    H177609   3.889   1.305   6.224 -0.2040 -1.3914  1.6616
18706TIP3    H277610   4.032   1.254   6.216  0.8532  1.5616  0.2473
18707TIP3   OH277611   5.611   6.733   6.069 -0.4897  0.6819 -0.1875
18707TIP3    H177612   5.545   6.773   6.012  0.1453 -0.7880 -2.0468
18707TIP3    H277613   5.587   6.763   6.157 -1.7089  2.7773 -1.1433
18708TIP3   OH277614   4.060   5.349   4.309  0.1450 -0.0860 -0.0558
18708TIP3    H177615   4.148   5.384   4.291 -0.0131  0.4152  0.1336
18708TIP3    H277616   4.074   5.284   4.378  0.4849 -0.6270 -0.6240
18709TIP3   OH277617   3.703   6.471   3.438  0.1869  0.2201  0.0697
18709TIP3    H177618   3.653   6.539   3.392  0.8667  0.2749 -0.6209
18709TIP3    H277619   3.745   6.517   3.510 -0.6138  0.2062  0.5567
18710TIP3   OH277620   6.106   2.441  15.996 -0.1180  0.2290  0.2112
18710TIP3    H177621   6.194   2.473  15.974 -0.7034  0.9302 -1.2634
18710TIP3    H277622   6.054   2.460  15.918 -1.3888 -0.9574  0.7412
18711TIP3   OH277623   6.517   0.798  14.702 -0.3966 -0.2846 -0.0252
18711TIP3    H177624   6.561   0.725  14.746  0.5282  0.2456 -0.0298
18711TIP3    H277625   6.574   0.818  14.627 -0.4911  0.5989  0.1264
18712TIP3   OH277626   6.471   1.088   0.857  0.0772 -0.1770 -0.3134
18712TIP3    H177627   6.455   1.044   0.941 -0.2792  0.3333 -0.1124
18712TIP3    H277628   6.466   1.018   0.792 -3.0952 -0.0847 -0.3057
18713TIP3   OH277629   0.840   6.203  12.151  0.8127  0.1332  0.1329
18713TIP3    H177630   0.831   6.158  12.066  1.0864 -0.9875  0.6853
18713TIP3    H277631   0.786   6.282  12.141 -0.2038 -0.6223 -0.6499
18714TIP3   OH277632   1.594   3.126   2.041  0.0758  0.6667 -0.3475
18714TIP3    H177633   1.604   3.035   2.012  2.1598  0.3773  1.0946
18714TIP3    H277634   1.499   3.142   2.035 -0.1446 -0.9455 -2.3981
18715TIP3   OH277635   0.158   4.580  15.158  0.1209 -0.0559  0.3889
18715TIP3    H177636   0.165   4.636  15.236  0.9107  0.8095 -0.2734
18715TIP3    H277637   0.193   4.496  15.186  2.4777  0.8627  0.4118
18716TIP3   OH277638   5.610   6.602  12.293  0.8115  0.2719 -0.9029
18716TIP3    H177639   5.649   6.612  12.380  0.4956  0.7334 -0.8068
18716TIP3    H277640   5.682   6.575  12.237  0.5542 -2.5707 -0.0206
18717TIP3   OH277641   6.725   5.757   3.009  0.0618  0.0285 -0.1639
18717TIP3    H177642   6.773   5.804   3.078  0.3458  0.0241 -0.3564
18717TIP3    H277643   6.789   5.746   2.939 -0.3087  0.2748 -0.5381
18718TIP3   OH277644   3.264   6.653   1.487 -0.5626 -0.5668 -0.1803
18718TIP3    H177645   3.208   6.646   1.409 -0.2892 -0.0666 -0.4278
18718TIP3    H277646   3.333   6.589   1.472  0.2562  0.4753 -1.0117
18719TIP3   OH277647   3.156   5.648  14.064  0.1802  0.4416 -0.1743
18719TIP3    H177648   3.240   5.628  14.023 -0.4509 -0.0333 -1.2821
18719TIP3    H277649   3.177   5.714  14.130  0.9287  2.9786 -2.7776
18720TIP3   OH277650   5.405   0.548  14.769 -0.0504 -0.4411  0.5975
18720TIP3    H177651   5.439   0.462  14.746 -0.3041 -0.7250  1.2525
18720TIP3    H277652   5.451   0.571  14.850  1.2227  0.7631 -0.4114
18721TIP3   OH277653   4.840   1.153  12.380  0.0163  0.1988 -0.0036
18721TIP3    H177654   4.838   1.058  12.371  1.8885  0.0357  0.9509
18721TIP3    H277655   4.794   1.170  12.463  0.1453  0.0925  0.0892
18722TIP3   OH277656   5.314   1.694  11.025  0.2020  0.0406  0.1249
18722TIP3    H177657   5.301   1.709  11.119  1.6688 -3.9437  1.1644
18722TIP3    H277658   5.408   1.709  11.011  0.1240 -0.0834 -0.5679
18723TIP3   OH277659   1.485   1.157  15.056 -0.1081 -0.8325 -0.3920
18723TIP3    H177660   1.518   1.228  15.111  0.6881 -2.0326  0.7408
18723TIP3    H277661   1.560   1.101  15.041 -0.5034 -0.9675 -2.0857
18724TIP3   OH277662   2.296   2.351  12.073 -0.1351 -0.1090 -0.0052
18724TIP3    H177663   2.358   2.283  12.101  1.3629  0.8251 -0.8921
18724TIP3    H277664   2.210   2.317  12.098  0.6566 -1.8116  0.5749
18725TIP3   OH277665   4.175   1.963  16.218 -0.1960 -0.8260  0.7281
18725TIP3    H177666   4.182   1.884  16.271  0.2742 -1.3196 -0.0527
18725TIP3    H277667   4.191   1.934  16.129 -0.2794  0.1087  0.3959
18726TIP3   OH277668   5.628   1.978   3.061  0.4167  0.4911 -0.3676
18726TIP3    H177669   5.607   1.938   2.976  0.4303  2.0213 -1.1231
18726TIP3    H277670   5.548   2.023   3.087 -0.8376 -2.8586  2.2501
18727TIP3   OH277671   4.533   0.370  15.419  1.0470  0.7551 -0.4792
18727TIP3    H177672   4.591   0.373  15.495  0.8948  1.9317 -0.3949
18727TIP3    H277673   4.581   0.318  15.355  1.3380  0.0617  0.2819
18728TIP3   OH277674   0.983   2.225   2.276 -0.1141  0.3754 -0.3311
18728TIP3    H177675   1.020   2.302   2.320 -2.1870  0.7905  0.8656
18728TIP3    H277676   0.890   2.228   2.299 -0.5184 -1.6868 -1.4895
18729TIP3   OH277677   0.015   1.352   3.427  0.4422 -0.6323  0.0623
18729TIP3    H177678   0.031   1.263   3.397  1.2170 -0.9232  1.2623
18729TIP3    H277679   0.014   1.405   3.347 -0.2791 -1.7351 -0.6819
18730TIP3   OH277680   4.581   3.030   5.175  0.7218 -0.0381  0.5573
18730TIP3    H177681   4.543   2.952   5.135 -1.1750  1.8578 -1.6681
18730TIP3    H277682   4.591   3.008   5.268 -0.7252 -2.5225  0.2071
18731TIP3   OH277683   2.403   3.673  12.046  0.1880 -0.0331 -0.0606
18731TIP3    H177684   2.358   3.592  12.022  1.2723 -0.6778 -0.0287
18731TIP3    H277685   2.337   3.741  12.037 -0.5948 -0.8409 -0.6647
18732TIP3   OH277686   4.303   6.123  15.723  0.3233 -0.0527  0.4708
18732TIP3    H177687   4.223   6.115  15.775  0.2825  0.7415  0.5419
18732TIP3    H277688   4.309   6.217  15.702  0.1423 -0.4036 -1.2590
18733TIP3   OH277689   4.197   0.247  14.388 -0.1978 -0.4829 -0.4121
18733TIP3    H177690   4.157   0.294  14.315  0.3415 -0.5199 -0.7397
18733TIP3    H277691   4.125   0.200  14.430 -0.4133 -0.9540 -1.2973
18734TIP3   OH277692   3.705   4.978   4.142  0.1894  0.0108 -0.6185
18734TIP3    H177693   3.733   4.991   4.051 -0.9238  1.2239 -0.8120
18734TIP3    H277694   3.665   4.891   4.142 -2.8501  1.2691 -2.1411
18735TIP3   OH277695   3.700   5.060  14.958  0.3882  0.0332  0.5237
18735TIP3    H177696   3.767   5.078  14.892 -0.4379 -1.2862 -0.7125
18735TIP3    H277697   3.647   4.990  14.921 -0.2400 -0.6090  2.5070
18736TIP3   OH277698   4.904   3.621   1.821  0.0101  0.3351  0.8152
18736TIP3    H177699   4.811   3.629   1.841  0.2363  1.9043  1.3528
18736TIP3    H277700   4.933   3.710   1.803  2.3310  0.6496  4.9857
18737TIP3   OH277701   1.512   6.838   5.752 -0.3090  0.1084 -0.3166
18737TIP3    H177702   1.576   6.769   5.767 -0.8096 -0.2334  0.2343
18737TIP3    H277703   1.533   6.905   5.817 -0.2035  0.2197 -0.4622
18738TIP3   OH277704   0.668   6.450  14.985  0.4642  0.0995 -0.1551
18738TIP3    H177705   0.598   6.384  14.986  1.0941 -0.6142 -0.9672
18738TIP3    H277706   0.623   6.533  15.001 -0.5185 -0.3850 -0.2984
18739TIP3   OH277707   5.124   0.931  13.344 -0.0353  0.0645 -0.4692
18739TIP3    H177708   5.122   0.853  13.399  0.0192  0.2541 -0.1909
18739TIP3    H277709   5.177   0.994  13.395 -0.8281  0.5883 -0.2733
18740TIP3   OH277710   1.452   2.351   3.482 -0.0997 -0.0070  0.3124
18740TIP3    H177711   1.461   2.289   3.554 -0.3705  0.9766  1.2142
18740TIP3    H277712   1.531   2.404   3.485  1.1330 -1.5830 -1.7617
18741TIP3   OH277713   5.402   3.169  12.955 -0.3790  0.5005  0.0144
18741TIP3    H177714   5.480   3.114  12.958  0.1771  1.2791  0.2949
18741TIP3    H277715   5.332   3.110  12.927  0.2081 -0.3234  0.2320
18742TIP3   OH277716   4.528   1.523  16.608 -0.2523 -0.3790 -0.4801
18742TIP3    H177717   4.437   1.496  16.598 -0.1182 -1.8027  1.5657
18742TIP3    H277718   4.577   1.441  16.614  0.8299  0.3359  1.0658
18743TIP3   OH277719   0.663   0.934   4.782  0.2241  0.1818  0.1143
18743TIP3    H177720   0.699   0.847   4.767  0.1295  0.2368 -0.4580
18743TIP3    H277721   0.586   0.938   4.726  1.3060  1.3152 -1.3692
18744TIP3   OH277722   5.540   2.630  11.634  0.5719 -0.6745  0.5033
18744TIP3    H177723   5.493   2.710  11.611  0.1245 -0.8875  0.6705
18744TIP3    H277724   5.528   2.572  11.559  1.5264 -0.3200  0.0577
18745TIP3   OH277725   2.164   4.546   0.209 -0.6005  0.1888 -0.3265
18745TIP3    H177726   2.133   4.547   0.299 -1.3656 -0.3444 -0.5648
18745TIP3    H277727   2.227   4.475   0.206  0.7225  1.3055  0.1733
18746TIP3   OH277728   0.290   2.617  11.680  0.1657 -0.0852  0.2135
18746TIP3    H177729   0.370   2.625  11.731  0.1507  0.6584  0.1289
18746TIP3    H277730   0.319   2.606  11.589  0.1701  0.7076  0.1148
18747TIP3   OH277731   1.937   3.777   3.005 -0.1741 -0.5371  0.2012
18747TIP3    H177732   1.897   3.864   2.995 -0.2603 -0.3827  1.5954
18747TIP3    H277733   2.016   3.794   3.057  0.5500 -1.1301 -0.6750
18748TIP3   OH277734   1.920   4.160  10.731 -0.1302  0.1243  0.0824
18748TIP3    H177735   1.922   4.135  10.639  1.1328 -0.5978  0.2696
18748TIP3    H277736   1.997   4.216  10.742  0.4332 -0.7944  0.9403
18749TIP3   OH277737   1.524   5.809  16.109 -0.0767  0.5346  0.4906
18749TIP3    H177738   1.602   5.863  16.121  0.4709 -0.2820  0.7119
18749TIP3    H277739   1.520   5.755  16.188  0.3218 -0.8829 -0.4173
18750TIP3   OH277740   5.519   1.153   6.469  0.3953  0.4791  0.4096
18750TIP3    H177741   5.591   1.093   6.450  0.4641  0.0488  1.8724
18750TIP3    H277742   5.557   1.217   6.530 -0.1927  0.8355  0.4062
18751TIP3   OH277743   4.640   0.147   6.866 -0.1443  0.4212  0.0348
18751TIP3    H177744   4.664   0.064   6.907 -1.1771  0.0980  0.0085
18751TIP3    H277745   4.706   0.209   6.897  0.7630 -0.4461 -0.1128
18752TIP3   OH277746   2.399   1.041  15.835  0.0175 -0.3007 -0.0296
18752TIP3    H177747   2.323   0.995  15.800 -0.4213  0.3573  0.0539
18752TIP3    H277748   2.458   0.971  15.864 -0.1404 -0.8264 -0.9604
18753TIP3   OH277749   3.571   0.455   5.975  0.0738 -0.2110 -0.1443
18753TIP3    H177750   3.490   0.464   6.025  0.3763 -0.3666  0.3703
18753TIP3    H277751   3.640   0.446   6.040  0.4567 -0.5430 -0.5866
18754TIP3   OH277752   2.699   0.507  12.325  0.0918 -0.2815 -0.2543
18754TIP3    H177753   2.699   0.476  12.416  0.8928 -1.4396 -0.6302
18754TIP3    H277754   2.607   0.519  12.304 -0.0842  0.8545  0.9775
18755TIP3   OH277755   3.534   3.705  14.309 -0.1900 -0.2268 -0.0745
18755TIP3    H177756   3.529   3.790  14.266  1.2357 -0.0836  0.0063
18755TIP3    H277757   3.447   3.668  14.298 -0.3753  0.5685 -1.4802
18756TIP3   OH277758   3.725   1.131   2.954  0.8195  0.5076 -0.1898
18756TIP3    H177759   3.694   1.214   2.920  3.0618  1.6569  0.3735
18756TIP3    H277760   3.725   1.073   2.878  1.1530  1.6194 -1.0649
18757TIP3   OH277761   0.732   0.260   5.251 -0.4913  0.7334 -0.2369
18757TIP3    H177762   0.778   0.343   5.240  0.6938  0.0304 -0.7324
18757TIP3    H277763   0.671   0.257   5.177  1.1962  0.0826 -1.6835
18758TIP3   OH277764   5.574   6.335  14.053 -0.3513  0.0113 -0.0412
18758TIP3    H177765   5.607   6.357  13.966 -0.2754 -0.3646 -0.1068
18758TIP3    H277766   5.499   6.277  14.037 -1.8476  1.8147  0.0524
18759TIP3   OH277767   1.131   2.247  13.712  0.3134 -0.0600 -0.4041
18759TIP3    H177768   1.186   2.301  13.769  1.0219 -0.1959 -0.9486
18759TIP3    H277769   1.150   2.157  13.739  1.6103 -0.1958 -1.6758
18760TIP3   OH277770   2.025   0.452   3.606  0.2549 -0.1389 -0.1235
18760TIP3    H177771   1.948   0.397   3.620  0.7681 -0.9790 -0.5365
18760TIP3    H277772   2.001   0.537   3.644 -0.6667 -0.5470  0.2341
18761TIP3   OH277773   3.628   2.889   4.112  0.6536 -0.5569 -0.1830
18761TIP3    H177774   3.631   2.944   4.190  2.6704  1.7967 -1.7664
18761TIP3    H277775   3.636   2.800   4.145 -0.0758  0.2113  2.3402
18762TIP3   OH277776   4.290   6.662   6.089  0.6972  0.0995 -0.4139
18762TIP3    H177777   4.371   6.706   6.062  1.6628 -1.7719 -0.7261
18762TIP3    H277778   4.252   6.631   6.007 -0.9967  1.9277 -0.3986
18763TIP3   OH277779   1.147   1.112   5.397  0.1910  0.0817  0.1604
18763TIP3    H177780   1.053   1.125   5.414 -0.2342 -1.4679 -0.7574
18763TIP3    H277781   1.155   1.116   5.302  1.3681  1.8371  0.2930
18764TIP3   OH277782   2.191   2.892  12.475 -0.2502  0.4571  0.8044
18764TIP3    H177783   2.274   2.920  12.515 -1.0672  1.1850  2.0541
18764TIP3    H277784   2.197   2.923  12.385  0.6234  0.9795  1.0249
18765TIP3   OH277785   2.537   5.320  14.665  0.5407  0.3433 -0.2539
18765TIP3    H177786   2.629   5.310  14.691 -0.0841 -0.5717  1.8358
18765TIP3    H277787   2.522   5.248  14.604  0.8852 -0.3395  0.4407
18766TIP3   OH277788   3.467   3.652   3.435  0.0304  0.2872 -0.1285
18766TIP3    H177789   3.515   3.735   3.424 -1.0808  1.2521  1.7912
18766TIP3    H277790   3.462   3.640   3.529 -0.5788 -1.5791 -0.3586
18767TIP3   OH277791   5.234   1.811   2.467  0.3609 -0.8464 -0.0152
18767TIP3    H177792   5.279   1.782   2.547  0.6635 -1.5210 -0.4239
18767TIP3    H277793   5.197   1.731   2.430 -0.0994 -0.4794 -0.3574
18768TIP3   OH277794   5.080   0.487   0.837 -0.0213  0.2766 -0.0751
18768TIP3    H177795   5.022   0.470   0.912  0.3931  1.6163  0.5820
18768TIP3    H277796   5.087   0.582   0.833 -0.1859  0.2448 -1.9661
18769TIP3   OH277797   3.528   3.002  11.780  0.5353  0.0208 -0.7432
18769TIP3    H177798   3.608   2.999  11.728  1.1557 -0.7981  0.2352
18769TIP3    H277799   3.548   2.953  11.859 -0.9996 -0.3907 -0.5690
18770TIP3   OH277800   5.671   4.270  14.108  0.3781 -1.1554 -0.1947
18770TIP3    H177801   5.595   4.212  14.101 -0.5705  0.0870 -0.5482
18770TIP3    H277802   5.717   4.240  14.187 -0.6573 -1.7300  0.2086
18771TIP3   OH277803   3.671   0.212  12.382 -0.0163 -0.6856 -0.0860
18771TIP3    H177804   3.693   0.306  12.383  1.3099 -0.9647  0.9708
18771TIP3    H277805   3.580   0.208  12.411 -0.5921  0.3553 -1.6164
18772TIP3   OH277806   1.475   2.038   4.297  0.3515  0.4207  0.2992
18772TIP3    H177807   1.445   2.116   4.344  0.1641  0.8608 -0.5434
18772TIP3    H277808   1.421   1.967   4.332  0.6849  0.6119  1.2425
18773TIP3   OH277809   1.518   1.494   4.222 -0.0056 -0.4076 -0.1834
18773TIP3    H177810   1.527   1.537   4.307 -0.7488 -2.1103  0.8094
18773TIP3    H277811   1.608   1.481   4.192  0.2618  0.2974  0.2971
18774TIP3   OH277812   3.891   1.620  14.036 -0.7116 -0.1042 -0.0936
18774TIP3    H177813   3.893   1.608  14.131 -1.1787  0.1096 -0.0515
18774TIP3    H277814   3.805   1.658  14.019 -1.0050 -1.0032 -0.7031
18775TIP3   OH277815   3.333   6.526  13.545  0.6407  0.3798  0.3647
18775TIP3    H177816   3.307   6.543  13.635  0.2559  0.0623  0.3187
18775TIP3    H277817   3.427   6.511  13.549  0.9949  2.4511  0.4063
18776TIP3   OH277818   3.172   2.546   4.097  0.1177 -0.4555  0.1740
18776TIP3    H177819   3.131   2.468   4.134 -0.4639 -0.3653 -0.2651
18776TIP3    H277820   3.194   2.521   4.007 -1.3281  0.3071 -0.4286
18777TIP3   OH277821   5.124   2.201   0.943 -0.6354  0.4903 -0.5245
18777TIP3    H177822   5.173   2.138   0.996 -1.3891 -0.3043 -0.7569
18777TIP3    H277823   5.181   2.278   0.939 -1.0293  1.0293  2.3897
18778TIP3   OH277824   2.584   2.154  12.658  0.4907  0.5602 -0.5262
18778TIP3    H177825   2.646   2.211  12.702 -0.7628  0.1719  1.9056
18778TIP3    H277826   2.502   2.203  12.658 -1.4153 -1.9414  4.1718
18779TIP3   OH277827   2.568   4.384   3.305 -0.1840  0.3372 -0.1252
18779TIP3    H177828   2.636   4.448   3.325  0.5724 -0.0474 -1.3027
18779TIP3    H277829   2.513   4.382   3.382  1.1906  0.6183  0.9075
18780TIP3   OH277830   6.037   0.429   5.706  0.3606  0.2025  0.3911
18780TIP3    H177831   6.096   0.502   5.717 -0.8725  1.0838  1.4861
18780TIP3    H277832   5.949   0.467   5.716 -0.3672 -1.1901 -0.3434
18781TIP3   OH277833   5.346   5.767  11.509 -0.1115  0.0563 -0.3358
18781TIP3    H177834   5.253   5.750  11.500 -0.2652  0.7964 -0.2203
18781TIP3    H277835   5.377   5.781  11.420 -0.4373  1.3717 -0.2707
18782TIP3   OH277836   5.706   1.681   5.777  0.0258 -0.0301 -0.0354
18782TIP3    H177837   5.798   1.655   5.766  0.0726  0.3873 -0.6576
18782TIP3    H277838   5.695   1.690   5.871  0.7052  0.2016  0.0264
18783TIP3   OH277839   3.128   3.575  13.406  0.4081 -0.6743 -0.4754
18783TIP3    H177840   3.115   3.516  13.480 -0.7355  0.6524  0.4276
18783TIP3    H277841   3.152   3.659  13.445 -0.0007  0.0062 -1.6090
18784TIP3   OH277842   0.538   6.044   4.966  0.1187 -0.3425 -0.0446
18784TIP3    H177843   0.483   6.103   4.914 -1.5304 -1.9843 -0.2749
18784TIP3    H277844   0.624   6.050   4.926 -0.3280  0.8751 -0.8979
18785TIP3   OH277845   1.569   0.493  16.753 -0.2361  0.5420  0.2897
18785TIP3    H177846   1.661   0.518  16.741  0.3242  0.3585  3.3799
18785TIP3    H277847   1.520   0.555  16.699  1.5681  2.5153  0.7836
18786TIP3   OH277848   1.526   2.091   0.649 -0.0177 -0.3811  0.1201
18786TIP3    H177849   1.555   2.030   0.581  1.3301  0.7733 -0.3786
18786TIP3    H277850   1.509   2.173   0.602 -0.7812 -0.0566  0.9359
18787TIP3   OH277851   5.301   4.851  12.757 -0.2603  0.1458  0.2997
18787TIP3    H177852   5.388   4.845  12.718  0.9052 -0.7873  2.7807
18787TIP3    H277853   5.241   4.826  12.687  1.4766  0.4461 -1.3846
18788TIP3   OH277854   4.314   1.191  15.037 -0.2244  0.6872  0.3964
18788TIP3    H177855   4.348   1.197  15.127 -0.5680  2.2558  0.4545
18788TIP3    H277856   4.286   1.280  15.016 -1.9826 -0.0452 -0.5665
18789TIP3   OH277857   3.744   1.175   4.668 -0.1074 -0.1089  0.3820
18789TIP3    H177858   3.828   1.214   4.694 -0.9111  2.1946 -0.2573
18789TIP3    H277859   3.768   1.097   4.618  1.6136  0.1500  0.7410
18790TIP3   OH277860   3.521   0.401  16.048 -0.0655 -0.3342  0.3652
18790TIP3    H177861   3.453   0.383  16.114 -1.2092  0.0390 -0.6629
18790TIP3    H277862   3.499   0.344  15.975  1.2710 -0.8453  0.3414
18791TIP3   OH277863   1.286   3.758  11.760 -0.4753  0.3035  0.2706
18791TIP3    H177864   1.295   3.664  11.776 -1.1816 -0.0364 -1.1655
18791TIP3    H277865   1.222   3.765  11.689 -1.9038  1.9753  1.6184
18792TIP3   OH277866   1.605   6.597   5.501 -0.5133 -0.2685 -0.1188
18792TIP3    H177867   1.677   6.582   5.562 -0.6180 -0.9544 -0.1550
18792TIP3    H277868   1.597   6.692   5.495 -0.7965 -0.1900  1.2679
18793TIP3   OH277869   2.178   1.434  16.546 -0.5535 -0.6362 -0.5067
18793TIP3    H177870   2.230   1.473  16.617  1.3779 -2.6854 -0.7013
18793TIP3    H277871   2.091   1.424  16.584  0.5566 -2.2224  1.9126
18794TIP3   OH277872   1.494   5.039  12.550 -0.0547 -0.3853 -0.2811
18794TIP3    H177873   1.400   5.047  12.533 -0.1521  3.2678  1.1197
18794TIP3    H277874   1.535   5.085  12.477  0.5162 -0.1568  0.1818
18795TIP3   OH277875   4.312   5.614  16.486  0.1263  0.5116  0.7203
18795TIP3    H177876   4.236   5.623  16.543  0.1911  1.2005  0.7060
18795TIP3    H277877   4.373   5.681  16.517  0.1049  0.9892 -0.2416
18796TIP3   OH277878   2.535   0.746   2.515  0.3810  0.2388  0.1401
18796TIP3    H177879   2.536   0.819   2.454  1.0786 -0.3374 -0.5699
18796TIP3    H277880   2.608   0.763   2.575  0.1750  0.4169  0.3421
18797TIP3   OH277881   1.848   1.126  12.378 -0.2366  0.1827  0.1434
18797TIP3    H177882   1.894   1.206  12.352  0.4112 -0.5071 -0.9217
18797TIP3    H277883   1.758   1.140  12.350 -0.1462  0.5775  0.0454
18798TIP3   OH277884   2.090   1.012   3.409  0.8380 -0.8951 -0.3850
18798TIP3    H177885   2.086   0.916   3.401 -0.2377 -0.8442 -0.5670
18798TIP3    H277886   2.166   1.028   3.465  0.2822 -1.9244  0.7004
18799TIP3   OH277887   2.215   3.474  14.690  0.3495 -0.3333 -0.4582
18799TIP3    H177888   2.225   3.438  14.778  3.0005 -1.7731 -1.2412
18799TIP3    H277889   2.193   3.566  14.704 -1.3826 -1.0039  1.6555
18800TIP3   OH277890   6.269   1.572   6.378 -0.1046  0.5658 -0.8664
18800TIP3    H177891   6.345   1.576   6.321  0.4453  0.4284 -0.1628
18800TIP3    H277892   6.268   1.657   6.422 -0.4487  0.6242 -0.9833
18801TIP3   OH277893   4.630   6.238  16.457  0.0895  0.2210 -0.1631
18801TIP3    H177894   4.556   6.194  16.499  0.9523 -0.8303  0.3256
18801TIP3    H277895   4.625   6.328  16.488  0.4383 -0.4097  1.9267
18802TIP3   OH277896   2.449   4.404  14.068 -0.2502 -1.1694 -0.2605
18802TIP3    H177897   2.414   4.490  14.044  1.9958  0.0063  0.3450
18802TIP3    H277898   2.388   4.341  14.029 -1.2336  0.6857 -1.8800
18803TIP3   OH277899   0.116   0.159   3.646  0.2843  0.4466 -0.0654
18803TIP3    H177900   0.055   0.098   3.689  0.2036  1.8076  1.8667
18803TIP3    H277901   0.060   0.231   3.617  0.5636  0.2244 -1.1917
18804TIP3   OH277902   1.128   4.439   2.567  0.3766  0.6787 -0.0702
18804TIP3    H177903   1.202   4.493   2.538  0.5394  1.1191  1.0811
18804TIP3    H277904   1.165   4.352   2.580  0.3361  0.5163 -0.9788
18805TIP3   OH277905   6.218   1.103  13.319  0.3607  0.7728 -0.1424
18805TIP3    H177906   6.144   1.066  13.368  0.5151 -1.3815 -1.4203
18805TIP3    H277907   6.182   1.122  13.233  0.8099  1.7389 -0.1236
18806TIP3   OH277908   5.741   4.468   0.181 -0.3955 -0.2314 -0.0981
18806TIP3    H177909   5.745   4.374   0.197 -1.4522 -0.1121  0.9983
18806TIP3    H277910   5.692   4.476   0.099  0.7399 -0.6610 -0.8435
18807TIP3   OH277911   1.935   5.293   4.519  0.1736  0.2889 -0.1594
18807TIP3    H177912   1.879   5.336   4.454 -0.1235 -0.5797 -0.4978
18807TIP3    H277913   1.920   5.199   4.504  0.8080  0.0706  0.5532
18808TIP3   OH277914   4.386   3.289   0.394  0.0601  0.8273  0.4426
18808TIP3    H177915   4.423   3.377   0.383 -0.0548  0.6223 -2.2805
18808TIP3    H277916   4.356   3.287   0.485  0.8678  3.2790  0.8447
18809TIP3   OH277917   0.908   3.796  14.166 -0.5172 -0.6870 -0.6262
18809TIP3    H177918   0.972   3.865  14.148 -1.8175  0.3575 -1.4361
18809TIP3    H277919   0.944   3.718  14.124  1.3181 -0.7179  0.8835
18810TIP3   OH277920   3.905   2.844  13.074  0.0222 -0.2973 -0.1444
18810TIP3    H177921   3.938   2.881  13.156  0.0701 -1.8642  0.5993
18810TIP3    H277922   3.933   2.752  13.077 -0.9626 -0.6688 -1.3823
18811TIP3   OH277923   1.313   3.958  11.520 -0.0621  0.0262 -0.2645
18811TIP3    H177924   1.352   3.947  11.434 -1.1786 -0.7205 -0.7056
18811TIP3    H277925   1.251   3.885  11.527 -1.3808  1.1638  0.3743
18812TIP3   OH277926   6.088   4.976   0.199  0.4601  0.0126 -0.9152
18812TIP3    H177927   6.167   4.966   0.252  0.2626 -0.7917 -0.7655
18812TIP3    H277928   6.114   5.036   0.129  1.0746  0.1020 -0.6200
18813TIP3   OH277929   5.678   5.341   6.533 -0.2043 -0.8127 -0.0618
18813TIP3    H177930   5.636   5.396   6.467 -1.2807 -1.6419 -0.0854
18813TIP3    H277931   5.669   5.391   6.614  0.8281  0.0574 -0.4601
18814TIP3   OH277932   4.903   2.358   0.145  0.1514 -0.2706  0.0045
18814TIP3    H177933   4.866   2.374   0.232  0.9006  0.6735  0.1682
18814TIP3    H277934   4.978   2.417   0.140 -0.7846  0.8667 -1.8751
18815TIP3   OH277935   1.584   2.312  16.882 -0.1174 -0.0749  0.1885
18815TIP3    H177936   1.560   2.219  16.876  0.8325 -0.4376  1.5754
18815TIP3    H277937   1.679   2.311  16.898 -0.4585  1.0166  2.7549
18816TIP3   OH277938   3.124   3.816   6.128 -0.0378  0.6181  0.3507
18816TIP3    H177939   3.061   3.752   6.161  0.2804  1.1221  2.0094
18816TIP3    H277940   3.192   3.821   6.195  2.2657 -0.4987 -1.7371
18817TIP3   OH277941   3.575   1.073   4.099  0.0740 -0.3376  0.2115
18817TIP3    H177942   3.503   1.058   4.037 -0.0496 -2.2747  0.7416
18817TIP3    H277943   3.533   1.074   4.185  0.6475 -1.5471  0.5308
18818TIP3   OH277944   6.812   3.571   6.556 -0.7607  0.5330 -0.7063
18818TIP3    H177945   6.831   3.482   6.526 -1.6273  0.3860 -0.8733
18818TIP3    H277946   6.730   3.562   6.604 -0.0158  0.9786  0.6788
18819TIP3   OH277947   1.825   6.217  11.318 -0.2291  0.0679 -0.0971
18819TIP3    H177948   1.893   6.149  11.324 -0.0389  0.3573  1.4756
18819TIP3    H277949   1.875   6.299  11.318 -0.4854  0.2431 -1.4419
18820TIP3   OH277950   2.041   5.471  13.433 -0.1240 -0.4212 -0.0827
18820TIP3    H177951   2.040   5.450  13.340  1.8338 -0.2835 -0.1641
18820TIP3    H277952   1.949   5.465  13.460 -0.8473  0.3722 -2.1941
18821TIP3   OH277953   6.638   4.576   5.995 -0.5923  0.2779  0.0524
18821TIP3    H177954   6.675   4.664   6.000  1.9745 -0.7738  1.5543
18821TIP3    H277955   6.544   4.590   5.995 -0.2953  3.0055  1.0265
18822TIP3   OH277956   2.517   5.300   5.676  0.5503 -0.1701 -0.1989
18822TIP3    H177957   2.469   5.311   5.758  0.1197 -0.2833 -0.4370
18822TIP3    H277958   2.586   5.237   5.696  0.6237  0.0190  0.1499
18823TIP3   OH277959   1.294   3.351  12.249 -0.0162 -0.1057  0.1209
18823TIP3    H177960   1.280   3.351  12.344  1.7727 -0.6599  0.4172
18823TIP3    H277961   1.308   3.442  12.226  0.4083 -0.0709  0.5252
18824TIP3   OH277962   4.310   3.326  14.874 -0.1583 -0.3270 -0.0200
18824TIP3    H177963   4.289   3.366  14.959  1.0235  0.2234  0.0264
18824TIP3    H277964   4.225   3.313  14.832 -0.6697  0.7442  0.6434
18825TIP3   OH277965   6.722   5.898  12.318 -0.3089 -0.3550 -0.0241
18825TIP3    H177966   6.726   5.908  12.223  1.0986  0.8383  0.1364
18825TIP3    H277967   6.636   5.859  12.334 -0.3500 -1.0893 -1.8135
18826TIP3   OH277968   2.173   2.223  16.245  0.0520 -0.0979 -0.4197
18826TIP3    H177969   2.239   2.281  16.283  0.0563  0.2246 -0.9119
18826TIP3    H277970   2.212   2.192  16.163  0.5174 -1.6896  0.3608
18827TIP3   OH277971   5.838   5.279   4.982  0.1504  0.1951 -0.1230
18827TIP3    H177972   5.844   5.364   4.938  0.4666 -0.0842 -0.6379
18827TIP3    H277973   5.776   5.229   4.929  1.7247 -0.6884 -1.2009
18828TIP3   OH277974   4.283   4.590   0.496  0.1965 -0.2049 -0.0727
18828TIP3    H177975   4.266   4.502   0.461  0.0608 -0.1722 -0.0896
18828TIP3    H277976   4.298   4.576   0.589 -2.2221  0.0146  0.4148
18829TIP3   OH277977   1.955   2.244   1.228 -0.0795  0.0409  0.5830
18829TIP3    H177978   2.041   2.285   1.227  0.3487 -0.7812 -1.5143
18829TIP3    H277979   1.959   2.182   1.300  1.4243 -0.5869  0.0066
18830TIP3   OH277980   4.272   6.521   1.968  1.0679  0.3216  0.3064
18830TIP3    H177981   4.187   6.560   1.948  0.7516  0.0654  1.1222
18830TIP3    H277982   4.298   6.477   1.887 -0.0206 -0.3967  0.3260
18831TIP3   OH277983   4.642   1.813  10.378  0.4440  0.8218  1.0097
18831TIP3    H177984   4.621   1.739  10.435  1.2043 -0.0263  0.2207
18831TIP3    H277985   4.640   1.889  10.436 -1.3386  0.3377  1.6335
18832TIP3   OH277986   0.407   5.606  12.370 -0.0035 -0.0058  0.0108
18832TIP3    H177987   0.442   5.655  12.445  0.0280  0.3637 -0.2472
18832TIP3    H277988   0.338   5.661  12.335 -2.8897 -1.9152  2.2254
18833TIP3   OH277989   0.809   1.916   5.979 -0.0647 -0.0334  0.1139
18833TIP3    H177990   0.881   1.904   5.917 -0.4056 -2.3453  0.0844
18833TIP3    H277991   0.780   1.827   6.000 -0.8189  0.7080  2.5918
18834TIP3   OH277992   6.263   1.393  13.329  0.6297 -0.3325 -0.4219
18834TIP3    H177993   6.312   1.317  13.360  0.8263  1.0573  3.0490
18834TIP3    H277994   6.176   1.384  13.368  1.0855  1.8513  1.2895
18835TIP3   OH277995   2.005   2.248  15.663 -0.6477  0.1978 -0.4265
18835TIP3    H177996   2.003   2.153  15.660 -0.6665 -0.0186  2.7049
18835TIP3    H277997   1.944   2.276  15.595  0.6026 -1.9046 -2.5666
18836TIP3   OH277998   2.650   4.678   4.112  0.5668 -0.1640 -0.0712
18836TIP3    H177999   2.637   4.685   4.207 -0.1068 -1.0622 -0.0737
18836TIP3    H278000   2.570   4.635   4.081  0.5912  0.5231 -1.1105
18837TIP3   OH278001   5.545   3.289   2.942 -0.6796 -0.3647  0.2429
18837TIP3    H178002   5.517   3.379   2.927 -0.1392 -0.2833 -0.2979
18837TIP3    H278003   5.470   3.248   2.985 -0.5216  0.6335  1.5458
18838TIP3   OH278004   1.985   3.962   4.682  0.4058 -0.3191  0.0172
18838TIP3    H178005   2.001   4.001   4.768 -1.9085 -0.6946  0.6972
18838TIP3    H278006   2.047   3.889   4.677  0.9327  0.0241  1.1509
18839TIP3   OH278007   6.598   6.827  10.971  0.4597  0.1428 -0.0938
18839TIP3    H178008   6.585   6.906  10.919  1.2055  1.1597  1.2035
18839TIP3    H278009   6.603   6.757  10.906  0.6637  1.2666 -1.3475
18840TIP3   OH278010   4.840   3.223   3.836  0.6013 -0.6410 -1.3539
18840TIP3    H178011   4.788   3.142   3.833 -0.5198  0.0554 -1.3068
18840TIP3    H278012   4.905   3.207   3.905  1.2707 -1.9913 -2.2381
18841TIP3   OH278013   0.293   6.171  12.110  0.5631 -0.5849 -0.3166
18841TIP3    H178014   0.223   6.128  12.159  0.1145  0.4524 -0.0309
18841TIP3    H278015   0.286   6.135  12.022 -0.8898  0.1329 -0.5149
18842TIP3   OH278016   5.617   0.368   5.259 -0.4026  0.0230 -0.2070
18842TIP3    H178017   5.700   0.395   5.219  0.5637  0.3476  1.9118
18842TIP3    H278018   5.551   0.421   5.214  0.7438  1.0834 -0.7011
18843TIP3   OH278019   4.522   5.700   2.319  0.2191  0.0182 -0.5414
18843TIP3    H178020   4.612   5.727   2.301  0.9649 -2.0681 -0.1897
18843TIP3    H278021   4.517   5.693   2.415  0.0403 -0.9508 -0.6078
18844TIP3   OH278022   3.799   0.604   3.092  0.1982  0.1774 -0.2626
18844TIP3    H178023   3.818   0.576   3.182 -0.3480 -0.4422 -0.3284
18844TIP3    H278024   3.748   0.684   3.102 -0.9057 -0.5282  0.0354
18845TIP3   OH278025   4.717   3.512   4.619 -0.3450 -0.1095 -0.2708
18845TIP3    H178026   4.683   3.427   4.592 -2.5176  1.0557 -1.4748
18845TIP3    H278027   4.639   3.564   4.638  0.8984  1.7613 -0.0246
18846TIP3   OH278028   4.287   4.284   2.254  0.1000 -0.0720 -0.0549
18846TIP3    H178029   4.306   4.255   2.344 -0.2909  0.8069  0.3263
18846TIP3    H278030   4.192   4.283   2.248  0.1179  0.0934 -0.3773
18847TIP3   OH278031   4.775   4.586   6.791 -0.0704 -0.4631  1.3939
18847TIP3    H178032   4.728   4.620   6.868 -1.3348  2.1359 -0.3902
18847TIP3    H278033   4.709   4.584   6.722  1.9768  1.7446 -0.7955
18848TIP3   OH278034   5.164   2.725   0.378  0.7975 -0.2195 -0.8020
18848TIP3    H178035   5.185   2.633   0.397  0.8347  0.1591  1.2581
18848TIP3    H278036   5.226   2.750   0.310  0.4113 -1.8572 -1.8282
18849TIP3   OH278037   1.677   5.042  11.018  0.1986  0.6557 -1.0150
18849TIP3    H178038   1.682   5.048  10.923  1.4075  0.9175 -0.9435
18849TIP3    H278039   1.592   5.080  11.040  0.7208  2.3636 -1.8469
18850TIP3   OH278040   5.521   3.904   2.348 -0.4439  0.2395  0.5700
18850TIP3    H178041   5.489   3.817   2.373  0.5252 -0.1162  0.6043
18850TIP3    H278042   5.573   3.932   2.423  0.3037  0.2982  0.0351
18851TIP3   OH278043   4.543   3.243  12.974  0.4044 -0.2518  0.3651
18851TIP3    H178044   4.630   3.267  12.942  1.6427  0.6413  3.9245
18851TIP3    H278045   4.542   3.147  12.972 -0.0102 -0.2920 -2.9598
18852TIP3   OH278046   4.894   3.190   5.923  0.1241 -0.5734  0.4557
18852TIP3    H178047   4.915   3.141   6.002  2.0689 -0.5192  0.0160
18852TIP3    H278048   4.853   3.126   5.865  0.8813 -1.2238  0.6229
18853TIP3   OH278049   4.552   1.666   6.379  0.2363 -0.0825  0.4285
18853TIP3    H178050   4.629   1.717   6.355  0.3681 -0.5266 -0.1123
18853TIP3    H278051   4.586   1.581   6.407 -0.1488 -1.1220 -2.0294
18854TIP3   OH278052   0.624   4.061   5.797 -0.0086  0.1206  0.0088
18854TIP3    H178053   0.537   4.074   5.758 -0.7224  1.6556  1.9347
18854TIP3    H278054   0.623   4.115   5.876  2.1617 -1.0646  0.9314
18855TIP3   OH278055   3.970   0.820  16.583  0.4150 -0.1909  0.2352
18855TIP3    H178056   4.022   0.831  16.662  0.1607  0.2600  0.3425
18855TIP3    H278057   3.984   0.729  16.557  2.1968  0.2286 -0.4063
18856TIP3   OH278058   2.474   6.845  15.207  0.3246 -0.3995 -0.5562
18856TIP3    H178059   2.388   6.813  15.180 -0.1879  1.2484 -1.0141
18856TIP3    H278060   2.493   6.917  15.147  1.2543  0.3669  0.6027
18857TIP3   OH278061   1.561   3.367   1.439  0.1057 -0.3691 -0.2724
18857TIP3    H178062   1.564   3.280   1.398 -0.0385  0.7751 -2.9483
18857TIP3    H278063   1.649   3.402   1.426 -0.3308  0.5459 -0.8527
18858TIP3   OH278064   3.142   6.445  10.809 -0.4887 -0.0929  0.0340
18858TIP3    H178065   3.171   6.536  10.816 -0.3767 -0.2523  3.0673
18858TIP3    H278066   3.048   6.452  10.791 -0.5577  0.6378  0.6279
18859TIP3   OH278067   0.370   2.876  11.493  0.3549 -0.1204  0.5810
18859TIP3    H178068   0.291   2.828  11.519  2.2635 -3.1056  1.3861
18859TIP3    H278069   0.407   2.907  11.576  1.2034 -0.7684  0.4525
18860TIP3   OH278070   4.373   4.744  16.261  0.6017  0.6036 -0.1723
18860TIP3    H178071   4.390   4.668  16.316  2.7096  2.7407  2.3800
18860TIP3    H278072   4.425   4.728  16.182  0.7424 -0.7091  0.1656
18861TIP3   OH278073   0.992   6.845  14.463 -0.5742 -0.2049 -0.3787
18861TIP3    H178074   0.973   6.798  14.381  0.3062 -1.5228  0.1431
18861TIP3    H278075   0.980   6.779  14.531  0.3117  0.4393  0.4193
18862TIP3   OH278076   3.459   3.182  13.629 -1.2575 -0.5666 -0.0302
18862TIP3    H178077   3.513   3.187  13.550  1.9486  0.4003  2.0341
18862TIP3    H278078   3.451   3.089  13.647  0.9100 -0.7415  0.2722
18863TIP3   OH278079   2.828   4.186   6.284 -0.4566 -0.3799  0.3479
18863TIP3    H178080   2.741   4.165   6.250 -0.3150  2.4221 -2.0466
18863TIP3    H278081   2.885   4.117   6.250 -1.2040 -0.4323 -0.8152
18864TIP3   OH278082   2.043   1.473  13.848 -0.1581  0.0855 -0.2102
18864TIP3    H178083   2.122   1.448  13.801  0.2255 -1.6342  1.2709
18864TIP3    H278084   2.045   1.569  13.848  1.2592  0.0839 -1.2584
18865TIP3   OH278085   3.208   2.368   0.362  0.3393 -0.2100 -0.2692
18865TIP3    H178086   3.198   2.444   0.420  2.1485  1.6395 -2.2063
18865TIP3    H278087   3.123   2.357   0.321  0.7639  2.8809 -2.2713
18866TIP3   OH278088   4.251   5.784  13.366 -0.1550 -0.3184  0.4959
18866TIP3    H178089   4.342   5.766  13.389  0.1935  0.5877 -0.1200
18866TIP3    H278090   4.251   5.875  13.337 -1.1283 -0.5185 -0.1929
18867TIP3   OH278091   5.554   0.749  17.069  0.4010  0.1135 -1.2279
18867TIP3    H178092   5.484   0.738  17.134  2.1184 -1.0917  0.5197
18867TIP3    H278093   5.520   0.706  16.990 -0.9400 -0.1929 -0.5200
18868TIP3   OH278094   5.989   2.391   0.128 -0.1530  0.0395  0.5404
18868TIP3    H178095   6.019   2.479   0.151 -0.8883  1.0362 -1.9692
18868TIP3    H278096   6.058   2.357   0.070 -0.3774 -0.6169  0.6556
18869TIP3   OH278097   5.439   6.783  11.113  0.2096 -0.4800 -0.1081
18869TIP3    H178098   5.501   6.721  11.076  2.8223  1.4071  0.8446
18869TIP3    H278099   5.412   6.838  11.039  0.4982 -0.6535 -0.3396
18870TIP3   OH278100   5.144   3.905   2.353  0.3022  0.0750  0.5382
18870TIP3    H178101   5.141   3.826   2.408 -1.5060 -0.7550 -0.6728
18870TIP3    H278102   5.170   3.872   2.267 -0.6788  0.7771 -0.0310
18871TIP3   OH278103   2.036   5.413  12.370  0.3664 -0.1503  0.2527
18871TIP3    H178104   1.999   5.338  12.418 -0.6046 -0.7671 -1.3869
18871TIP3    H278105   1.960   5.452  12.326  1.4139 -0.4394 -1.8869
18872TIP3   OH278106   5.643   3.019  12.434 -0.5921  0.2276  0.6887
18872TIP3    H178107   5.605   3.006  12.521 -0.0738  0.7969  1.0056
18872TIP3    H278108   5.602   2.951  12.379 -2.1432  0.8975  0.9880
18873TIP3   OH278109   4.884   4.095  11.733  0.3981  0.0274 -0.3187
18873TIP3    H178110   4.973   4.061  11.722  0.1474 -0.8358  0.2071
18873TIP3    H278111   4.856   4.119  11.645  0.7345 -0.7807 -0.6549
18874TIP3   OH278112   0.377   2.290   6.151 -0.2525  0.0621  0.0237
18874TIP3    H178113   0.285   2.276   6.128 -0.4700  0.1557  0.8389
18874TIP3    H278114   0.401   2.212   6.201  0.1189  0.0277 -0.2076
18875TIP3   OH278115   6.790   4.730   2.901  0.0246  0.4136 -0.0095
18875TIP3    H178116   6.878   4.694   2.900  0.2031  0.8488 -0.7957
18875TIP3    H278117   6.733   4.655   2.886  0.2962  0.2158 -0.0570
18876TIP3   OH278118   3.335   5.568  15.307  0.3309 -0.9028 -0.2057
18876TIP3    H178119   3.330   5.613  15.223 -0.0839 -0.1533  0.2039
18876TIP3    H278120   3.428   5.567  15.329  0.4032 -0.7794 -0.5061
18877TIP3   OH278121   3.159   0.819   4.745 -1.0679 -0.0056  0.5592
18877TIP3    H178122   3.193   0.867   4.669 -0.6848  0.0783  0.7813
18877TIP3    H278123   3.158   0.883   4.816 -0.0102 -0.4667  1.0081
18878TIP3   OH278124   6.195   4.485   2.323 -0.2000  0.8002  0.5874
18878TIP3    H178125   6.152   4.420   2.378  1.4860 -2.0493 -1.1790
18878TIP3    H278126   6.263   4.522   2.379 -0.7075  0.4767  1.4336
18879TIP3   OH278127   1.270   5.590  14.829 -0.2274  0.5041  0.1759
18879TIP3    H178128   1.329   5.645  14.879 -0.5190  0.8783  0.1089
18879TIP3    H278129   1.185   5.598  14.872 -0.1179 -0.4783  0.6167
18880TIP3   OH278130   4.324   4.714  17.109 -0.3021  0.6286 -0.2762
18880TIP3    H178131   4.326   4.780  17.178  0.5994  1.1739 -0.8272
18880TIP3    H278132   4.386   4.647  17.138 -1.4530 -0.1838  0.4464
18881TIP3   OH278133   5.816   0.821  15.232 -0.1551 -1.4261  0.0576
18881TIP3    H178134   5.841   0.809  15.141  1.5530 -1.5375  0.5036
18881TIP3    H278135   5.768   0.903  15.233 -0.3910 -1.5406 -0.9766
18882TIP3   OH278136   5.912   6.685  13.065 -0.0441 -0.0053 -0.0878
18882TIP3    H178137   5.942   6.773  13.086  0.9010 -0.3301  0.0013
18882TIP3    H278138   5.822   6.682  13.096 -1.0171  1.7624 -2.4638
18883TIP3   OH278139   5.745   0.412  14.210 -0.3408  0.1075  0.3702
18883TIP3    H178140   5.710   0.483  14.264 -1.5890  0.1279 -0.4209
18883TIP3    H278141   5.673   0.349  14.204 -0.0425 -0.1351 -0.8377
18884TIP3   OH278142   1.162   4.601  12.504 -0.5464  0.2516 -0.2847
18884TIP3    H178143   1.083   4.606  12.450 -0.8811 -0.9381  0.0615
18884TIP3    H278144   1.142   4.533  12.568  0.8030 -0.1265 -0.2471
18885TIP3   OH278145   3.193   2.951  15.656 -0.3892  0.4539 -0.0177
18885TIP3    H178146   3.215   2.913  15.741 -1.8022 -0.0578  0.1533
18885TIP3    H278147   3.254   3.024  15.645  1.0638 -0.6270  0.5607
18886TIP3   OH278148   3.654   0.769   3.846 -0.3821 -0.3237 -0.6079
18886TIP3    H178149   3.714   0.806   3.781 -0.8955  2.5812  0.4162
18886TIP3    H278150   3.708   0.759   3.925 -0.2905 -1.7883 -0.8172
18887TIP3   OH278151   5.791   0.785   0.071  0.3321  0.1058  0.4106
18887TIP3    H178152   5.707   0.793   0.025 -0.0533  2.6631  1.3909
18887TIP3    H278153   5.856   0.775   0.001 -0.7600 -2.1285 -0.3509
18888TIP3   OH278154   2.491   4.241   1.258  0.4205 -0.6470 -0.1607
18888TIP3    H178155   2.489   4.157   1.303 -0.1107 -0.7967 -0.4436
18888TIP3    H278156   2.454   4.303   1.320  2.4061 -0.2618  0.7091
18889TIP3   OH278157   6.136   1.846  13.621 -0.9003 -0.0608  0.0664
18889TIP3    H178158   6.206   1.788  13.652  0.2151  0.3263 -1.6047
18889TIP3    H278159   6.120   1.819  13.531 -1.4692  1.1886 -0.2333
18890TIP3   OH278160   0.435   1.051  16.321  0.4114 -0.2930  0.0220
18890TIP3    H178161   0.501   1.114  16.293 -1.2395  1.4484 -0.1870
18890TIP3    H278162   0.405   1.085  16.406 -0.6887 -0.6129 -0.2164
18891TIP3   OH278163   1.991   2.067   1.001  0.2048  0.7948 -0.0069
18891TIP3    H178164   1.964   2.117   1.078  0.8007  1.7406 -0.3926
18891TIP3    H278165   1.942   2.106   0.929  0.8735  1.0084 -0.3555
18892TIP3   OH278166   5.334   6.535   0.356  0.0212  0.3595  0.1218
18892TIP3    H178167   5.305   6.477   0.285  1.4073 -0.4985  0.2165
18892TIP3    H278168   5.401   6.485   0.402  0.5003  1.6490  0.8785
18893TIP3   OH278169   3.681   5.426  12.430  0.4858 -0.2882 -0.2437
18893TIP3    H178170   3.626   5.474  12.492  0.6014  1.1694 -1.2405
18893TIP3    H278171   3.648   5.336  12.434 -0.0089 -0.0722  1.3556
18894TIP3   OH278172   3.476   5.246   2.794  0.1291  0.3027  0.1033
18894TIP3    H178173   3.504   5.156   2.813  0.9072  0.0142 -2.1200
18894TIP3    H278174   3.551   5.300   2.821  0.9509 -0.0397 -1.3588
18895TIP3   OH278175   5.796   1.122  14.660 -0.2319  0.2699  0.1552
18895TIP3    H178176   5.830   1.036  14.634  1.8459  0.4018  2.0755
18895TIP3    H278177   5.704   1.120  14.635  0.2467 -1.6709 -1.8058
18896TIP3   OH278178   6.048   3.372   5.207  0.3380 -0.2974  0.3741
18896TIP3    H178179   6.106   3.391   5.134  0.5784 -1.5747  0.2084
18896TIP3    H278180   5.960   3.371   5.168  0.4680 -1.0126  0.0748
18897TIP3   OH278181   0.778   2.367   5.147 -0.4057 -0.8816  0.2134
18897TIP3    H178182   0.759   2.309   5.221 -0.7209 -0.1077  0.7599
18897TIP3    H278183   0.751   2.454   5.178 -0.9997 -0.6258 -1.0059
18898TIP3   OH278184   4.005   1.714   3.051 -0.1769  0.2437 -0.2257
18898TIP3    H178185   4.003   1.620   3.068  0.8322  0.4900  1.4301
18898TIP3    H278186   3.951   1.725   2.973 -1.2362 -1.5689  0.1954
18899TIP3   OH278187   2.107   5.516   2.187  0.2719 -0.4285  0.2123
18899TIP3    H178188   2.066   5.529   2.272 -1.9315 -0.3825 -0.7732
18899TIP3    H278189   2.137   5.425   2.188  0.6792 -0.2917  1.1745
18900TIP3   OH278190   4.700   6.424  14.012 -0.0484  0.1357  0.0568
18900TIP3    H178191   4.632   6.487  14.034 -0.7853 -0.4776 -0.3935
18900TIP3    H278192   4.746   6.464  13.938 -0.2502  0.3243  0.0325
18901TIP3   OH278193   5.069   4.965   4.377  0.1036  0.1257  0.2594
18901TIP3    H178194   5.044   4.965   4.285  2.6626  0.1614 -0.5032
18901TIP3    H278195   5.075   4.872   4.400 -1.0402  0.1100  0.5977
18902TIP3   OH278196   6.811   5.558  11.317  0.0251 -0.1898  0.5115
18902TIP3    H178197   6.783   5.551  11.408 -1.0829  2.2477  0.4313
18902TIP3    H278198   6.731   5.546  11.266  0.5184 -0.8591 -0.1213
18903TIP3   OH278199   3.000   3.648   6.600  0.3975 -0.4614 -0.3033
18903TIP3    H178200   2.929   3.635   6.538 -0.1809 -0.7477  0.4006
18903TIP3    H278201   2.990   3.576   6.663  1.1832 -0.3838 -0.0821
18904TIP3   OH278202   1.999   1.396  17.017 -0.1198  0.3205  0.0144
18904TIP3    H178203   2.061   1.433  17.081  0.6604 -1.1715  0.1593
18904TIP3    H278204   2.023   1.304  17.011 -2.9890 -0.5478  0.8067
18905TIP3   OH278205   1.249   1.231   2.547 -0.3065 -0.3056 -0.2018
18905TIP3    H178206   1.225   1.318   2.517  2.6723  0.7650  0.2234
18905TIP3    H278207   1.236   1.174   2.471  0.5970  1.0938 -1.4431
18906TIP3   OH278208   0.226   2.851   5.603 -0.2988 -0.4506 -0.3873
18906TIP3    H178209   0.178   2.933   5.616 -0.7506 -0.9462  1.3056
18906TIP3    H278210   0.313   2.879   5.577 -0.3871  0.5951  0.3358
18907TIP3   OH278211   6.056   5.866  12.712  0.5667 -0.0206  0.4236
18907TIP3    H178212   6.126   5.870  12.777  0.1947  0.3901  0.8047
18907TIP3    H278213   6.099   5.831  12.634  1.0741 -0.2843  0.8110
18908TIP3   OH278214   6.622   1.338   0.506  0.5048 -0.2516 -0.1354
18908TIP3    H178215   6.661   1.292   0.580  1.0164 -1.7362 -1.2749
18908TIP3    H278216   6.695   1.383   0.464  0.3178  0.1014 -0.0879
18909TIP3   OH278217   4.125   1.349   0.802 -0.1954 -0.0443 -0.0641
18909TIP3    H178218   4.128   1.339   0.707 -0.4819 -0.2988 -0.0475
18909TIP3    H278219   4.118   1.443   0.816 -2.9885 -0.1208 -0.3850
18910TIP3   OH278220   0.254   1.734  11.663 -0.1161  0.0116 -0.0145
18910TIP3    H178221   0.325   1.797  11.654  0.2640 -0.2184  1.1831
18910TIP3    H278222   0.258   1.682  11.582  0.3374  0.7393 -0.4699
18911TIP3   OH278223   3.054   4.189   0.142 -0.1588 -0.0408 -0.3264
18911TIP3    H178224   3.045   4.250   0.069 -2.7718 -0.6577 -0.6199
18911TIP3    H278225   3.110   4.119   0.107  0.2596  0.6316 -1.0398
18912TIP3   OH278226   0.183   1.392  14.000 -0.4424 -0.0499  0.7855
18912TIP3    H178227   0.160   1.475  14.041 -0.2269  0.3695  0.0790
18912TIP3    H278228   0.163   1.326  14.066 -2.3636  0.3912  0.7051
18913TIP3   OH278229   4.087   5.257  10.801  0.4765  0.0928 -0.3791
18913TIP3    H178230   4.084   5.184  10.863  1.8766 -1.4615 -2.0142
18913TIP3    H278231   4.173   5.297  10.816  1.0850 -0.6655 -1.6230
18914TIP3   OH278232   0.985   2.623  10.801 -0.5577  0.0375 -0.1893
18914TIP3    H178233   0.906   2.669  10.833 -0.7284 -0.4251  0.0576
18914TIP3    H278234   1.032   2.690  10.752 -0.9379  0.4149 -0.0548
18915TIP3   OH278235   5.075   4.584  11.462 -1.1717 -0.1612 -0.5027
18915TIP3    H178236   5.143   4.523  11.434  0.0034  1.7119 -1.9332
18915TIP3    H278237   5.043   4.623  11.381 -0.4737  2.5549  0.4182
18916TIP3   OH278238   2.007   0.669  10.821  0.6006  0.7678  0.4442
18916TIP3    H178239   1.943   0.625  10.876  0.5967  0.3128  0.0748
18916TIP3    H278240   2.092   0.637  10.852  0.7578  2.3988  1.8593
18917TIP3   OH278241   1.799   1.965  12.916  0.4236 -0.1133 -0.2671
18917TIP3    H178242   1.839   1.926  12.994 -0.1080  0.0603  0.0973
18917TIP3    H278243   1.861   1.948  12.846  1.0811  0.0548  0.2691
18918TIP3   OH278244   0.952   5.631  16.417  0.2810 -0.0956  0.1343
18918TIP3    H178245   0.886   5.561  16.417 -0.2747  0.4041 -1.0044
18918TIP3    H278246   0.909   5.704  16.462 -0.0847  0.3403 -0.8975
18919TIP3   OH278247   1.568   5.852   5.103 -0.6600  0.4767  0.1551
18919TIP3    H178248   1.523   5.887   5.179  1.2490  0.4350  1.3542
18919TIP3    H278249   1.499   5.810   5.052 -2.0200  0.6885  1.7377
18920TIP3   OH278250   6.312   3.827   1.140 -0.0913 -0.4121  0.1994
18920TIP3    H178251   6.361   3.841   1.059 -0.3621 -0.6621 -0.0073
18920TIP3    H278252   6.362   3.876   1.206 -1.5807  2.4750 -0.6559
18921TIP3   OH278253   6.801   1.419  14.394  0.1917  0.1170 -0.5415
18921TIP3    H178254   6.825   1.398  14.484 -1.0692  1.1619  0.0769
18921TIP3    H278255   6.721   1.370  14.378  0.7510 -0.5798 -1.3542
18922TIP3   OH278256   2.719   0.102   2.436  0.0598  0.3728  0.0389
18922TIP3    H178257   2.664   0.147   2.372 -1.2934 -1.5338 -0.2041
18922TIP3    H278258   2.662   0.088   2.512 -0.0174 -2.0858 -0.4084
18923TIP3   OH278259   6.348   6.770   4.600  0.2666  0.1463  0.3625
18923TIP3    H178260   6.419   6.732   4.651  1.2049  1.6163  0.2223
18923TIP3    H278261   6.366   6.744   4.509  0.6782  0.5597  0.3201
18924TIP3   OH278262   0.338   5.760  15.008 -0.0679 -0.1119 -0.1193
18924TIP3    H178263   0.359   5.830  14.945  0.8788 -0.4435 -0.1845
18924TIP3    H278264   0.302   5.807  15.083 -1.5588  0.2624 -1.0312
18925TIP3   OH278265   2.185   0.023   5.694 -0.7383  0.0052 -0.7524
18925TIP3    H178266   2.239  -0.053   5.716  1.8273  2.0537  0.5952
18925TIP3    H278267   2.137   0.043   5.774  1.2166  1.7274  0.0781
18926TIP3   OH278268   1.152   5.864   1.965 -1.0644 -0.2516 -0.0518
18926TIP3    H178269   1.073   5.812   1.952 -1.5078  0.5018 -0.4551
18926TIP3    H278270   1.121   5.943   2.010 -0.2757 -0.6932  1.3163
18927TIP3   OH278271   0.660   5.891  15.515 -0.8340 -0.4013 -0.1196
18927TIP3    H178272   0.575   5.929  15.495  0.0373  2.4712  1.1852
18927TIP3    H278273   0.654   5.866  15.607  0.3166  1.7082  0.5733
18928TIP3   OH278274   4.235   2.921   3.017  0.1887 -0.6093  0.1744
18928TIP3    H178275   4.232   2.957   2.929  0.6645  0.2678  0.5084
18928TIP3    H278276   4.150   2.943   3.055  0.0136 -0.9199 -0.0326
18929TIP3   OH278277   0.589   5.605   3.001 -0.0588  0.5265 -0.0844
18929TIP3    H178278   0.633   5.678   3.044  1.6083 -0.1667 -0.5418
18929TIP3    H278279   0.587   5.536   3.067 -0.2367  0.4613 -0.1563
18930TIP3   OH278280   3.390   2.727   0.066 -0.4320  0.5486 -0.0363
18930TIP3    H178281   3.341   2.757  -0.011 -1.4207  3.5964  1.6276
18930TIP3    H278282   3.349   2.643   0.088 -0.2449 -0.3312 -2.6330
18931TIP3   OH278283   5.435   0.878   1.071  0.0220  0.1389  0.0041
18931TIP3    H178284   5.401   0.886   0.982  0.2294 -1.2222 -0.2320
18931TIP3    H278285   5.357   0.863   1.125 -0.1405  1.3556  0.1179
18932TIP3   OH278286   6.098   0.030   4.602 -0.4149 -0.5018  0.7623
18932TIP3    H178287   6.189   0.017   4.573 -1.0334 -0.5663 -1.2824
18932TIP3    H278288   6.055  -0.053   4.582 -0.9128 -0.5228  1.8693
18933TIP3   OH278289   6.623   5.605  13.113  0.0691  0.1190  0.0014
18933TIP3    H178290   6.664   5.522  13.139 -1.5587 -0.9089 -0.5229
18933TIP3    H278291   6.696   5.666  13.101  1.3500 -1.3660 -0.0666
18934TIP3   OH278292   2.938   3.699  13.209 -0.4397 -0.0798  0.2136
18934TIP3    H178293   3.000   3.640  13.252 -1.7523 -1.3364  0.4981
18934TIP3    H278294   2.902   3.752  13.280 -0.0230  0.3287  0.1194
18935TIP3   OH278295   2.049   0.825   5.987 -0.3570 -0.2534  0.1330
18935TIP3    H178296   2.138   0.806   6.016  0.2530 -2.7217 -2.7872
18935TIP3    H278297   2.037   0.918   6.002  1.9646 -0.2413  2.4174
18936TIP3   OH278298   3.242   6.685  13.342  0.3888  0.4780 -0.0651
18936TIP3    H178299   3.247   6.606  13.395  2.2865  0.2430 -0.4996
18936TIP3    H278300   3.264   6.756  13.402  1.6371  0.3079 -0.2754
18937TIP3   OH278301   6.645   2.065  12.066 -0.3994 -0.1140  0.0309
18937TIP3    H178302   6.707   2.042  11.997 -1.3856 -2.6463 -0.1157
18937TIP3    H278303   6.700   2.082  12.143  0.5515 -1.3209 -0.3503
18938TIP3   OH278304   2.450   1.336  16.458  0.7820  0.0957  0.1831
18938TIP3    H178305   2.467   1.283  16.535  1.3262  0.6952  0.4822
18938TIP3    H278306   2.354   1.332  16.447  0.9218 -2.3738 -0.8626
18939TIP3   OH278307   3.486   1.140  14.101 -0.5989 -0.4388  0.3543
18939TIP3    H178308   3.425   1.144  14.028  1.4788 -1.5135 -1.5526
18939TIP3    H278309   3.513   1.049  14.105  1.7377  0.1936  0.3394
18940TIP3   OH278310   6.695   5.326   2.765  0.2628 -0.4866 -0.1355
18940TIP3    H178311   6.763   5.288   2.711  0.6080  1.1723 -0.9434
18940TIP3    H278312   6.613   5.305   2.720  0.4550 -0.2001 -0.6264
18941TIP3   OH278313   1.185   0.716  16.976 -0.2922  0.5360  0.2819
18941TIP3    H178314   1.192   0.653  16.905 -1.8319  2.6613 -1.8839
18941TIP3    H278315   1.116   0.682  17.033 -0.5218 -0.1245 -0.3913
18942TIP3   OH278316   3.906   4.950   5.805  0.1139 -0.0262  0.5361
18942TIP3    H178317   3.882   5.043   5.801 -0.9748 -0.0105  4.0621
18942TIP3    H278318   4.000   4.950   5.823 -0.1241  0.4576  1.8331
18943TIP3   OH278319   5.903   5.709   5.513  0.2506  0.6823  0.4839
18943TIP3    H178320   5.855   5.635   5.550 -0.2776  0.8100  0.0619
18943TIP3    H278321   5.968   5.670   5.456 -0.2012  0.5514  0.0583
18944TIP3   OH278322   2.309   1.992  12.732 -0.1299  0.7614 -0.3514
18944TIP3    H178323   2.359   1.911  12.739 -0.7932  0.4413  1.2197
18944TIP3    H278324   2.229   1.967  12.686 -0.6456  0.3260  0.7323
18945TIP3   OH278325   5.575   4.392   1.749 -0.0212 -0.0636 -0.1230
18945TIP3    H178326   5.588   4.446   1.827  2.1197 -0.0780 -0.4140
18945TIP3    H278327   5.541   4.309   1.783  0.9758 -0.1056  0.8357
18946TIP3   OH278328   1.705   3.921   4.318 -0.0026  0.0533  0.0736
18946TIP3    H178329   1.768   3.849   4.306 -0.7033 -0.4801 -0.5049
18946TIP3    H278330   1.625   3.878   4.347 -0.1750  0.7092  0.5811
18947TIP3   OH278331   1.077   2.792  15.572 -0.1332 -0.2799  0.4197
18947TIP3    H178332   1.097   2.734  15.645  0.0251  1.2198  1.6065
18947TIP3    H278333   1.152   2.851  15.566 -1.1588  1.0963  0.5728
18948TIP3   OH278334   3.793   3.601   4.708 -0.0606 -0.2838 -0.0834
18948TIP3    H178335   3.831   3.608   4.796  1.8615 -0.2956 -0.8661
18948TIP3    H278336   3.816   3.513   4.680 -1.7069 -0.7127 -0.1743
18949TIP3   OH278337   6.013   4.414  15.285  0.1886 -0.5412  0.0361
18949TIP3    H178338   6.049   4.456  15.207 -0.2156  0.6197  0.4485
18949TIP3    H278339   6.067   4.447  15.357 -1.0396  0.4556  0.5432
18950TIP3   OH278340   2.366   1.713  13.166  0.5423  0.5130  0.1128
18950TIP3    H178341   2.322   1.656  13.229 -0.1329 -0.5821 -1.2936
18950TIP3    H278342   2.416   1.775  13.220 -0.0240 -0.3664  1.7016
18951TIP3   OH278343   4.152   6.246  11.276 -0.5119  0.1693 -0.3896
18951TIP3    H178344   4.151   6.278  11.366  0.0576 -1.1351  0.1098
18951TIP3    H278345   4.202   6.311  11.227 -1.6299  1.3791  0.0209
18952TIP3   OH278346   6.527   5.115  10.977  0.7075 -0.2863  0.6341
18952TIP3    H178347   6.521   5.182  10.909  0.5472 -0.4749  0.4653
18952TIP3    H278348   6.476   5.151  11.050 -1.9918 -1.5202 -0.5065
18953TIP3   OH278349   3.577   6.827  11.768 -0.5017 -0.2151  0.0612
18953TIP3    H178350   3.546   6.873  11.846 -0.2576  1.3753 -0.7482
18953TIP3    H278351   3.498   6.809  11.717 -0.4646  0.7741 -0.3732
18954TIP3   OH278352   4.076   5.273   2.441 -0.0833 -0.0675  0.4025
18954TIP3    H178353   4.052   5.365   2.455  0.8075  0.2093  0.2374
18954TIP3    H278354   4.049   5.255   2.351  2.3975  1.0016 -0.6880
18955TIP3   OH278355   5.719   1.441  14.027 -0.5345  0.1753 -0.2234
18955TIP3    H178356   5.696   1.374  13.963 -0.0809 -0.9650  0.7712
18955TIP3    H278357   5.653   1.432  14.096  0.9448 -0.9862  1.1145
18956TIP3   OH278358   0.437   5.924  14.200  0.4958  0.2222  0.2276
18956TIP3    H178359   0.393   5.934  14.115 -0.7099  2.8093  1.0369
18956TIP3    H278360   0.456   6.014  14.227  0.8008 -0.5312  2.7279
18957TIP3   OH278361   0.412   0.813   3.059 -0.4327  0.1002 -0.5608
18957TIP3    H178362   0.387   0.883   2.999  0.5884 -0.6546 -1.9273
18957TIP3    H278363   0.439   0.859   3.139 -0.8535  1.1945 -1.0230
18958TIP3   OH278364   6.395   5.920  13.168  0.2932 -0.0226  0.4360
18958TIP3    H178365   6.346   5.868  13.105  1.2878 -0.1142 -0.2988
18958TIP3    H278366   6.429   5.857  13.231  2.0146 -0.4080 -0.7986
18959TIP3   OH278367   3.652   3.257  15.367  0.5376 -0.4437  0.1177
18959TIP3    H178368   3.731   3.222  15.324  0.1597  0.4481 -1.3535
18959TIP3    H278369   3.681   3.339  15.406  0.5066 -0.4894  0.2366
18960TIP3   OH278370   2.152   4.582  15.722  0.1834  0.1181  0.1918
18960TIP3    H178371   2.078   4.537  15.682  0.5567  0.3363 -0.7744
18960TIP3    H278372   2.155   4.549  15.811  0.3768 -1.7015 -0.4505
18961TIP3   OH278373   0.262   1.736  16.965 -0.3508  0.4098 -0.1001
18961TIP3    H178374   0.312   1.815  16.948 -1.1078  0.9806  0.2453
18961TIP3    H278375   0.290   1.709  17.053  0.2830 -0.0015 -0.4252
18962TIP3   OH278376   4.007   6.342   0.371  0.1399 -0.3159  0.1733
18962TIP3    H178377   4.081   6.391   0.336 -0.5013  1.1051  0.6987
18962TIP3    H278378   4.015   6.352   0.466 -0.2364 -0.8960  0.2694
18963TIP3   OH278379   2.536   4.805  15.066 -0.6949  0.5027 -0.0109
18963TIP3    H178380   2.487   4.883  15.092 -0.6163  0.1525  1.2483
18963TIP3    H278381   2.549   4.815  14.971 -2.0348  1.2406 -0.1340
18964TIP3   OH278382   3.823   3.486  14.589 -0.2281  0.4295  0.2048
18964TIP3    H178383   3.766   3.498  14.665 -0.5717  2.5131 -0.3220
18964TIP3    H278384   3.766   3.499  14.513  0.2802 -0.8040 -0.4316
18965TIP3   OH278385   4.302   5.177  16.976  0.5503 -0.0819  0.3228
18965TIP3    H178386   4.358   5.101  16.995  1.4668 -0.1093 -2.1107
18965TIP3    H278387   4.230   5.141  16.924  0.1598  0.4829  0.4698
18966TIP3   OH278388   6.584   1.470  16.875  0.0036 -0.3275 -0.0801
18966TIP3    H178389   6.502   1.519  16.862  0.1599 -0.0581 -0.0690
18966TIP3    H278390   6.650   1.538  16.886  0.6548 -0.4846 -2.5247
18967TIP3   OH278391   1.230   5.893  16.730  0.2890 -0.2819  0.4326
18967TIP3    H178392   1.230   5.835  16.806  0.0493  0.7798  1.2622
18967TIP3    H278393   1.229   5.981  16.767  0.6534  0.2594 -0.8038
18968TIP3   OH278394   2.733   6.060   5.017  0.1963 -0.6092 -0.1105
18968TIP3    H178395   2.759   6.049   5.109  0.7188 -2.6785 -0.4738
18968TIP3    H278396   2.639   6.079   5.021  0.1534 -0.9863  0.8350
18969TIP3   OH278397   1.891   2.760   0.836 -0.0239  0.0556 -0.8611
18969TIP3    H178398   1.896   2.680   0.784 -0.5491  1.7469 -3.7953
18969TIP3    H278399   1.962   2.815   0.802 -1.0622  1.6475 -0.5725
18970TIP3   OH278400   3.877   1.597   0.976  0.9054  0.0130 -0.0523
18970TIP3    H178401   3.864   1.655   0.901  0.5466 -1.3460 -1.0965
18970TIP3    H278402   3.798   1.607   1.028  0.9144  0.5755 -0.1469
18971TIP3   OH278403   0.010   3.357   5.024  0.2400  0.4891  0.0426
18971TIP3    H178404   0.082   3.420   5.031  0.2314  0.4929  0.1045
18971TIP3    H278405  -0.050   3.382   5.094  0.4866  0.1018  0.4031
18972TIP3   OH278406   6.511   0.765  15.826 -0.5925  0.0077 -0.0333
18972TIP3    H178407   6.585   0.823  15.804 -0.3813  0.0892  0.8643
18972TIP3    H278408   6.468   0.808  15.900  1.2083 -2.2871  2.5253
18973TIP3   OH278409   0.696   1.125   0.552 -0.2186 -0.5125 -0.1871
18973TIP3    H178410   0.772   1.068   0.538 -0.9182 -1.3754 -0.5990
18973TIP3    H278411   0.690   1.134   0.647 -0.7451 -2.0676 -0.0460
18974TIP3   OH278412   5.831   5.922  13.316 -0.0742  0.2656  0.0199
18974TIP3    H178413   5.912   5.934  13.265  0.6489 -1.2293  0.7565
18974TIP3    H278414   5.832   5.994  13.379  1.7742 -0.8332  1.3439
18975TIP3   OH278415   1.211   6.201   3.148 -0.1578 -0.2145  0.0954
18975TIP3    H178416   1.157   6.246   3.214  1.2607 -0.1734  1.2841
18975TIP3    H278417   1.150   6.178   3.078 -1.7069 -0.1692  1.3859
18976TIP3   OH278418   6.540   5.160   1.851  0.4712  0.0465 -0.1274
18976TIP3    H178419   6.577   5.149   1.763 -1.0591  0.2468 -0.8202
18976TIP3    H278420   6.505   5.249   1.851 -1.4618 -0.6761 -0.0821
18977TIP3   OH278421   6.761   4.426   3.311  0.1361 -0.1236  0.6892
18977TIP3    H178422   6.682   4.480   3.308  0.3050  0.1311  0.8979
18977TIP3    H278423   6.766   4.387   3.223 -0.9031 -1.1192  1.0519
18978TIP3   OH278424   0.970   1.364  12.311 -0.1906 -0.2909 -0.1937
18978TIP3    H178425   0.921   1.437  12.350 -0.5686 -1.3490  1.4499
18978TIP3    H278426   1.058   1.371  12.349 -0.5175 -1.2439  0.8033
18979TIP3   OH278427   2.887   3.564   4.385 -0.0393  0.0063  0.3899
18979TIP3    H178428   2.899   3.631   4.317 -0.1311  1.0983  1.4123
18979TIP3    H278429   2.821   3.602   4.444 -2.3582 -2.2329 -0.5492
18980TIP3   OH278430   3.099   6.769   1.725  0.9038 -0.6673  0.0814
18980TIP3    H178431   3.139   6.691   1.687  0.2122 -0.7209 -0.5692
18980TIP3    H278432   3.166   6.837   1.717 -0.1813  0.2323 -4.3019
18981TIP3   OH278433   3.488   2.368  12.457  0.6149  0.0736  0.0152
18981TIP3    H178434   3.400   2.353  12.421 -0.0662 -1.1388  2.0271
18981TIP3    H278435   3.474   2.431  12.528  1.3918 -0.0148  0.2549
18982TIP3   OH278436   6.460   0.334   3.511 -0.0636 -0.1641 -0.0934
18982TIP3    H178437   6.446   0.427   3.494 -0.8881 -0.1091  0.7860
18982TIP3    H278438   6.384   0.308   3.562  0.3243 -1.2504 -0.0512
18983TIP3   OH278439   4.220   1.547  11.297  0.2826 -0.0892  0.0479
18983TIP3    H178440   4.181   1.467  11.261  1.2108 -0.6969  0.3500
18983TIP3    H278441   4.206   1.613  11.229 -0.7766 -0.4215 -0.0725
18984TIP3   OH278442   3.007   3.257  16.823  0.2139 -0.2278 -0.0391
18984TIP3    H178443   2.919   3.218  16.820  1.3355 -2.9115 -1.6489
18984TIP3    H278444   3.019   3.295  16.736  0.1132  1.5436  0.6874
18985TIP3   OH278445   3.684   0.663   0.261 -0.9099 -0.4908  0.3048
18985TIP3    H178446   3.733   0.704   0.333 -1.3229 -0.5210  0.6053
18985TIP3    H278447   3.635   0.735   0.222 -0.6223 -0.4586 -0.0041
18986TIP3   OH278448   6.693   3.756   3.509 -0.8301  0.5253 -0.0873
18986TIP3    H178449   6.649   3.797   3.435 -0.0812  1.0789 -0.2416
18986TIP3    H278450   6.781   3.737   3.477 -0.6066  0.4541  0.5498
18987TIP3   OH278451   5.790   1.589  11.781 -0.3354  0.0053 -0.0930
18987TIP3    H178452   5.878   1.566  11.751 -1.1247 -0.3677 -2.3433
18987TIP3    H278453   5.735   1.516  11.752 -1.5997  0.9136 -0.0843
18988TIP3   OH278454   2.109   3.742   3.434 -0.2132  0.0313 -0.3820
18988TIP3    H178455   2.102   3.743   3.529  3.3559  1.4739  0.0011
18988TIP3    H278456   2.111   3.648   3.412  0.3719 -0.3383  1.1184
18989TIP3   OH278457   2.807   0.030  16.388 -0.1278 -0.0103 -0.0872
18989TIP3    H178458   2.818  -0.055  16.432 -1.2273 -0.0706  0.1281
18989TIP3    H278459   2.883   0.081  16.415  0.5619 -0.9342 -0.2350
18990TIP3   OH278460   3.059   2.545  11.479  0.5923  0.5461  0.3707
18990TIP3    H178461   3.136   2.516  11.431  0.9616 -4.3833  3.2066
18990TIP3    H278462   3.094   2.595  11.553  1.3030 -1.6095  1.6061
18991TIP3   OH278463   3.351   2.744   4.338  0.3513 -0.1369  0.4746
18991TIP3    H178464   3.271   2.713   4.295 -1.2693  3.8115  0.2489
18991TIP3    H278465   3.422   2.713   4.282 -1.4161  0.8024 -2.4937
18992TIP3   OH278466   4.833   1.296   5.601  0.4292 -0.2748 -0.4723
18992TIP3    H178467   4.859   1.387   5.615 -0.6340  0.3299 -2.1732
18992TIP3    H278468   4.885   1.247   5.665  0.4869  1.5747  1.0029
18993TIP3   OH278469   4.135   2.342   0.583 -0.1645  0.1021 -0.0273
18993TIP3    H178470   4.116   2.425   0.627  0.5858  0.7133 -0.8264
18993TIP3    H278471   4.229   2.328   0.598 -0.1009 -0.1552 -0.6301
18994TIP3   OH278472   5.971   3.409   2.566 -0.0455 -0.1677  0.4994
18994TIP3    H178473   5.985   3.503   2.575  1.5497 -0.0657 -2.1200
18994TIP3    H278474   5.895   3.401   2.507  0.2108 -0.5028  0.2106
18995TIP3   OH278475   6.096   3.441   2.089  0.8545 -0.4260 -0.5128
18995TIP3    H178476   6.028   3.503   2.065  1.3871  0.9960  1.3984
18995TIP3    H278477   6.175   3.495   2.099  1.5225 -1.5357  0.4163
18996TIP3   OH278478   0.487   4.641   3.021 -0.4570  0.5529  0.1746
18996TIP3    H178479   0.395   4.618   3.009 -0.1866 -0.1707 -0.5712
18996TIP3    H278480   0.488   4.737   3.020 -0.9668  0.5927 -1.9606
18997TIP3   OH278481   0.681   5.720  13.676  0.2745 -0.5762  0.2638
18997TIP3    H178482   0.640   5.747  13.594  0.8319 -0.2479  0.0839
18997TIP3    H278483   0.608   5.706  13.736 -0.1548 -1.0613 -0.3560
18998TIP3   OH278484   5.867   4.175   5.345  0.0634 -0.2745  0.3039
18998TIP3    H178485   5.928   4.101   5.352 -0.8895 -1.0039  1.3716
18998TIP3    H278486   5.826   4.180   5.431  1.2099  2.5475  0.7969
18999TIP3   OH278487   4.587   4.514   4.620 -0.2461  0.3092  0.5724
18999TIP3    H178488   4.512   4.495   4.563  0.2056  0.0624  0.0472
18999TIP3    H278489   4.623   4.428   4.641  0.3981  0.4658  0.1208
19000TIP3   OH278490   4.135   1.981   0.918 -0.1751  0.2969 -0.4635
19000TIP3    H178491   4.154   1.898   0.874 -0.4448  0.1559 -0.3163
19000TIP3    H278492   4.101   2.038   0.849  1.8850  0.9537 -0.9965
19001TIP3   OH278493   6.013   5.986  15.387 -0.4157 -0.4771  0.1848
19001TIP3    H178494   6.086   5.938  15.426  0.0588 -0.2897 -0.4588
19001TIP3    H278495   5.964   6.021  15.462 -0.9256 -2.1567  0.6792
19002TIP3   OH278496   3.386   3.312  11.533 -0.4410 -0.7636  0.4717
19002TIP3    H178497   3.332   3.242  11.495 -1.0854  0.3309 -0.6941
19002TIP3    H278498   3.448   3.334  11.464 -1.3751  0.9864  0.1352
19003TIP3   OH278499   5.496   1.608  16.426  0.1880 -0.1659 -0.3369
19003TIP3    H178500   5.533   1.520  16.428 -0.2824 -0.4180  2.6646
19003TIP3    H278501   5.423   1.605  16.488 -1.1301  1.8521 -1.6545
19004TIP3   OH278502   4.667   0.007  14.938  0.7337  0.5754  0.0747
19004TIP3    H178503   4.585  -0.036  14.959  1.3483  0.0869  1.5299
19004TIP3    H278504   4.658   0.096  14.973  1.3038  0.1215  1.4323
19005TIP3   OH278505   3.433   0.715   2.284  0.1372  1.0149  0.4564
19005TIP3    H178506   3.469   0.669   2.208  0.5196 -0.9014  1.7539
19005TIP3    H278507   3.394   0.795   2.247 -0.7976 -0.4488 -1.9270
19006TIP3   OH278508   6.327   3.662  10.475  0.0607 -0.3550  0.0287
19006TIP3    H178509   6.365   3.750  10.468 -0.1115 -0.3315 -0.5971
19006TIP3    H278510   6.239   3.671  10.440 -0.0493 -0.7213  0.2095
19007TIP3   OH278511   6.093   2.079   2.169  0.2449  0.2502  0.1566
19007TIP3    H178512   6.057   1.990   2.168  0.1858  0.2540  1.2308
19007TIP3    H278513   6.098   2.102   2.262 -0.7945  1.7963 -0.1418
19008TIP3   OH278514   4.463   4.618   5.104  0.6177 -0.1915  0.1049
19008TIP3    H178515   4.427   4.562   5.172  2.0769 -0.8225  0.4133
19008TIP3    H278516   4.468   4.705   5.144  1.9346 -0.6546  1.0380
19009TIP3   OH278517   4.538   6.151  15.885  0.2129 -0.5095  0.1093
19009TIP3    H178518   4.499   6.064  15.883 -2.3519  0.4043  2.5691
19009TIP3    H278519   4.515   6.190  15.801 -1.5208 -1.1070  0.2712
19010TIP3   OH278520   5.956   3.916   3.829 -0.3230  0.0665 -0.8594
19010TIP3    H178521   5.931   3.884   3.915 -0.4299 -0.4167 -1.0689
19010TIP3    H278522   5.875   3.919   3.779 -0.0687 -0.8970 -1.3408
19011TIP3   OH278523   5.522   3.476  15.122  0.2421  0.3607 -0.4007
19011TIP3    H178524   5.529   3.418  15.198 -1.5352  1.1551  0.4326
19011TIP3    H278525   5.472   3.425  15.058  0.2967  0.2893 -0.3869
19012TIP3   OH278526   5.240   3.772   2.097  0.1851  0.0304  0.3369
19012TIP3    H178527   5.328   3.745   2.121  0.5669  0.0811 -0.9164
19012TIP3    H278528   5.192   3.690   2.084  0.2486 -0.0066  0.3376
19013TIP3   OH278529   3.556   3.297  12.374  0.1900 -0.2189  0.1868
19013TIP3    H178530   3.575   3.210  12.338 -1.9294 -1.0941  1.0385
19013TIP3    H278531   3.497   3.281  12.447  0.3627  1.9095  0.8777
19014TIP3   OH278532   0.230   3.569  15.754 -1.2496 -0.4885 -0.3462
19014TIP3    H178533   0.325   3.580  15.743 -1.0813 -0.8267  0.6891
19014TIP3    H278534   0.206   3.632  15.822 -1.3561 -2.0124  1.0659
19015TIP3   OH278535   6.650   0.610   1.442 -0.4745 -0.2149 -0.1464
19015TIP3    H178536   6.603   0.655   1.371  0.7192  0.4020 -0.5712
19015TIP3    H278537   6.594   0.535   1.463 -1.7866  0.6339 -0.4335
19016TIP3   OH278538   5.095   6.147  10.884  0.3397  0.1044 -0.0384
19016TIP3    H178539   5.112   6.239  10.902  0.0334 -0.1242  1.6253
19016TIP3    H278540   5.014   6.146  10.833 -0.8002  0.7090  1.6709
19017TIP3   OH278541   4.447   0.173   0.315 -0.0638  0.6068 -0.4155
19017TIP3    H178542   4.527   0.165   0.262  0.3617 -1.4004  0.4277
19017TIP3    H278543   4.464   0.248   0.371  1.4345  0.0159 -0.0041
19018TIP3   OH278544   0.932   2.964   6.752  0.0211  0.2203  0.0070
19018TIP3    H178545   0.949   3.056   6.733  3.0179 -0.4824 -1.3468
19018TIP3    H278546   0.923   2.923   6.666 -1.0291 -0.8078  0.5743
19019TIP3   OH278547   0.649   1.925  12.639  0.5718  0.1134  0.1075
19019TIP3    H178548   0.615   1.890  12.721 -1.8976  0.7891 -0.5493
19019TIP3    H278549   0.666   1.847  12.585  0.1703 -0.2627  0.5110
19020TIP3   OH278550   4.185   5.530   4.550 -0.2243  0.5200  0.2305
19020TIP3    H178551   4.220   5.443   4.569 -0.8553 -0.0118 -0.8732
19020TIP3    H278552   4.185   5.576   4.634  0.7680 -0.3012  0.6986
19021TIP3   OH278553   3.025   4.151   4.282 -0.1677  0.1419 -0.0021
19021TIP3    H178554   2.935   4.158   4.249  0.2326  1.0218 -0.9515
19021TIP3    H278555   3.020   4.184   4.372 -0.7128  0.5973 -0.1925
19022TIP3   OH278556   3.308   5.146  10.590  0.0631  0.1571 -0.1559
19022TIP3    H178557   3.342   5.219  10.641 -0.1135  1.2509 -1.5647
19022TIP3    H278558   3.367   5.139  10.516  0.3032 -1.4002  0.1397
19023TIP3   OH278559   4.558   2.318   5.456  0.2938 -0.0674  0.6201
19023TIP3    H178560   4.638   2.269   5.478  0.9385  0.7556  0.1770
19023TIP3    H278561   4.576   2.407   5.487 -0.0480  0.3607 -0.3859
19024TIP3   OH278562   3.702   5.030  16.361  0.5276 -0.0929  0.5962
19024TIP3    H178563   3.746   5.103  16.318  1.6189 -1.1798 -0.1867
19024TIP3    H278564   3.611   5.038  16.335  1.0234 -0.2932 -1.3719
19025TIP3   OH278565   4.452   6.313   4.559 -0.1466 -0.0678 -0.1882
19025TIP3    H178566   4.359   6.308   4.540 -0.4595 -2.1391  1.5630
19025TIP3    H278567   4.485   6.224   4.541  0.9111 -0.1406  1.8145
19026TIP3   OH278568   4.903   3.444   4.055 -0.2391  0.2587 -0.2237
19026TIP3    H178569   4.897   3.440   4.151 -0.2369  0.0392 -0.2315
19026TIP3    H278570   4.929   3.355   4.030 -1.9700 -0.1876 -0.5625
19027TIP3   OH278571   0.831   2.993  15.242 -0.7384  0.2218 -0.3448
19027TIP3    H178572   0.765   2.962  15.303 -0.4542  0.4070  0.0564
19027TIP3    H278573   0.781   3.019  15.164 -0.9851 -1.1805 -0.6761
19028TIP3   OH278574   2.467   0.049  11.604  0.1689  0.3933 -0.3462
19028TIP3    H178575   2.518  -0.032  11.596 -0.8079 -0.3764  0.8831
19028TIP3    H278576   2.430   0.046  11.692 -0.6073  1.7672 -0.5946
19029TIP3   OH278577   1.047   1.352   3.971 -0.6513 -0.2030 -0.2775
19029TIP3    H178578   1.142   1.347   3.961 -0.5803 -1.7560  0.7252
19029TIP3    H278579   1.034   1.401   4.052 -0.7487  0.8002 -0.8917
19030TIP3   OH278580   4.805   2.061  14.631  0.4751 -0.7938  0.4663
19030TIP3    H178581   4.866   2.128  14.601 -0.6664 -0.2105 -0.6445
19030TIP3    H278582   4.846   1.978  14.604 -0.7832 -0.3147 -3.6157
19031TIP3   OH278583   2.073   1.130  14.938 -0.3935  0.2250  0.0943
19031TIP3    H178584   2.005   1.163  14.998  1.2423  1.4746  1.3701
19031TIP3    H278585   2.087   1.040  14.966 -1.4654 -0.0375 -0.1545
19032TIP3   OH278586   4.896   5.835   6.585 -0.4135 -0.0611  0.7056
19032TIP3    H178587   4.946   5.821   6.666  1.2705  0.2333 -0.2458
19032TIP3    H278588   4.833   5.904   6.607  0.3978  0.4122  1.6042
19033TIP3   OH278589   2.196   0.657   5.363  0.2882 -0.5540  0.2966
19033TIP3    H178590   2.120   0.700   5.325  0.2747  0.1904  1.1197
19033TIP3    H278591   2.270   0.684   5.308  0.7503  2.8649  2.3017
19034TIP3   OH278592   4.828   1.637   0.819 -0.0095 -0.8109  0.1495
19034TIP3    H178593   4.850   1.567   0.758 -1.3932  0.8133 -2.3988
19034TIP3    H278594   4.895   1.704   0.805  0.0381 -0.6741  0.9425
19035TIP3   OH278595   5.513   1.070  11.051 -0.2178  0.2218 -0.8732
19035TIP3    H178596   5.576   1.129  11.011  0.1238  0.6252  0.2306
19035TIP3    H278597   5.563   1.025  11.120 -0.8119 -0.3939 -0.8328
19036TIP3   OH278598   3.017   5.044  15.804 -0.2740  0.2480  0.3526
19036TIP3    H178599   2.928   5.068  15.780 -0.0668  1.6346  0.8883
19036TIP3    H278600   3.039   5.102  15.877  0.0256 -2.0615  2.2349
19037TIP3   OH278601   4.111   1.775   2.685 -0.0592 -0.0076  0.1860
19037TIP3    H178602   4.030   1.749   2.641 -0.9424  2.0015  0.5178
19037TIP3    H278603   4.124   1.708   2.752  0.3138 -2.1030 -1.8475
19038TIP3   OH278604   4.601   3.436  15.611  0.2439 -0.3069  0.0986
19038TIP3    H178605   4.683   3.389  15.603  1.7867  2.1401  0.4655
19038TIP3    H278606   4.589   3.448  15.705  0.1718  0.4647 -0.0024
19039TIP3   OH278607   1.468   1.163   4.422  0.0902  0.4935 -0.3753
19039TIP3    H178608   1.479   1.088   4.363 -1.0236  0.5955 -0.7378
19039TIP3    H278609   1.540   1.221   4.400  1.6308 -0.9442  0.6773
19040TIP3   OH278610   6.176   0.190   4.822  0.3333 -0.0748  0.5098
19040TIP3    H178611   6.271   0.189   4.831  0.1919 -1.3847  2.1060
19040TIP3    H278612   6.159   0.139   4.743  0.9172 -0.1389  0.4194
19041TIP3   OH278613   5.281   4.701  11.623  0.0879  0.0964 -0.4215
19041TIP3    H178614   5.213   4.675  11.561  2.0386  1.1131 -3.1965
19041TIP3    H278615   5.326   4.619  11.646  0.2084 -0.1476 -1.5000
19042TIP3   OH278616   5.664   2.956  15.000  0.2397 -0.7202  0.2784
19042TIP3    H178617   5.748   2.948  14.955 -0.0751 -0.1630 -0.4299
19042TIP3    H278618   5.601   2.975  14.931 -0.5482 -1.5277  0.7479
19043TIP3   OH278619   4.653   3.668   6.185 -0.0222  0.3795  0.2036
19043TIP3    H178620   4.718   3.600   6.164 -0.2840 -0.2532  1.3288
19043TIP3    H278621   4.570   3.621   6.187 -0.3979  1.0115 -0.3304
19044TIP3   OH278622   6.127   5.496   5.514  0.1187  0.0094  0.1649
19044TIP3    H178623   6.197   5.461   5.569  0.0225  1.8231  1.4970
19044TIP3    H278624   6.046   5.464   5.555  0.0880  0.3202  0.3511
19045TIP3   OH278625   4.019   1.638  16.843  0.1243  0.4688  0.4131
19045TIP3    H178626   4.097   1.584  16.828  0.7026  1.4082 -0.0044
19045TIP3    H278627   4.051   1.713  16.894 -0.4572  0.9882  0.0183
19046TIP3   OH278628   1.927   3.859  13.868 -0.0042  0.2593 -0.2730
19046TIP3    H178629   1.868   3.851  13.943 -0.4069 -0.2676 -0.6409
19046TIP3    H278630   1.949   3.769  13.845  2.7797  0.4337  1.2758
19047TIP3   OH278631   4.085   4.426   1.181  0.1983 -0.5606  0.1776
19047TIP3    H178632   4.061   4.519   1.179  1.5070 -0.1942  0.6221
19047TIP3    H278633   4.141   4.417   1.258  4.0972 -0.6554 -2.3663
19048TIP3   OH278634   4.078   0.588  13.885 -0.4199  0.1864 -0.4494
19048TIP3    H178635   4.153   0.528  13.886  0.1150  0.7985  1.7722
19048TIP3    H278636   4.012   0.542  13.834  0.0924 -2.1611  0.8318
19049TIP3   OH278637   2.402   6.629  16.115 -0.1461  0.2098 -0.2519
19049TIP3    H178638   2.366   6.544  16.143  0.3542  0.2313  0.5029
19049TIP3    H278639   2.492   6.609  16.088 -0.4088  0.3092 -1.2289
19050TIP3   OH278640   0.315   2.246   1.130 -0.1019 -0.3622 -0.1384
19050TIP3    H178641   0.240   2.281   1.176  0.6049  1.0444  0.0007
19050TIP3    H278642   0.390   2.269   1.184  0.4637 -1.6568 -0.3175
19051TIP3   OH278643   5.573   0.921  11.762  0.1465 -1.1454 -0.0160
19051TIP3    H178644   5.604   0.895  11.675  1.1789 -1.2388  0.3626
19051TIP3    H278645   5.485   0.885  11.768  0.0979 -1.2056 -0.9963
19052TIP3   OH278646   1.134   4.599   1.000  0.1476  0.1748  0.2616
19052TIP3    H178647   1.178   4.676   1.037  2.3913 -1.1367  0.5128
19052TIP3    H278648   1.122   4.541   1.075 -2.2554  0.5366  0.2229
19053TIP3   OH278649   0.188   2.711  14.924  0.0049  0.2055 -0.5710
19053TIP3    H178650   0.223   2.743  15.007 -0.3411 -3.1807  1.0591
19053TIP3    H278651   0.260   2.662  14.885 -0.9381 -1.4494 -0.3190
19054TIP3   OH278652   5.019   0.709   2.091 -0.2943  0.0757 -0.0109
19054TIP3    H178653   5.048   0.784   2.143  0.2252 -0.2908  0.2405
19054TIP3    H278654   5.012   0.743   2.001  2.2778 -0.1150 -0.3621
19055TIP3   OH278655   4.054   0.400   4.869  0.1013  0.0783  0.0431
19055TIP3    H178656   3.982   0.338   4.878 -0.2463  0.5596  0.6226
19055TIP3    H278657   4.102   0.369   4.792  0.1454 -1.1228  0.5229
19056TIP3   OH278658   5.878   1.255  15.378 -0.0780 -0.4879 -0.3163
19056TIP3    H178659   5.867   1.294  15.291  0.2218 -0.3022 -0.2744
19056TIP3    H278660   5.970   1.269  15.399 -0.4490  0.7594  0.6393
19057TIP3   OH278661   2.246   4.481   2.886  0.1297 -0.2971  0.2643
19057TIP3    H178662   2.291   4.484   2.971 -0.2768 -2.3067  0.6059
19057TIP3    H278663   2.153   4.478   2.908  0.0452 -1.8132 -0.1684
19058TIP3   OH278664   0.389   1.636  11.260 -0.1623 -0.2441  0.0466
19058TIP3    H178665   0.337   1.580  11.202 -0.0942 -2.1318  1.6697
19058TIP3    H278666   0.368   1.725  11.233 -0.5555 -1.0202 -2.4369
19059TIP3   OH278667   3.985   5.187   4.099 -0.1193  0.0116 -0.0330
19059TIP3    H178668   3.997   5.111   4.157 -1.9802 -0.9584 -0.8090
19059TIP3    H278669   3.990   5.263   4.157  1.1327 -0.7322  0.8776
19060TIP3   OH278670   1.539   2.463  13.796 -0.0172  0.3862 -0.0122
19060TIP3    H178671   1.572   2.408  13.725  0.1317 -0.0550  0.3904
19060TIP3    H278672   1.447   2.437  13.805  0.2881 -0.5017  0.8041
19061TIP3   OH278673   0.299   6.118   4.528 -0.4379  0.0196 -0.3277
19061TIP3    H178674   0.383   6.073   4.522 -1.1678 -1.3675 -0.5176
19061TIP3    H278675   0.299   6.181   4.456  0.4815  0.1320 -0.2362
19062TIP3   OH278676   6.085   2.583   1.866 -0.4461 -0.1568 -0.1951
19062TIP3    H178677   6.101   2.588   1.960 -0.3940  3.2774 -0.2915
19062TIP3    H278678   6.140   2.510   1.837  0.5854 -0.4379  2.1983
19063TIP3   OH278679   4.935   4.514   6.579  0.3583 -0.1607 -0.1335
19063TIP3    H178680   4.888   4.497   6.660 -0.6358 -1.8920 -1.0127
19063TIP3    H278681   4.975   4.600   6.592  0.3578 -0.4508  2.2173
19064TIP3   OH278682   5.511   1.668   3.035  0.0025 -0.4621 -0.3277
19064TIP3    H178683   5.535   1.681   3.127 -0.2832 -1.6580 -0.0672
19064TIP3    H278684   5.415   1.664   3.035  0.0120 -0.8310 -0.6124
19065TIP3   OH278685   0.058   5.432   0.354 -0.0497  0.1634 -0.0172
19065TIP3    H178686   0.141   5.413   0.396 -0.1156  1.1021  0.5894
19065TIP3    H278687  -0.008   5.413   0.421 -0.6524 -3.5801 -1.4343
19066TIP3   OH278688   5.118   5.595  12.876 -0.2337  0.2083 -0.9104
19066TIP3    H178689   5.213   5.599  12.885 -0.3956  0.3915  1.3934
19066TIP3    H278690   5.102   5.513  12.829  1.0385 -0.4875 -0.1946
19067TIP3   OH278691   1.331   3.522  15.667  0.2152  0.6260  0.0069
19067TIP3    H178692   1.285   3.602  15.693  0.1802  1.0815 -1.3429
19067TIP3    H278693   1.294   3.501  15.581  1.0384 -0.2081 -0.1548
19068TIP3   OH278694   5.091   0.798  15.027  0.1283 -0.3113 -0.3633
19068TIP3    H178695   5.084   0.806  15.122 -0.4008 -1.0798 -0.3258
19068TIP3    H278696   5.172   0.843  15.005  0.1529  0.0441  0.4307
19069TIP3   OH278697   2.043   0.257  13.623  0.0051  0.0648 -0.4996
19069TIP3    H178698   2.012   0.176  13.664 -2.6819  1.5032  0.5118
19069TIP3    H278699   2.024   0.245  13.530 -3.0565  0.5494 -0.0231
19070TIP3   OH278700   4.834   0.076  15.251 -0.2652 -0.2053  0.1504
19070TIP3    H178701   4.808  -0.008  15.213 -1.4407 -0.0378  0.5328
19070TIP3    H278702   4.900   0.111  15.191  0.9145 -1.7961  0.4550
19071TIP3   OH278703   3.346   6.439  16.465  1.0153 -0.0171 -0.3433
19071TIP3    H178704   3.306   6.500  16.403  1.9769  0.1036 -0.8581
19071TIP3    H278705   3.279   6.426  16.532  0.8799  1.8047 -0.0836
19072TIP3   OH278706   4.502   3.787   0.077 -0.0581 -0.4419  0.1906
19072TIP3    H178707   4.544   3.873   0.086 -0.3707 -0.2399 -0.1979
19072TIP3    H278708   4.423   3.805   0.026 -0.1669 -0.9511  0.1731
19073TIP3   OH278709   3.589   1.842   5.215 -0.1792 -0.1347 -0.0862
19073TIP3    H178710   3.603   1.922   5.265  1.8834 -0.2634 -0.3782
19073TIP3    H278711   3.639   1.855   5.134 -0.5280 -1.3633 -0.5217
19074TIP3   OH278712   0.132   4.213   0.566  0.6560 -0.2072 -0.6105
19074TIP3    H178713   0.097   4.165   0.642 -0.9033  0.0487 -1.1256
19074TIP3    H278714   0.054   4.236   0.515  1.5846  0.7103 -1.6521
19075TIP3   OH278715   3.419   0.199  10.642  0.2176 -0.2374 -0.1175
19075TIP3    H178716   3.486   0.202  10.575  0.3456 -1.9043 -0.0899
19075TIP3    H278717   3.403   0.291  10.664 -0.3428  0.4043 -2.9060
19076TIP3   OH278718   1.173   2.831   3.145 -0.0477  0.1258  0.2880
19076TIP3    H178719   1.089   2.839   3.099 -0.3010  1.0479  0.8817
19076TIP3    H278720   1.202   2.921   3.158  1.0958 -0.1871  0.0042
19077TIP3   OH278721   3.160   5.401  16.856 -0.1276 -0.5000  0.0492
19077TIP3    H178722   3.197   5.380  16.942  0.2700  0.6887  0.1924
19077TIP3    H278723   3.231   5.381  16.794 -0.2642 -0.9561  0.0421
19078TIP3   OH278724   5.201   3.317   5.400 -0.0359 -0.1799  0.3318
19078TIP3    H178725   5.284   3.277   5.375  0.5825  1.2092  0.0443
19078TIP3    H278726   5.134   3.255   5.371  0.8947 -2.2662  2.2537
19079TIP3   OH278727   6.829   2.029  14.189 -0.1389 -0.5828 -0.0970
19079TIP3    H178728   6.742   2.062  14.167 -0.8288 -1.5820  0.9791
19079TIP3    H278729   6.882   2.046  14.111 -0.9587  1.1636 -0.3267
19080TIP3   OH278730   0.175   5.446   2.384  0.1182 -0.3314  0.2323
19080TIP3    H178731   0.219   5.486   2.308  0.2558 -0.7137  0.1035
19080TIP3    H278732   0.150   5.519   2.439 -0.2265 -0.0252 -0.3160
19081TIP3   OH278733   4.755   3.122   4.878 -0.2406 -0.0678  0.1677
19081TIP3    H178734   4.747   3.060   4.806  1.6789 -0.4618  0.2422
19081TIP3    H278735   4.665   3.147   4.898 -0.8943 -0.9174 -1.5102
19082TIP3   OH278736   2.831   5.579  11.088  0.6524  0.3712 -0.0024
19082TIP3    H178737   2.887   5.652  11.062  0.4832  0.0282 -1.4440
19082TIP3    H278738   2.744   5.603  11.058  0.4164 -0.0109  0.3648
19083TIP3   OH278739   6.633   4.043   0.720  0.6112 -0.1169 -0.1794
19083TIP3    H178740   6.605   4.122   0.767  1.4193  0.2021 -0.2283
19083TIP3    H278741   6.566   4.030   0.653  0.5825  0.6443 -0.3006
19084TIP3   OH278742   1.273   0.700   3.042 -0.6140 -0.0566  0.6523
19084TIP3    H178743   1.222   0.664   3.115  0.0220 -1.1871  0.5573
19084TIP3    H278744   1.286   0.625   2.983 -0.0912  0.5652 -0.0338
19085TIP3   OH278745   5.410   0.058   1.998  0.2341 -0.6359  0.9539
19085TIP3    H178746   5.428   0.150   2.017 -0.4024 -0.1389 -0.6641
19085TIP3    H278747   5.314   0.053   1.997  0.2663 -1.1384  0.2501
19086TIP3   OH278748   0.370   3.636  10.542  0.1437 -0.0788  0.3087
19086TIP3    H178749   0.322   3.661  10.463  1.3134  1.9453  0.1666
19086TIP3    H278750   0.411   3.553  10.520 -2.5258 -1.4798  0.1539
19087TIP3   OH278751   5.480   1.679   4.331  0.2078  0.3520  0.3601
19087TIP3    H178752   5.400   1.631   4.354 -0.1093  0.7529  0.1090
19087TIP3    H278753   5.531   1.616   4.280  0.4236 -0.1771  1.2047
19088TIP3   OH278754   5.083   6.822   5.636  0.1882 -0.3021  0.2686
19088TIP3    H178755   5.009   6.863   5.591  0.5156 -2.4581 -2.5452
19088TIP3    H278756   5.160   6.854   5.589  0.7502 -0.8287  0.8131
19089TIP3   OH278757   6.854   0.784  14.441 -0.3856 -0.5682  0.1671
19089TIP3    H178758   6.846   0.771  14.347  1.3820  0.3872 -0.1483
19089TIP3    H278759   6.810   0.866  14.459  1.2804  0.4644 -0.2475
19090TIP3   OH278760   1.958   2.883   5.270  0.2793  0.1515  0.2902
19090TIP3    H178761   1.896   2.931   5.325  0.8648  0.1052  1.0118
19090TIP3    H278762   2.014   2.951   5.232 -1.8247  0.4766 -2.5417
19091TIP3   OH278763   1.082   0.087  13.216  0.1672  1.1527  0.5398
19091TIP3    H178764   1.092   0.036  13.135 -2.1660 -2.0851  2.0666
19091TIP3    H278765   0.996   0.128  13.208  0.2093  1.3566  1.1076
19092TIP3   OH278766   6.273   4.107   2.712  0.9185  0.2844 -0.1137
19092TIP3    H178767   6.350   4.060   2.745  0.3551 -1.1976 -0.8148
19092TIP3    H278768   6.213   4.111   2.786  1.5711  1.3019  0.3900
19093TIP3   OH278769   1.747   6.304  13.275 -0.5958 -0.4095 -0.7087
19093TIP3    H178770   1.712   6.369  13.214 -1.3683 -1.3311 -1.2610
19093TIP3    H278771   1.763   6.353  13.355 -2.4825  0.2129 -0.6592
19094TIP3   OH278772   2.186   4.967  12.977  0.5893  0.8550  0.1703
19094TIP3    H178773   2.257   4.950  13.039  0.5413  0.1015  0.0306
19094TIP3    H278774   2.227   4.958  12.891 -0.1338 -2.0540  0.0156
19095TIP3   OH278775   4.722   5.114   1.862 -0.1837  0.0611 -0.3018
19095TIP3    H178776   4.774   5.038   1.836 -0.9950  0.0411 -2.0557
19095TIP3    H278777   4.638   5.078   1.889 -0.2435  0.2706 -0.2037
19096TIP3   OH278778   2.243   6.290   5.386 -0.6323  0.3854  0.4252
19096TIP3    H178779   2.260   6.225   5.454 -1.0434  0.8622  0.9840
19096TIP3    H278780   2.205   6.240   5.314 -1.5511  0.1002  1.0962
19097TIP3   OH278781   1.524   2.297   0.169  0.2914  0.0937  0.4724
19097TIP3    H178782   1.591   2.361   0.192 -0.1017  0.9114 -0.5616
19097TIP3    H278783   1.571   2.228   0.122  0.5613  0.1332  0.6831
19098TIP3   OH278784   2.513   6.783  16.663  0.8918  0.1302 -0.8183
19098TIP3    H178785   2.561   6.776  16.745  0.6339  2.4597 -0.3953
19098TIP3    H278786   2.426   6.814  16.688  0.4982 -0.0266 -1.9106
19099TIP3   OH278787   4.949   1.423   0.695  0.6698 -0.4793 -0.0801
19099TIP3    H178788   4.956   1.421   0.599  0.8180  0.0839 -0.0819
19099TIP3    H278789   4.937   1.331   0.720  4.1972 -1.1612 -0.3456
19100TIP3   OH278790   0.015   6.005  11.671  0.1081 -0.3720  0.3169
19100TIP3    H178791   0.109   6.003  11.657  0.1410  1.2411  0.1586
19100TIP3    H278792  -0.022   5.985  11.585  0.3205  1.0999 -0.1347
19101TIP3   OH278793   6.269   2.377  13.791 -0.1449 -0.4890  0.0339
19101TIP3    H178794   6.281   2.356  13.884 -0.5686  0.6811  0.3695
19101TIP3    H278795   6.223   2.301  13.755  1.4197 -1.6719  0.4026
19102TIP3   OH278796   5.069   3.548   2.044 -0.1554 -0.2021  0.1225
19102TIP3    H178797   5.109   3.462   2.029 -0.4834 -0.4330  0.5519
19102TIP3    H278798   5.042   3.578   1.957  0.1585 -0.4309 -0.0568
19103TIP3   OH278799   6.587   5.848  13.996 -0.0562 -0.6861  0.2446
19103TIP3    H178800   6.535   5.802  14.061 -0.4025 -0.5711  0.0556
19103TIP3    H278801   6.619   5.926  14.041 -3.2528  1.3263 -0.6421
19104TIP3   OH278802   2.344   5.534  11.396 -0.4407 -0.1453  0.5656
19104TIP3    H178803   2.368   5.624  11.375 -0.1327 -0.4227 -0.3265
19104TIP3    H278804   2.248   5.536  11.406 -0.5269  0.1432 -0.2334
19105TIP3   OH278805   4.309   1.073  12.640 -0.3573 -0.2257 -0.5656
19105TIP3    H178806   4.312   0.992  12.691  0.9905  1.4033  2.2029
19105TIP3    H278807   4.393   1.076  12.593 -0.4736 -0.5171 -0.7876
19106TIP3   OH278808   6.176   5.770   3.872  0.9441  0.2535 -0.0081
19106TIP3    H178809   6.131   5.686   3.869  1.3610  0.0405 -0.5503
19106TIP3    H278810   6.268   5.748   3.860  0.9756  0.8533 -0.9893
19107TIP3   OH278811   4.553   1.756  13.802  0.8326  0.0990  0.7110
19107TIP3    H178812   4.620   1.812  13.762  1.7697 -0.6689  1.1490
19107TIP3    H278813   4.600   1.676  13.825 -0.7976 -1.5256 -1.3112
19108TIP3   OH278814   4.776   1.520  10.759 -0.0853 -0.2875  0.5986
19108TIP3    H178815   4.718   1.584  10.717  0.4764  0.0973  0.4020
19108TIP3    H278816   4.735   1.435  10.740  1.1309 -0.3336 -2.4539
19109TIP3   OH278817   2.233   4.022   1.661  0.1710 -0.2380  0.0566
19109TIP3    H178818   2.301   4.039   1.727  0.2698 -0.7188  0.0820
19109TIP3    H278819   2.196   4.108   1.643 -0.1685 -0.1593  1.0718
19110TIP3   OH278820   3.367   4.029  11.293  0.2954 -0.1135 -0.2589
19110TIP3    H178821   3.294   3.982  11.253 -0.9240 -0.3783  2.0625
19110TIP3    H278822   3.368   4.114  11.250 -0.9770 -0.3352 -0.7668
19111TIP3   OH278823   5.542   4.642   6.209 -0.2632  0.0438 -0.3650
19111TIP3    H178824   5.602   4.716   6.207 -1.3763  0.9406 -1.9213
19111TIP3    H278825   5.563   4.591   6.131  0.0964 -1.0148  0.3803
19112TIP3   OH278826   0.131   1.142  14.173 -0.7894 -0.0190 -0.3017
19112TIP3    H178827   0.129   1.056  14.130 -0.9312 -0.2293  0.1226
19112TIP3    H278828   0.044   1.152  14.211 -0.0571 -0.7698  1.7399
19113TIP3   OH278829   0.244   4.538   0.929 -0.4691 -0.2978 -0.3273
19113TIP3    H178830   0.332   4.555   0.961 -0.5617  0.7644 -0.6259
19113TIP3    H278831   0.256   4.522   0.835 -0.8452  2.2893 -0.8778
19114TIP3   OH278832   2.416   3.807  11.621 -0.4219  0.7456 -0.1699
19114TIP3    H178833   2.460   3.725  11.640 -0.9675  0.2045 -1.1265
19114TIP3    H278834   2.483   3.874  11.631  1.1198 -0.1783 -3.0640
19115TIP3   OH278835   1.123   2.092  14.307 -0.5299 -0.5454  0.1148
19115TIP3    H178836   1.191   2.025  14.297  1.6041  1.5644 -0.4684
19115TIP3    H278837   1.172   2.175  14.310 -3.0782  1.0445  0.2421
19116TIP3   OH278838   1.116   4.107   1.048 -0.6822  1.2231 -0.4892
19116TIP3    H178839   1.047   4.148   1.101 -3.1932  1.0193 -3.3364
19116TIP3    H278840   1.080   4.103   0.960  2.6681  0.1867 -1.9931
19117TIP3   OH278841   5.452   5.781   4.653  0.6153 -0.0090  0.1366
19117TIP3    H178842   5.518   5.769   4.585  0.6947  0.2902  0.1613
19117TIP3    H278843   5.376   5.732   4.622  1.0209 -0.7930  0.3543
19118TIP3   OH278844   2.685   2.922  10.967  0.3479  0.2677 -0.6149
19118TIP3    H178845   2.697   2.832  10.997  0.0377  0.7154  0.9782
19118TIP3    H278846   2.749   2.973  11.017  0.1162  0.9995 -1.0401
19119TIP3   OH278847   5.590   3.403   1.685  0.2503 -0.0167 -0.4142
19119TIP3    H178848   5.641   3.478   1.653  0.5251  0.2496  0.5910
19119TIP3    H278849   5.639   3.326   1.656  1.6461  0.2372  1.1082
19120TIP3   OH278850   4.322   2.872  16.445 -0.5384 -0.5873 -0.0937
19120TIP3    H178851   4.396   2.834  16.494 -0.6367 -0.6383  0.0166
19120TIP3    H278852   4.276   2.925  16.510 -0.3078 -0.1439 -0.2812
19121TIP3   OH278853   5.970   0.459  11.151  0.0679  0.0050 -0.0921
19121TIP3    H178854   6.063   0.453  11.129 -0.1608  1.2143 -1.6204
19121TIP3    H278855   5.968   0.502  11.236  0.9180 -1.2313  0.5863
19122TIP3   OH278856   3.994   5.470   0.457  0.0996  0.9388 -0.4518
19122TIP3    H178857   3.960   5.555   0.429  0.7424  0.6669 -2.1817
19122TIP3    H278858   4.020   5.426   0.375  2.5610  0.2594  0.6075
19123TIP3   OH278859   3.248   5.962  10.677 -0.5502 -0.7734  0.1011
19123TIP3    H178860   3.171   5.999  10.633  0.3920 -1.1397 -1.9758
19123TIP3    H278861   3.322   6.008  10.639  0.3072 -0.5049  1.9854
19124TIP3   OH278862   1.250   0.253  15.379  0.2214  0.5869  0.3198
19124TIP3    H178863   1.245   0.160  15.356 -0.3965  0.2756  1.6253
19124TIP3    H278864   1.313   0.256  15.451 -2.1916  0.6512  2.5723
19125TIP3   OH278865   1.817   1.191   1.993  0.4336  0.4006  0.3849
19125TIP3    H178866   1.805   1.180   1.899  4.6614 -1.9225 -0.1307
19125TIP3    H278867   1.798   1.283   2.009 -2.1269  0.4931 -2.2942
19126TIP3   OH278868   5.404   2.950  10.998  0.0651  0.2445 -0.0729
19126TIP3    H178869   5.400   3.044  10.982  0.8582  0.3901  0.4953
19126TIP3    H278870   5.381   2.910  10.914 -0.6963  0.9395 -0.2022
19127TIP3   OH278871   0.098   2.343   4.380  0.4868 -0.1920  0.2804
19127TIP3    H178872   0.123   2.327   4.289 -0.5845 -0.3075 -0.0096
19127TIP3    H278873   0.082   2.255   4.416  0.9226 -0.1484  0.5870
19128TIP3   OH278874   2.789   1.929  11.214  0.4343  0.0034  0.2322
19128TIP3    H178875   2.783   1.987  11.289  0.6164  0.4502 -0.0943
19128TIP3    H278876   2.700   1.926  11.178  0.3276 -0.2816  0.5121
19129TIP3   OH278877   1.278   3.825   5.656  0.1064 -0.2748  0.4272
19129TIP3    H178878   1.247   3.861   5.573  1.3015 -2.3693 -0.9933
19129TIP3    H278879   1.343   3.889   5.687  0.9297 -0.3036 -1.1436
19130TIP3   OH278880   0.779   0.148  11.519 -0.3468  0.3945 -0.3436
19130TIP3    H178881   0.756   0.057  11.498 -2.4415  1.0557 -1.1950
19130TIP3    H278882   0.863   0.141  11.563 -1.8991 -2.3061  2.6382
19131TIP3   OH278883   0.323   6.312  16.801  0.8908 -0.2553  0.1998
19131TIP3    H178884   0.279   6.230  16.777  0.5970  0.4918 -2.0414
19131TIP3    H278885   0.416   6.294  16.787  0.7121  0.2106 -1.7997
19132TIP3   OH278886   4.454   2.660  11.256  0.4441  0.2724  0.2764
19132TIP3    H178887   4.520   2.638  11.322  0.2224 -1.6950 -0.1088
19132TIP3    H278888   4.505   2.697  11.184  1.1054 -0.8025  0.1671
19133TIP3   OH278889   2.902   5.055  14.019  0.9796  0.3391  0.4080
19133TIP3    H178890   2.850   5.134  14.006  0.7217 -0.0962 -1.6359
19133TIP3    H278891   2.946   5.068  14.103 -1.3708  1.3036  1.5681
19134TIP3   OH278892   6.199   1.628  16.050  0.1206  0.0231 -0.1973
19134TIP3    H178893   6.125   1.672  16.092 -0.9549 -0.5669 -1.3758
19134TIP3    H278894   6.175   1.535  16.051  1.9467 -0.4879  1.4767
19135TIP3   OH278895   4.193   4.489   3.229  0.5142  0.2604 -0.1499
19135TIP3    H178896   4.213   4.435   3.152  0.6910 -0.0368  0.1059
19135TIP3    H278897   4.247   4.453   3.299 -1.6173 -1.2302  0.8308
19136TIP3   OH278898   2.653   1.383   5.283 -0.3905 -0.1993  0.1462
19136TIP3    H178899   2.639   1.374   5.377 -0.3239  1.4100  0.3383
19136TIP3    H278900   2.592   1.452   5.256 -1.2809 -1.4440 -1.2352
19137TIP3   OH278901   1.741   3.483  16.249 -0.4024 -0.0397  0.1733
19137TIP3    H178902   1.746   3.399  16.204 -0.4967  0.4037 -0.6766
19137TIP3    H278903   1.671   3.471  16.314  0.7040 -1.1316  1.2000
19138TIP3   OH278904   2.723   1.098   3.061 -0.6776  0.7075  0.3000
19138TIP3    H178905   2.669   1.113   3.138  1.5906  1.0588  1.9126
19138TIP3    H278906   2.785   1.170   3.060 -0.4845  0.5975 -1.7774
19139TIP3   OH278907   6.768   3.821   3.190 -0.2471  0.2532 -0.6379
19139TIP3    H178908   6.816   3.743   3.162  0.5901  0.2470  0.7598
19139TIP3    H278909   6.679   3.790   3.206  0.4886 -0.8761  1.7095
19140TIP3   OH278910   4.963   3.785  13.464  0.0878  0.3915  0.7022
19140TIP3    H178911   5.036   3.725  13.450 -1.2942 -1.5383  1.3722
19140TIP3    H278912   4.914   3.747  13.537 -0.2066  3.0192  2.0025
19141TIP3   OH278913   2.135   0.808  16.170 -0.1383  0.0542 -0.9456
19141TIP3    H178914   2.213   0.863  16.162 -0.8956  1.2132 -0.4495
19141TIP3    H278915   2.062   0.869  16.170 -0.9011 -0.7206  2.0715
19142TIP3   OH278916   3.602   0.057  16.530  0.5460  0.1837 -0.4473
19142TIP3    H178917   3.649  -0.026  16.537  0.7555  0.2880 -0.5826
19142TIP3    H278918   3.556   0.051  16.446 -4.9253 -2.5827  2.2350
19143TIP3   OH278919   6.090   0.146   5.233 -0.2304  0.3711  0.6652
19143TIP3    H178920   6.000   0.114   5.224  0.2834 -0.9365 -0.0708
19143TIP3    H278921   6.097   0.172   5.325 -1.1883 -0.0836  0.8738
19144TIP3   OH278922   0.837   6.543   3.508  0.3983  0.3261  0.1507
19144TIP3    H178923   0.928   6.551   3.535  0.9205  1.4562 -1.7201
19144TIP3    H278924   0.821   6.622   3.457 -1.2082 -0.5180 -0.7191
19145TIP3   OH278925   1.536   2.062  12.720 -0.1091  0.4367  0.5829
19145TIP3    H178926   1.590   1.987  12.745  1.2146  1.0580 -0.3249
19145TIP3    H278927   1.447   2.025  12.712 -0.0464 -0.3831  3.0614
19146TIP3   OH278928   4.456   1.346   5.212 -0.3640 -0.3464 -0.0271
19146TIP3    H178929   4.526   1.373   5.152 -1.5989  1.2297 -0.8471
19146TIP3    H278930   4.400   1.289   5.160 -1.2723  0.7769 -0.3191
19147TIP3   OH278931   2.181   0.655   1.935 -0.1055 -0.2767  0.3868
19147TIP3    H178932   2.102   0.708   1.925  0.0261 -0.3453 -1.2379
19147TIP3    H278933   2.182   0.599   1.857  0.6582 -1.4674  1.2232
19148TIP3   OH278934   4.348   6.736  15.169  0.4863 -0.1415 -0.1122
19148TIP3    H178935   4.280   6.781  15.119  1.8691  0.6376 -1.3669
19148TIP3    H278936   4.417   6.719  15.106  1.7025 -0.4238  1.2346
19149TIP3   OH278937   3.633   1.041  12.678 -0.3439 -0.3756  0.3611
19149TIP3    H178938   3.658   0.953  12.649  0.7676 -0.6506  2.0412
19149TIP3    H278939   3.714   1.092  12.675 -0.7214  0.2546  0.6068
19150TIP3   OH278940   6.660   5.666   0.361 -0.3279 -0.2568  0.5211
19150TIP3    H178941   6.609   5.649   0.282 -0.8697  2.2139  0.2688
19150TIP3    H278942   6.596   5.697   0.425  0.7089  2.8143  0.2337
19151TIP3   OH278943   3.836   0.000  12.380 -0.3716  0.4771 -0.1072
19151TIP3    H178944   3.887  -0.021  12.458 -1.3337  1.5967  0.8664
19151TIP3    H278945   3.798   0.086  12.399 -2.1241 -0.0566 -1.0322
19152TIP3   OH278946   4.279   6.055   3.253  0.7504 -0.2739 -0.5426
19152TIP3    H178947   4.265   6.013   3.338 -0.8024 -1.0479 -1.1515
19152TIP3    H278948   4.262   6.148   3.269 -1.9176 -0.7106 -0.4647
19153TIP3   OH278949   0.817   5.222   4.236 -0.1396  0.2136 -0.1463
19153TIP3    H178950   0.838   5.238   4.144 -0.7899 -0.1111 -0.3623
19153TIP3    H278951   0.835   5.129   4.249  1.1965  0.5366  0.4150
19154TIP3   OH278952   1.056   5.664  12.480 -0.6491  0.0384  0.0199
19154TIP3    H178953   1.071   5.596  12.414 -1.3997  1.4566 -1.7031
19154TIP3    H278954   0.962   5.681  12.475 -0.6623  0.3892  1.2738
19155TIP3   OH278955   6.806   0.438   5.606  0.1742 -0.4980  0.5002
19155TIP3    H178956   6.760   0.376   5.549 -1.2503 -0.3287  1.4235
19155TIP3    H278957   6.813   0.392   5.690 -0.4122  0.3721  1.0366
19156TIP3   OH278958   4.262   0.367   4.101  0.0260  0.3138 -0.6743
19156TIP3    H178959   4.328   0.297   4.108  1.5842  1.6509 -1.4647
19156TIP3    H278960   4.303   0.443   4.142 -0.6413  1.4364 -2.0106
19157TIP3   OH278961   2.455   6.652  12.762 -0.2796 -0.5441 -0.4393
19157TIP3    H178962   2.376   6.599  12.757 -0.0006 -1.1748  1.0773
19157TIP3    H278963   2.423   6.742  12.769 -0.8167 -0.6713 -1.2065
19158TIP3   OH278964   4.438   2.489  12.095  0.0623 -0.4265 -0.3821
19158TIP3    H178965   4.505   2.490  12.027 -0.9287  0.2500 -1.3743
19158TIP3    H278966   4.402   2.401  12.093 -0.5364 -0.1675 -1.3267
19159TIP3   OH278967   0.273   1.599   5.517  0.1552  0.3336 -0.3240
19159TIP3    H178968   0.182   1.577   5.494  0.0160 -2.7437  2.4704
19159TIP3    H278969   0.266   1.685   5.560 -1.5051  0.0528  0.0596
19160TIP3   OH278970   6.250   2.876  16.811 -0.1585  0.8378 -0.5118
19160TIP3    H178971   6.271   2.969  16.807 -0.7411  0.9910 -0.1889
19160TIP3    H278972   6.193   2.867  16.888  0.2870  0.1339 -0.2517
19161TIP3   OH278973   0.226   2.312  14.798  0.3514 -0.1531  0.4766
19161TIP3    H178974   0.226   2.299  14.893  0.3925 -1.9959  0.2714
19161TIP3    H278975   0.250   2.226  14.763 -1.8444 -0.1247 -1.2868
19162TIP3   OH278976   1.705   3.527  13.098  0.5643  0.4112  0.1914
19162TIP3    H178977   1.626   3.480  13.126  0.9019 -0.4774 -0.3049
19162TIP3    H278978   1.766   3.514  13.170  0.7196 -0.0795 -0.0245
19163TIP3   OH278979   4.444   5.364  13.199 -0.0045  0.1120 -0.8740
19163TIP3    H178980   4.385   5.439  13.208 -0.9114 -0.1726 -3.5197
19163TIP3    H278981   4.517   5.397  13.146  0.3055 -0.5059 -0.8427
19164TIP3   OH278982   6.136   4.393   3.087 -0.8910  0.1800  0.0833
19164TIP3    H178983   6.068   4.338   3.127 -0.6254 -0.2377 -0.0312
19164TIP3    H278984   6.166   4.449   3.158 -1.2367  0.2492  0.1782
19165TIP3   OH278985   5.334   3.920   0.842 -0.3468 -0.6556 -0.3183
19165TIP3    H178986   5.374   4.003   0.870 -1.4388 -0.7094  1.5512
19165TIP3    H278987   5.391   3.889   0.772 -0.9560  2.6154 -2.4937
19166TIP3   OH278988   4.496   0.441  14.118  0.2316  0.5162  0.3105
19166TIP3    H178989   4.489   0.374  14.187  0.0106  1.1044  0.8667
19166TIP3    H278990   4.587   0.469  14.123  0.1597  0.7169  0.5161
19167TIP3   OH278991   3.509   2.785   1.231  0.1106  0.2906  0.1080
19167TIP3    H178992   3.557   2.865   1.254  0.5729  0.0688 -0.0817
19167TIP3    H278993   3.512   2.733   1.311  1.1572 -0.1993 -0.2277
19168TIP3   OH278994   3.704   4.113   5.636  0.5744 -0.1614 -0.3775
19168TIP3    H178995   3.668   4.035   5.592  0.1782 -0.7367  0.9150
19168TIP3    H278996   3.772   4.078   5.694 -0.5146  0.2627  1.2232
19169TIP3   OH278997   1.477   0.204   5.353 -0.3785 -0.1240 -0.2417
19169TIP3    H178998   1.480   0.223   5.259  1.2715  2.7842  0.2570
19169TIP3    H278999   1.502   0.287   5.395  0.8942 -1.8251  2.7053
19170TIP3   OH279000   1.248   6.134   3.945 -0.1264 -0.0957  0.3524
19170TIP3    H179001   1.331   6.130   3.992  1.4150 -0.6127 -2.1953
19170TIP3    H279002   1.234   6.228   3.929  0.3364 -0.0378  0.2540
19171TIP3   OH279003   0.851   6.701  15.249 -0.7146 -0.2042  0.0629
19171TIP3    H179004   0.814   6.769  15.192 -1.8380 -2.0080 -1.4706
19171TIP3    H279005   0.777   6.645  15.271  0.4517 -1.8697 -0.0671
19172TIP3   OH279006   0.868   1.023   5.725 -0.1835  0.2946  0.5359
19172TIP3    H179007   0.868   1.063   5.812  0.1396  0.1424  0.6060
19172TIP3    H279008   0.877   0.929   5.742  1.2202  0.3687  0.2894
19173TIP3   OH279009   0.897   2.933   3.579  0.1424  0.3767  0.7776
19173TIP3    H179010   0.816   2.953   3.531 -0.5912 -0.4423  1.6242
19173TIP3    H279011   0.940   2.866   3.527 -0.5724 -0.3953  1.1630
19174TIP3   OH279012   5.228   6.662   3.577  0.1015 -0.1092  0.7332
19174TIP3    H179013   5.251   6.581   3.532 -0.3535 -0.2007  0.6658
19174TIP3    H279014   5.218   6.727   3.507  2.5170  0.5362  0.9012
19175TIP3   OH279015   1.634   3.769  14.283  0.0320  0.2410  0.3544
19175TIP3    H179016   1.540   3.784  14.281 -0.1757 -0.7513  1.7704
19175TIP3    H279017   1.653   3.738  14.371  1.2163 -2.4366 -0.7061
19176TIP3   OH279018   3.609   1.982  12.880  0.2466 -0.4936 -0.3313
19176TIP3    H179019   3.517   1.969  12.902 -0.0140 -0.3997 -1.3096
19176TIP3    H279020   3.629   2.071  12.910  0.0640 -0.5724  0.0265
19177TIP3   OH279021   3.442   5.850   5.100  0.2325 -0.4673  0.2052
19177TIP3    H179022   3.523   5.880   5.140 -0.4347  0.2767  1.0287
19177TIP3    H279023   3.469   5.813   5.016  1.7234 -2.4173  1.4490
19178TIP3   OH279024   1.166   1.031   0.347  1.1416 -0.4331 -0.4305
19178TIP3    H179025   1.144   1.077   0.428  1.0028 -1.0184 -0.1263
19178TIP3    H279026   1.160   1.098   0.279 -0.3643 -0.2854 -0.1863
19179TIP3   OH279027   3.904   5.164   0.016 -0.4154 -1.0689  0.5258
19179TIP3    H179028   3.968   5.104   0.054 -0.6447 -1.8230 -0.2555
19179TIP3    H279029   3.937   5.183  -0.072 -0.3048  0.0266  0.7846
19180TIP3   OH279030   2.026   0.579   0.201  0.2208  0.3726  0.8397
19180TIP3    H179031   2.071   0.601   0.282  1.3201  0.5055  0.2072
19180TIP3    H279032   2.025   0.483   0.200  3.4031  0.2488 -0.6458
19181TIP3   OH279033   5.106   3.055  10.803 -0.3851 -0.3550  0.6042
19181TIP3    H179034   5.071   3.078  10.717 -0.3053  2.1110  1.1562
19181TIP3    H279035   5.159   2.977  10.787 -1.2967 -0.6358 -1.3559
19182TIP3   OH279036   4.507   5.985  11.631 -0.1310 -0.4006 -0.4936
19182TIP3    H179037   4.447   5.943  11.694 -1.6374 -0.1751 -1.7092
19182TIP3    H279038   4.451   6.007  11.556  1.3313  0.6124 -1.3360
19183TIP3   OH279039   1.290   0.810   3.792  0.1718 -0.0872 -0.2230
19183TIP3    H179040   1.237   0.889   3.782  0.3420 -0.1460 -1.8466
19183TIP3    H279041   1.256   0.749   3.726  0.9285 -0.8650  0.0783
19184TIP3   OH279042   5.760   5.649   4.629 -0.1006  0.3405  0.0677
19184TIP3    H179043   5.742   5.627   4.720  1.1199  2.7543  0.9696
19184TIP3    H279044   5.812   5.729   4.633 -0.8084  1.0607 -2.7882
19185TIP3   OH279045   6.259   3.507  10.893 -0.5578 -0.5049  0.6356
19185TIP3    H179046   6.187   3.490  10.955 -0.7345 -0.7430  0.3682
19185TIP3    H279047   6.240   3.449  10.819 -1.8323  1.6980 -0.8594
19186TIP3   OH279048   4.400   6.376  14.780 -0.6002  0.0743 -0.1641
19186TIP3    H179049   4.383   6.287  14.812  0.9440 -0.4466 -0.6722
19186TIP3    H279050   4.384   6.371  14.686 -1.8059  0.7097 -0.0114
19187TIP3   OH279051   0.728   0.104  14.533  0.4995  0.3527 -0.4073
19187TIP3    H179052   0.819   0.074  14.526  0.3708 -0.4164  0.7846
19187TIP3    H279053   0.735   0.195  14.560  0.9584 -0.1093  1.1418
19188TIP3   OH279054   2.883   4.745  12.016 -0.2061  0.7732  0.0209
19188TIP3    H179055   2.815   4.734  12.083 -0.5387  1.1841 -0.2417
19188TIP3    H279056   2.865   4.831  11.978 -1.6493 -0.4906 -2.4155
19189TIP3   OH279057   4.251   1.019  13.465  0.0862  0.2640  0.5164
19189TIP3    H179058   4.260   1.051  13.555  0.8058 -0.9664  0.9121
19189TIP3    H279059   4.191   1.080  13.423 -1.3577  0.1006  2.2371
19190TIP3   OH279060   5.432   5.807  15.032 -0.2900  0.3776 -0.2893
19190TIP3    H179061   5.435   5.711  15.030  0.9765  0.4048 -1.4653
19190TIP3    H279062   5.344   5.828  15.061  0.1743 -1.1349  2.6410
19191TIP3   OH279063   4.545   6.041   4.538 -0.4150 -0.4291 -0.1601
19191TIP3    H179064   4.622   5.992   4.568  0.1404  0.9191  0.7231
19191TIP3    H279065   4.497   5.979   4.484  2.8875 -0.4721 -3.4267
19192TIP3   OH279066   4.777   1.322  15.534  0.2508 -0.1230  0.5554
19192TIP3    H179067   4.823   1.368  15.603  2.5159 -0.4908 -0.6029
19192TIP3    H279068   4.839   1.320  15.461 -1.5650 -0.8359 -1.0520
19193TIP3   OH279069   1.684   1.552  10.500 -0.3305 -0.7700  0.1152
19193TIP3    H179070   1.608   1.595  10.538 -1.4974 -1.7056 -1.0983
19193TIP3    H279071   1.743   1.624  10.476 -1.1327  0.0006  0.4315
19194TIP3   OH279072   6.836   3.792  11.257  0.0017  0.3159 -0.4373
19194TIP3    H179073   6.769   3.818  11.321 -1.8756 -2.3001 -1.2034
19194TIP3    H279074   6.919   3.822  11.296 -1.2584  0.6656  2.2044
19195TIP3   OH279075   3.021   1.114  13.002 -0.0671  0.2712  0.4605
19195TIP3    H179076   3.110   1.130  12.972 -0.5522  1.1628 -0.5867
19195TIP3    H279077   2.972   1.097  12.921 -0.7541 -0.6689  1.0611
19196TIP3   OH279078   0.745   6.491  14.137 -0.2152  0.2705  0.5938
19196TIP3    H179079   0.716   6.518  14.049 -1.0154  0.5519  0.9310
19196TIP3    H279080   0.832   6.530  14.147  1.6559 -2.9135 -1.5559
19197TIP3   OH279081   4.023   5.042   4.779  0.2302 -0.3940 -0.0867
19197TIP3    H179082   3.936   5.018   4.812  1.2510 -1.8257  1.7050
19197TIP3    H279083   4.053   5.111   4.838  0.8004 -0.7924  0.1030
19198TIP3   OH279084   3.886   0.711   5.608  0.4740  0.0731 -0.4662
19198TIP3    H179085   3.893   0.806   5.617 -0.3021  0.2845 -1.8105
19198TIP3    H279086   3.956   0.676   5.662  0.6884  1.4073  0.1496
19199TIP3   OH279087   5.796   0.618  15.891  0.5306 -0.5074  0.2126
19199TIP3    H179088   5.869   0.680  15.885 -0.0948  0.4313  1.7085
19199TIP3    H279089   5.727   0.656  15.836  1.6040 -2.2097 -2.5596
19200TIP3   OH279090   6.604   3.613  11.434  0.5108 -0.4821 -0.0652
19200TIP3    H179091   6.527   3.567  11.401  0.5888  0.1261 -1.1419
19200TIP3    H279092   6.665   3.543  11.458 -0.5652 -0.9887  1.3733
19201TIP3   OH279093   6.351   3.413   6.573  0.3136 -0.2706  0.0125
19201TIP3    H179094   6.382   3.332   6.533 -1.7622 -1.5316  0.8074
19201TIP3    H279095   6.420   3.437   6.635  0.4628 -2.1337  0.6389
19202TIP3   OH279096   3.923   4.918   4.302  0.0760 -0.0690  0.0294
19202TIP3    H179097   3.860   4.928   4.231  0.7150  1.7711 -0.3475
19202TIP3    H279098   3.972   4.838   4.281  1.5030  1.3895 -2.6737
19203TIP3   OH279099   5.484   3.207   1.193 -0.4563 -0.2315 -0.1908
19203TIP3    H179100   5.434   3.279   1.232 -0.0222  0.7618 -1.4101
19203TIP3    H279101   5.504   3.149   1.267 -1.6645  0.3763  0.6470
19204TIP3   OH279102   1.658   3.289  13.729  0.3139 -0.0561 -0.7333
19204TIP3    H179103   1.631   3.239  13.652 -0.5419  0.0502 -0.5191
19204TIP3    H279104   1.580   3.339  13.753  0.8974  0.7272 -0.4322
19205TIP3   OH279105   2.587   0.444   2.586  0.2784  0.1350  0.3197
19205TIP3    H179106   2.660   0.424   2.528 -0.2824 -0.3676 -0.2283
19205TIP3    H279107   2.547   0.522   2.547 -0.6061 -0.6895 -0.4784
19206TIP3   OH279108   2.668   0.806   0.607 -0.5518  0.7027  0.3516
19206TIP3    H179109   2.712   0.770   0.530 -0.7151  1.4784 -0.1195
19206TIP3    H279110   2.661   0.900   0.589 -2.3219  0.6341  0.4264
19207TIP3   OH279111   5.248   0.216  15.769 -0.4769 -0.3254 -0.5021
19207TIP3    H179112   5.157   0.195  15.748 -0.4148 -1.0006 -0.1492
19207TIP3    H279113   5.255   0.201  15.863 -0.1635  0.3542 -0.4164
19208TIP3   OH279114   2.789   4.960  11.338 -0.7863  0.3546 -0.4666
19208TIP3    H179115   2.721   4.939  11.275  0.2955  2.8852 -2.6765
19208TIP3    H279116   2.759   5.040  11.381  0.4565  1.1475 -1.0136
19209TIP3   OH279117   1.548   6.352   5.357 -0.0425 -0.0942 -0.6748
19209TIP3    H179118   1.574   6.279   5.414 -0.1846  0.5957  0.3053
19209TIP3    H279119   1.563   6.430   5.410 -1.8363  0.4695 -0.9247
19210TIP3   OH279120   3.117   0.812  11.944 -0.0745 -0.3337 -0.4807
19210TIP3    H179121   3.117   0.716  11.934  1.1505 -0.4197  0.1936
19210TIP3    H279122   3.102   0.827  12.037  1.0507  0.0887 -0.3592
19211TIP3   OH279123   0.953   3.921  13.018 -0.1092  0.7183  0.5606
19211TIP3    H179124   0.980   3.830  13.027  0.4626  0.7345 -0.7811
19211TIP3    H279125   1.030   3.971  13.044  0.7016  0.7697 -1.7160
19212TIP3   OH279126   6.810   4.756   0.756 -0.2236 -0.3108  0.1431
19212TIP3    H179127   6.862   4.813   0.813 -1.3298 -0.5444  1.4372
19212TIP3    H279128   6.782   4.812   0.684  0.1198  0.3282  0.5022
19213TIP3   OH279129   3.238   6.626   0.636 -0.2191 -0.0309  0.9990
19213TIP3    H179130   3.227   6.565   0.563  0.2976 -1.2550  1.9159
19213TIP3    H279131   3.225   6.573   0.714  0.1390  1.0687  1.8364
19214TIP3   OH279132   4.572   4.570  14.452  0.0069  0.5401 -0.2088
19214TIP3    H179133   4.554   4.476  14.460 -1.0224  0.7595  0.2486
19214TIP3    H279134   4.661   4.580  14.484 -0.6447  0.0092  1.9737
19215TIP3   OH279135   0.383   2.957   0.585 -0.3120  0.1617 -0.0644
19215TIP3    H179136   0.415   2.957   0.495 -0.5387 -0.5799 -0.1448
19215TIP3    H279137   0.339   2.873   0.596 -3.0317  1.4489 -0.2364
19216TIP3   OH279138   0.820   5.704  12.160  0.0390  0.0540  0.3017
19216TIP3    H179139   0.805   5.778  12.220  1.9812  1.1001 -0.4243
19216TIP3    H279140   0.814   5.627  12.216 -0.1043  0.8697  1.4631
19217TIP3   OH279141   4.046   5.961   0.511  0.7251  0.6356 -0.4870
19217TIP3    H179142   4.141   5.956   0.525  0.5389  0.0398  0.6468
19217TIP3    H279143   4.016   6.025   0.576 -0.1831 -2.3309  2.3077
19218TIP3   OH279144   4.017   0.477   3.987  0.1159 -0.0174  0.2242
19218TIP3    H179145   3.998   0.570   3.999  2.8403  1.2451 -3.3241
19218TIP3    H279146   4.111   0.470   4.001  0.3007 -1.7934 -1.4803
19219TIP3   OH279147   3.135   4.220  16.483 -0.0989  0.2518  0.2241
19219TIP3    H179148   3.143   4.307  16.442 -2.2676  0.8029  0.8428
19219TIP3    H279149   3.221   4.204  16.522  2.0712 -0.2116 -4.1755
19220TIP3   OH279150   4.516   5.774   6.423  0.1039 -0.3344 -0.5139
19220TIP3    H179151   4.484   5.777   6.514  0.4516 -2.5298 -0.2671
19220TIP3    H279152   4.437   5.780   6.370  0.0031  2.7411 -0.1996
19221TIP3   OH279153   1.881   3.994  16.249  0.3872 -0.0275  0.2310
19221TIP3    H179154   1.875   3.955  16.337 -1.9713  0.5157  0.3717
19221TIP3    H279155   1.857   3.923  16.190  0.1597  0.1039  0.1666
19222TIP3   OH279156   6.228   3.967   4.001  0.0454 -0.1572 -0.2771
19222TIP3    H179157   6.162   3.997   3.939 -2.2693 -0.0724  2.0636
19222TIP3    H279158   6.214   3.873   4.008  1.5486 -0.4819 -1.2002
19223TIP3   OH279159   0.543   0.267  13.196 -0.5473 -0.5160 -0.4020
19223TIP3    H179160   0.450   0.285  13.208 -0.4615 -0.3270  0.0231
19223TIP3    H279161   0.577   0.261  13.285 -0.4125 -2.0117 -0.5342
19224TIP3   OH279162   1.781   2.275   0.942  0.4241 -0.5231  0.3386
19224TIP3    H179163   1.791   2.284   0.847  0.2223 -1.8336  0.1758
19224TIP3    H279164   1.836   2.344   0.979  0.6167 -0.0911 -0.7234
19225TIP3   OH279165   5.206   0.128   0.770 -0.1484 -0.1070  0.8294
19225TIP3    H179166   5.163   0.139   0.855 -0.9065 -0.0203  0.4418
19225TIP3    H279167   5.135   0.113   0.709  0.4413 -0.8847  0.3150
19226TIP3   OH279168   4.929   3.262   2.389 -0.3704  0.8041  0.6762
19226TIP3    H179169   4.896   3.173   2.373 -0.2295  0.9455 -0.4992
19226TIP3    H279170   5.010   3.266   2.338 -1.9348  2.5873 -1.9441
19227TIP3   OH279171   4.223   6.748   1.616 -0.2645  0.0485  0.1092
19227TIP3    H179172   4.229   6.827   1.562 -0.8741 -0.7449 -1.1759
19227TIP3    H279173   4.309   6.741   1.657 -0.3533  1.6350  0.6478
19228TIP3   OH279174   3.153   5.013  11.126 -0.3299 -0.3606 -0.0565
19228TIP3    H179175   3.121   5.029  11.037 -2.1486 -2.4445  0.1359
19228TIP3    H279176   3.208   4.935  11.118  1.3365  0.7274  0.3373
19229TIP3   OH279177   0.988   5.433  13.031  0.3374 -0.0555 -0.5703
19229TIP3    H179178   1.034   5.503  13.078 -0.3321 -0.3027  0.4770
19229TIP3    H279179   0.997   5.356  13.088 -1.4043 -0.0979 -0.3063
19230TIP3   OH279180   3.328   5.851   4.140 -0.6111  0.3598 -0.0017
19230TIP3    H179181   3.334   5.893   4.226  0.1925  1.3867 -0.5375
19230TIP3    H279182   3.251   5.891   4.099  0.9058  2.4084 -1.0349
19231TIP3   OH279183   3.679   5.309   0.138 -0.1551  0.4534 -1.5727
19231TIP3    H179184   3.719   5.388   0.101 -0.6826  1.0399 -0.9024
19231TIP3    H279185   3.744   5.241   0.122  1.5303  1.5486  0.2310
19232TIP3   OH279186   2.535   4.267  14.292 -0.5205  0.5574  0.6262
19232TIP3    H179187   2.578   4.331  14.236 -1.2401  0.7166  0.2534
19232TIP3    H279188   2.445   4.297  14.299 -0.9236 -0.5172  0.2803
19233TIP3   OH279189   0.883   3.814   2.105 -0.0104 -0.2153 -0.0999
19233TIP3    H179190   0.861   3.907   2.106  1.7059  0.2340  1.6795
19233TIP3    H279191   0.806   3.771   2.140 -0.8899  0.4769 -1.0886
19234TIP3   OH279192   2.209   2.268   4.678  0.0648  0.3659  0.3375
19234TIP3    H179193   2.143   2.219   4.726  0.4940 -0.0067  0.5540
19234TIP3    H279194   2.247   2.205   4.617 -0.1340  0.7096 -0.1446
19235TIP3   OH279195   3.676   1.882  15.069 -0.2278  0.3230 -0.2855
19235TIP3    H179196   3.676   1.966  15.021  2.7265  0.4217 -0.3227
19235TIP3    H279197   3.766   1.850  15.060 -0.2954 -1.0759  2.8048
19236TIP3   OH279198   4.889   1.528  15.713  0.2653  0.5336  0.0458
19236TIP3    H179199   4.848   1.593  15.769 -0.3633 -0.1617  0.4022
19236TIP3    H279200   4.959   1.491  15.766  0.0890  0.3349  0.1407
19237TIP3   OH279201   6.812   2.501   4.154  0.1164 -0.0810 -0.1994
19237TIP3    H179202   6.743   2.560   4.124  0.1102  0.3444  0.6289
19237TIP3    H279203   6.789   2.481   4.245  1.3429  0.4670  0.2585
19238TIP3   OH279204   1.255   1.620  16.729 -0.0019 -0.0272 -0.4829
19238TIP3    H179205   1.226   1.535  16.763  0.3308 -0.2939 -0.8557
19238TIP3    H279206   1.287   1.601  16.641  0.6601  0.3706 -0.3397
19239TIP3   OH279207   3.677   3.407   2.080 -0.4167 -0.2649 -0.1843
19239TIP3    H179208   3.697   3.419   2.173  0.9313 -1.8860 -0.2112
19239TIP3    H279209   3.762   3.389   2.039 -1.2474 -1.9473 -1.3017
19240TIP3   OH279210   6.152   4.558  16.271 -0.0285 -0.2991 -0.4698
19240TIP3    H179211   6.192   4.639  16.241 -0.7121 -0.2286 -1.2520
19240TIP3    H279212   6.058   4.576  16.270 -0.1270  0.4204  3.7917
19241TIP3   OH279213   1.801   5.826  12.579 -0.2919  0.3577  0.8144
19241TIP3    H179214   1.736   5.756  12.589 -1.1552  0.9976 -0.1127
19241TIP3    H279215   1.768   5.879  12.506  0.7830  1.2489  0.9509
19242TIP3   OH279216   1.449   6.524  16.773  0.1536  0.2313 -0.0391
19242TIP3    H179217   1.458   6.585  16.701 -0.0128  1.0920  0.6572
19242TIP3    H279218   1.413   6.445  16.733 -1.0417  1.0901 -0.7107
19243TIP3   OH279219   4.419   1.482   3.161  0.7845 -0.5720 -0.1224
19243TIP3    H179220   4.489   1.516   3.217  0.4043 -0.3723  0.2400
19243TIP3    H279221   4.462   1.458   3.079  1.4074 -1.2263  0.3948
19244TIP3   OH279222   5.106   0.904  12.604  0.3126 -0.1287  0.0006
19244TIP3    H179223   5.119   0.837  12.537  1.4285 -0.8768  0.9129
19244TIP3    H279224   5.092   0.985  12.555 -0.6695 -0.9407 -1.1250
19245TIP3   OH279225   3.630   6.624   5.521  0.2239  0.2252 -0.8405
19245TIP3    H179226   3.684   6.571   5.462 -0.5490 -0.2623 -1.1255
19245TIP3    H279227   3.587   6.687   5.463  0.4847  0.6156 -0.6140
19246TIP3   OH279228   6.374   5.368  14.874 -0.9423  0.3904  0.2029
19246TIP3    H179229   6.357   5.316  14.953  1.3267 -0.1217  0.4342
19246TIP3    H279230   6.308   5.338  14.812 -0.1948 -2.3488  0.5628
19247TIP3   OH279231   3.880   2.367   1.300  0.1929  0.5271 -0.1224
19247TIP3    H179232   3.805   2.309   1.315  0.6165  0.1087  0.4503
19247TIP3    H279233   3.943   2.341   1.367  1.9479 -0.9812 -2.1944
19248TIP3   OH279234   5.805   2.589  13.370  0.2922 -0.0014 -0.0265
19248TIP3    H179235   5.863   2.663  13.390  1.9306 -1.4798  0.9973
19248TIP3    H279236   5.760   2.570  13.452  0.2376 -0.4262 -0.1521
19249TIP3   OH279237   0.021   5.983  10.991 -0.0119  0.2475 -0.2941
19249TIP3    H179238   0.023   6.064  10.939 -0.5733  0.1629 -0.4522
19249TIP3    H279239   0.065   5.918  10.936 -1.7517 -0.1778 -1.2679
19250TIP3   OH279240   5.826   3.283   1.339 -0.5689  0.6589  0.8525
19250TIP3    H179241   5.848   3.357   1.283  1.5823 -0.4210  0.1280
19250TIP3    H279242   5.819   3.209   1.279  0.4942 -0.2803  1.8261
19251TIP3   OH279243   3.264   0.828   4.181 -0.2608 -0.2495  0.3828
19251TIP3    H179244   3.334   0.852   4.242 -0.9071  2.1907  0.2629
19251TIP3    H279245   3.297   0.750   4.136  2.0946  0.4182  0.8183
19252TIP3   OH279246   2.107   5.486  11.500  0.0884 -0.3641 -0.2566
19252TIP3    H179247   2.023   5.526  11.520 -0.6570 -0.1012 -3.4590
19252TIP3    H279248   2.106   5.402  11.547 -1.7059 -0.1114  0.2068
19253TIP3   OH279249   6.845   2.095   4.992  0.3585  0.1233 -0.2059
19253TIP3    H179250   6.818   2.182   4.961  2.4730  0.8073 -0.2296
19253TIP3    H279251   6.833   2.099   5.087 -0.9582 -0.1159 -0.3339
19254TIP3   OH279252   0.398   3.844   4.248 -0.0148 -0.3625  0.0971
19254TIP3    H179253   0.446   3.762   4.236  1.1034  0.1557  0.8430
19254TIP3    H279254   0.312   3.827   4.209  0.4155 -1.6591 -0.3648
19255TIP3   OH279255   0.013   1.486  13.486 -0.1616 -0.2499 -0.3475
19255TIP3    H179256  -0.014   1.394  13.480 -1.7118  0.0409  1.2757
19255TIP3    H279257   0.022   1.514  13.395  0.0150 -1.9060 -0.8780
19256TIP3   OH279258   6.592   5.559  14.380  0.0391  0.1369 -0.2569
19256TIP3    H179259   6.594   5.655  14.377  0.2888  0.1308 -0.3517
19256TIP3    H279260   6.681   5.534  14.406 -0.5647 -0.0099  1.8993
19257TIP3   OH279261   1.103   1.610  13.009  0.9728 -0.0014  0.1309
19257TIP3    H179262   1.132   1.627  12.919  0.4415 -0.6272 -0.1670
19257TIP3    H279263   1.114   1.516  13.020  1.1729  0.0924  0.7810
19258TIP3   OH279264   0.729   0.682   3.102 -0.8915 -0.5739  0.3733
19258TIP3    H179265   0.783   0.605   3.084  0.5855  0.0740  1.7418
19258TIP3    H279266   0.713   0.679   3.196 -1.2434  0.5109  0.3649
19259TIP3   OH279267   2.418   3.305   2.385 -0.0693  0.0669 -0.2860
19259TIP3    H179268   2.456   3.313   2.298  1.8149 -0.8258  0.3888
19259TIP3    H279269   2.323   3.310   2.371  0.2261  1.1213 -2.2143
19260TIP3   OH279270   1.101   1.635  10.273 -0.0394 -0.4480 -0.0501
19260TIP3    H179271   1.128   1.673  10.357 -2.4437 -1.6676  1.4045
19260TIP3    H279272   1.183   1.612  10.230  1.3241  1.2900  1.4044
19261TIP3   OH279273   2.269   2.542  11.527  0.4686 -0.3485  0.1342
19261TIP3    H179274   2.264   2.636  11.542  0.1786 -0.2783 -0.3548
19261TIP3    H279275   2.330   2.510  11.593 -0.1096  0.0508  0.8785
19262TIP3   OH279276   2.387   3.677  13.848 -0.3042 -0.0570 -0.0809
19262TIP3    H179277   2.308   3.635  13.882 -1.4144  1.0362 -1.1956
19262TIP3    H279278   2.358   3.723  13.769  1.7686 -0.9496 -1.4671
19263TIP3   OH279279   5.527   3.380   5.725 -0.0586 -0.2333 -0.4067
19263TIP3    H179280   5.496   3.404   5.812  1.3096 -0.8671  0.2815
19263TIP3    H279281   5.484   3.442   5.666 -1.3007 -0.0375  0.6608
19264TIP3   OH279282   4.913   4.321  16.485  0.7838  0.3481  0.0363
19264TIP3    H179283   5.000   4.342  16.518  0.7833 -0.1911  0.3846
19264TIP3    H279284   4.906   4.226  16.493  0.2025  0.3749 -0.0824
19265TIP3   OH279285   1.009   1.772  14.166  0.2162  0.2231  0.4180
19265TIP3    H179286   1.043   1.746  14.251  1.2911  0.2218  0.0030
19265TIP3    H279287   1.078   1.749  14.104 -0.8847 -0.5155 -0.5633
19266TIP3   OH279288   2.986   1.630   2.749 -0.2116 -0.4468 -0.0241
19266TIP3    H179289   3.066   1.633   2.801  0.2144  1.4927 -0.7393
19266TIP3    H279290   3.015   1.642   2.659 -1.3108  0.4598 -0.2780
19267TIP3   OH279291   2.489   1.417   0.848 -0.0444  0.2792  0.2782
19267TIP3    H179292   2.563   1.442   0.794  0.7377 -1.2656  0.5796
19267TIP3    H279293   2.465   1.497   0.895  0.2626  1.2391 -1.1373
19268TIP3   OH279294   0.767   6.618   3.952  0.8073 -0.1243  0.0863
19268TIP3    H179295   0.680   6.653   3.934  0.1547 -0.1514  2.6682
19268TIP3    H279296   0.827   6.671   3.899 -0.5627  1.7570  0.3481
19269TIP3   OH279297   3.929   0.584   5.983  1.2150 -0.0252 -0.0352
19269TIP3    H179298   3.897   0.647   5.918  1.7634 -0.0306 -0.3167
19269TIP3    H279299   3.850   0.546   6.021  0.8564 -1.6130 -2.2203
19270TIP3   OH279300   5.361   3.253  14.039  0.3140  0.1472 -0.2909
19270TIP3    H179301   5.303   3.298  13.977  0.4623 -0.2588 -0.7348
19270TIP3    H279302   5.440   3.307  14.041  0.4231  0.0035 -0.6834
19271TIP3   OH279303   4.172   0.677  14.370 -0.4792  0.0815 -0.6996
19271TIP3    H179304   4.184   0.586  14.398  2.6042  0.7014  0.4304
19271TIP3    H279305   4.180   0.674  14.275  1.5438 -0.6763 -0.5568
19272TIP3   OH279306   5.666   5.056   1.049 -0.5747 -0.1718 -0.1687
19272TIP3    H179307   5.650   5.085   1.139 -1.0403  0.1525 -0.3546
19272TIP3    H279308   5.721   4.978   1.059 -2.5455 -1.5705  0.5386
19273TIP3   OH279309   5.129   6.317   0.254  0.3892 -0.2946  0.3181
19273TIP3    H179310   5.056   6.339   0.313 -0.0608 -0.1209 -0.2982
19273TIP3    H279311   5.111   6.228   0.224  1.0179 -0.6780  1.0167
19274TIP3   OH279312   2.390   0.490   0.210  0.7723 -0.5090  0.4720
19274TIP3    H179313   2.307   0.448   0.231  0.0946  0.5978  0.0573
19274TIP3    H279314   2.424   0.441   0.135  0.1182 -0.4693  0.1508
19275TIP3   OH279315   2.879   0.358  15.616  0.0951 -0.0697 -0.4058
19275TIP3    H179316   2.851   0.416  15.687 -1.4705  0.9295 -1.7511
19275TIP3    H279317   2.802   0.352  15.559  1.8490  0.7463 -3.0403
19276TIP3   OH279318   3.946   3.237   3.127  0.2410 -0.0866 -0.0408
19276TIP3    H179319   3.977   3.293   3.198  0.1428  1.5105 -1.1964
19276TIP3    H279320   3.980   3.279   3.048  2.1883 -2.9843 -0.8895
19277TIP3   OH279321   4.300   2.329   3.509 -0.1080 -0.3122  0.0161
19277TIP3    H179322   4.302   2.386   3.432  2.0848 -0.5587 -0.1743
19277TIP3    H279323   4.344   2.249   3.481 -0.9602 -1.1500  0.9933
19278TIP3   OH279324   6.671   6.134   3.314 -0.0954  0.0788  0.1705
19278TIP3    H179325   6.706   6.045   3.316 -0.4524 -0.0583  1.3903
19278TIP3    H279326   6.670   6.161   3.406 -0.1425  1.2838 -0.1723
19279TIP3   OH279327   0.721   4.454  14.779  0.3064 -0.1010 -0.6363
19279TIP3    H179328   0.630   4.441  14.754  0.0776  0.5918 -0.2087
19279TIP3    H279329   0.748   4.534  14.732  0.3759  0.2686  0.0177
19280TIP3   OH279330   5.700   2.384   1.854  0.3171 -0.0051  0.1472
19280TIP3    H179331   5.770   2.342   1.902  0.6164  1.8792  1.4900
19280TIP3    H279332   5.638   2.314   1.834  1.8818 -1.4516  0.1513
19281TIP3   OH279333   2.124   3.562   1.549  0.1257  0.1967 -0.1464
19281TIP3    H179334   2.068   3.555   1.626 -0.1195 -2.2900 -0.4715
19281TIP3    H279335   2.075   3.617   1.488  0.1406  1.8424  1.2681
19282TIP3   OH279336   5.637   4.099   4.937  0.1231  0.3119  0.2159
19282TIP3    H179337   5.566   4.154   4.970 -0.1644 -0.6505  1.2373
19282TIP3    H279338   5.598   4.054   4.862 -0.0704  0.4388  0.2383
19283TIP3   OH279339   0.589   4.251  10.258  0.0230  0.2321  0.0714
19283TIP3    H179340   0.634   4.170  10.281  0.8049 -0.1141 -2.4498
19283TIP3    H279341   0.655   4.304  10.214 -1.1845  1.0499 -0.8319
19284TIP3   OH279342   3.411   5.569   4.151  0.0308 -0.7585 -0.0429
19284TIP3    H179343   3.381   5.660   4.148  0.4249 -0.5585  1.3423
19284TIP3    H279344   3.505   5.576   4.169  0.1632 -1.4464 -0.4446
19285TIP3   OH279345   1.846   0.865  14.755  0.2820  0.6726  0.2705
19285TIP3    H179346   1.856   0.829  14.843  2.7413  0.5941  0.0252
19285TIP3    H279347   1.876   0.794  14.698 -0.5364  1.0109 -0.6011
19286TIP3   OH279348   0.619   5.194   3.424 -0.1254 -0.3283  0.3757
19286TIP3    H179349   0.544   5.254   3.423 -0.6817 -1.0041  0.6260
19286TIP3    H279350   0.691   5.246   3.461 -0.3766  0.4315 -0.1840
19287TIP3   OH279351   3.401   2.238  14.485 -0.1440  0.0450  0.1030
19287TIP3    H179352   3.391   2.240  14.390 -0.2082 -0.0275  0.1084
19287TIP3    H279353   3.390   2.330  14.511 -1.1506 -0.0740  0.1458
19288TIP3   OH279354   3.348   5.432   3.356  0.3021 -0.8039  0.0892
19288TIP3    H179355   3.287   5.499   3.324  1.9871  0.1194 -1.3845
19288TIP3    H279356   3.393   5.402   3.277  2.3513 -0.8101  1.2060
19289TIP3   OH279357   1.636   4.382  15.239 -0.3265 -0.1758  0.0913
19289TIP3    H179358   1.579   4.382  15.316  0.3023 -0.4888  0.5627
19289TIP3    H279359   1.694   4.458  15.252  1.5442 -1.7294  1.2738
19290TIP3   OH279360   5.327   2.409  10.408 -0.4930  0.0834 -0.5245
19290TIP3    H179361   5.391   2.460  10.457  2.0901  0.3713 -3.8365
19290TIP3    H279362   5.361   2.319  10.410 -0.7509 -0.0347 -1.1181
19291TIP3   OH279363   0.295   2.422  13.499  0.1613 -0.0327  0.3347
19291TIP3    H179364   0.249   2.419  13.416 -1.3030  0.9188  1.0714
19291TIP3    H279365   0.281   2.336  13.538  0.2903 -0.2537 -0.0955
19292TIP3   OH279366   5.023   6.506  12.442  0.7095 -0.5220  0.5801
19292TIP3    H179367   4.972   6.458  12.377  0.0753  2.9317 -1.7201
19292TIP3    H279368   4.960   6.531  12.509  0.9956 -2.4351  1.6609
19293TIP3   OH279369   2.175   2.464  14.874  0.0907 -0.2446  0.0448
19293TIP3    H179370   2.185   2.535  14.811  0.9527  0.3208  0.8097
19293TIP3    H279371   2.169   2.385  14.819  2.2311  0.0734 -0.7462
19294TIP3   OH279372   4.333   3.061  11.461  0.0718  0.0434  0.7694
19294TIP3    H179373   4.405   3.090  11.516 -1.1127  1.9569  1.4329
19294TIP3    H279374   4.325   2.967  11.479  1.4231  0.0949  1.8075
19295TIP3   OH279375   6.829   0.014   1.517 -0.4347 -0.7046  0.5579
19295TIP3    H179376   6.879   0.089   1.550 -2.4256  0.2567  1.5354
19295TIP3    H279377   6.870  -0.062   1.559 -0.3545  0.1327  2.0664
19296TIP3   OH279378   4.394   2.784  15.155 -0.3970  0.3874  0.3064
19296TIP3    H179379   4.353   2.769  15.069  0.8732 -0.6247 -0.1517
19296TIP3    H279380   4.486   2.760  15.142 -0.1548  0.3584  1.9163
19297TIP3   OH279381   1.429   5.250  13.620  0.5707  0.7132  0.7492
19297TIP3    H179382   1.426   5.341  13.591 -1.3914  0.3801 -0.2592
19297TIP3    H279383   1.379   5.249  13.702  0.5546  0.5335  0.7371
19298TIP3   OH279384   0.904   0.148  15.433 -0.2503  0.4613 -0.1748
19298TIP3    H179385   0.936   0.238  15.439  0.0142  0.3001  1.0054
19298TIP3    H279386   0.982   0.094  15.427 -0.4004  0.2854 -0.5791
19299TIP3   OH279387   4.750   4.003  12.638 -0.1219  1.0892  0.6292
19299TIP3    H179388   4.678   3.972  12.694  0.1332 -0.6321  0.0773
19299TIP3    H279389   4.708   4.026  12.555  0.0004 -0.5734  0.0715
19300TIP3   OH279390   5.958   5.136  13.783 -0.7530  0.6061 -0.0483
19300TIP3    H179391   5.909   5.176  13.855 -0.6138  1.5607 -0.4663
19300TIP3    H279392   5.932   5.044  13.784  0.0203  0.3613  1.8773
19301TIP3   OH279393   4.320   5.996   2.057 -0.4759 -0.3571  0.3164
19301TIP3    H179394   4.307   5.977   2.150  0.4767  0.5368  0.6573
19301TIP3    H279395   4.264   6.071   2.039 -0.6391 -0.5120  0.1704
19302TIP3   OH279396   5.334   0.895  16.940  0.4434 -0.0872 -0.3653
19302TIP3    H179397   5.387   0.929  17.012  2.3152  0.1513 -1.7736
19302TIP3    H279398   5.397   0.849  16.884 -1.2157 -1.5935 -1.0684
19303TIP3   OH279399   1.777   5.258   5.076  0.3654  0.4159  1.0032
19303TIP3    H179400   1.788   5.270   5.171  0.7994 -0.6095  1.0938
19303TIP3    H279401   1.865   5.234   5.045  0.9307  3.4479 -0.1345
19304TIP3   OH279402   4.442   1.480  11.458 -0.5797 -0.2364  0.1577
19304TIP3    H179403   4.411   1.445  11.542 -0.1242 -1.3824 -0.1322
19304TIP3    H279404   4.362   1.509  11.414 -0.6764  2.3797  1.7979
19305TIP3   OH279405   0.188   6.777  14.812 -0.2456  0.5349 -0.5188
19305TIP3    H179406   0.226   6.855  14.852  0.1165  0.2536 -0.3083
19305TIP3    H279407   0.215   6.705  14.869 -1.9377  0.4342  0.1953
19306TIP3   OH279408   1.358   0.601  10.438  0.0891  0.2320 -0.2228
19306TIP3    H179409   1.322   0.576  10.354  0.4977  1.0987 -0.6693
19306TIP3    H279410   1.426   0.536  10.455  1.4154  1.1968 -1.5586
19307TIP3   OH279411   5.826   4.721   0.429  0.0338  0.7548 -0.0987
19307TIP3    H179412   5.816   4.755   0.340 -0.1426 -0.5109 -0.5837
19307TIP3    H279413   5.890   4.650   0.420 -0.8399 -0.1371  0.5683
19308TIP3   OH279414   0.565   4.012  10.588 -0.2361 -0.6504  0.2505
19308TIP3    H179415   0.649   4.054  10.571 -0.0464 -1.5631 -1.2241
19308TIP3    H279416   0.519   4.073  10.646  0.3991  1.1552 -1.0404
19309TIP3   OH279417   4.294   4.200  14.068  0.2886  0.1865 -0.1264
19309TIP3    H179418   4.278   4.189  14.161 -0.3180 -1.3054 -0.3668
19309TIP3    H279419   4.332   4.116  14.041 -0.9112  0.0291 -1.4704
19310TIP3   OH279420   5.156   2.839   0.641 -0.2546 -0.4941 -0.1226
19310TIP3    H179421   5.148   2.811   0.550  0.8420 -0.6348 -0.1864
19310TIP3    H279422   5.189   2.929   0.636 -1.4223 -0.0343  0.1255
19311TIP3   OH279423   5.601   6.178   5.729 -0.1655 -0.3488 -0.4158
19311TIP3    H179424   5.529   6.228   5.769 -0.1214 -1.2565  0.8599
19311TIP3    H279425   5.597   6.201   5.636 -1.0636  0.8809 -0.1083
19312TIP3   OH279426   1.957   3.202  16.002 -0.3966 -0.2949  0.5108
19312TIP3    H179427   1.995   3.276  15.955 -1.6674 -0.2865 -0.5707
19312TIP3    H279428   1.863   3.209  15.985 -0.5175 -2.3760  0.0391
19313TIP3   OH279429   6.507   1.741   2.359  0.7508  0.0241 -0.1011
19313TIP3    H179430   6.413   1.752   2.373  1.0340  1.5080  0.8243
19313TIP3    H279431   6.539   1.828   2.337  1.9557 -0.4004 -0.1009
19314TIP3   OH279432   1.122   6.724   2.395 -0.2224 -0.0763 -0.1112
19314TIP3    H179433   1.214   6.748   2.397 -0.1808 -0.2488  0.1148
19314TIP3    H279434   1.110   6.678   2.312  0.1733 -1.1360  0.3972
19315TIP3   OH279435   1.021   1.339  13.799 -0.2340  0.0575 -0.6984
19315TIP3    H179436   1.008   1.430  13.827  1.6314  0.0399  0.3833
19315TIP3    H279437   1.036   1.345  13.705  1.2332  1.0590 -0.4301
19316TIP3   OH279438   5.411   3.886   1.752  0.0114  0.0929  0.1521
19316TIP3    H179439   5.415   3.812   1.691  1.1602  1.3131 -1.3262
19316TIP3    H279440   5.318   3.896   1.771 -0.2625 -1.0233 -0.5214
19317TIP3   OH279441   2.527   2.084   3.912 -0.2341 -0.1130 -0.4056
19317TIP3    H179442   2.460   2.113   3.850 -0.0467 -0.2897 -0.6978
19317TIP3    H279443   2.520   2.145   3.986 -1.0606 -0.4516 -0.1979
19318TIP3   OH279444   1.937   5.548   3.748 -0.4864 -0.4445  0.0214
19318TIP3    H179445   1.892   5.514   3.670 -0.2247  1.3626 -0.9798
19318TIP3    H279446   2.025   5.511   3.743  0.6263  2.1344 -2.4422
19319TIP3   OH279447   6.185   2.907   0.083  0.0602 -0.5063  0.1881
19319TIP3    H179448   6.142   2.862   0.010  0.5862  0.2834 -0.6351
19319TIP3    H279449   6.166   2.999   0.069  1.4610 -0.1961  0.1418
19320TIP3   OH279450   0.797   3.594  16.590  0.3458  0.2610  0.4907
19320TIP3    H179451   0.834   3.510  16.616  0.3370 -0.4602 -1.6272
19320TIP3    H279452   0.802   3.594  16.494 -1.5766  1.7851  0.3193
19321TIP3   OH279453   5.722   0.200   0.630 -0.2835 -0.2232  0.0496
19321TIP3    H179454   5.639   0.169   0.665  0.0759 -0.6634  0.5238
19321TIP3    H279455   5.698   0.263   0.562 -1.0374 -1.7501 -1.1514
19322TIP3   OH279456   4.038   3.686  15.790  0.2945  0.1885  0.7783
19322TIP3    H179457   4.119   3.646  15.822  0.7470  0.2784 -0.2109
19322TIP3    H279458   4.066   3.742  15.718 -0.5482  0.9073  0.9922
19323TIP3   OH279459   1.890   5.871   6.399 -0.4199 -0.0465  0.3401
19323TIP3    H179460   1.974   5.848   6.361  0.5701  2.3181  0.8886
19323TIP3    H279461   1.827   5.858   6.328  0.7653  0.3563 -0.8168
19324TIP3   OH279462   2.469   5.008   5.591  0.2052 -0.2912  0.0107
19324TIP3    H179463   2.544   4.949   5.592 -0.1253 -0.7116  0.4720
19324TIP3    H279464   2.499   5.085   5.639  0.3570 -0.4381  0.1543
19325TIP3   OH279465   3.746   2.303  11.115 -0.1849  0.4599  0.1725
19325TIP3    H179466   3.822   2.304  11.056 -0.0971 -0.5916  0.2458
19325TIP3    H279467   3.681   2.356  11.070 -1.1657 -2.5611 -2.3608
19326TIP3   OH279468   4.586   4.712  11.851  0.0221  0.1074  0.0423
19326TIP3    H179469   4.658   4.764  11.888 -0.5473  0.0411  1.2555
19326TIP3    H279470   4.592   4.729  11.757  1.3083  0.5136  0.1720
19327TIP3   OH279471   3.111   0.714   5.216  0.4607  0.2190  0.5385
19327TIP3    H179472   3.183   0.776   5.228 -0.1829  0.6268  2.5973
19327TIP3    H279473   3.151   0.628   5.230  0.5852  0.4299  1.5231
19328TIP3   OH279474   4.478   3.713   5.806  0.9707 -0.1203 -0.1175
19328TIP3    H179475   4.572   3.710   5.789  0.6145 -1.2444 -2.1879
19328TIP3    H279476   4.439   3.746   5.724 -0.5235 -1.0133  0.1854
19329TIP3   OH279477   1.403   0.454   5.518 -0.2810 -0.0878 -0.0056
19329TIP3    H179478   1.329   0.430   5.462 -1.2679 -0.1118  1.2718
19329TIP3    H279479   1.392   0.402   5.597  1.5432 -0.6473 -0.0747
19330TIP3   OH279480   0.226   4.774  12.592 -0.2712  0.1371  0.1515
19330TIP3    H179481   0.307   4.765  12.541 -0.4599 -2.5546  0.1820
19330TIP3    H279482   0.235   4.859  12.636  1.5808  0.8421 -1.4455
19331TIP3   OH279483   5.314   3.828  13.257 -0.1738  0.2358 -0.3730
19331TIP3    H179484   5.352   3.809  13.343  1.0778 -0.4271 -1.0535
19331TIP3    H279485   5.229   3.783  13.258  0.3188 -0.6917  0.1062
19332TIP3   OH279486   0.121   1.240   0.242 -0.0785  0.2872 -0.4942
19332TIP3    H179487   0.042   1.270   0.198 -0.4461  0.1652  0.0728
19332TIP3    H279488   0.094   1.163   0.292  0.8966 -1.1796 -2.1063
19333TIP3   OH279489   4.958   2.518  11.717  0.3574  0.4798 -0.6921
19333TIP3    H179490   5.045   2.554  11.734  0.4182  0.0050  0.0718
19333TIP3    H279491   4.951   2.444  11.777 -1.2478  1.5714  0.5387
19334TIP3   OH279492   5.378   0.720   0.161  0.2760  0.4966  0.6611
19334TIP3    H179493   5.315   0.653   0.188 -0.1636  0.6837  0.1267
19334TIP3    H279494   5.445   0.718   0.229 -0.4376  0.4623  1.3897
19335TIP3   OH279495   6.683   6.827  13.393  0.6482  0.2744  0.0608
19335TIP3    H179496   6.620   6.898  13.400  0.8868  0.6079 -0.9971
19335TIP3    H279497   6.632   6.752  13.364  0.5912  0.3138  0.0607
19336TIP3   OH279498   4.327   4.184   6.176  0.2254 -0.0772  0.1497
19336TIP3    H179499   4.346   4.099   6.135 -0.5213 -0.4824  0.6297
19336TIP3    H279500   4.307   4.163   6.267 -0.4418  0.5577  0.1573
19337TIP3   OH279501   3.447   2.473  11.773 -0.1777 -0.5963  0.2841
19337TIP3    H179502   3.439   2.566  11.752 -0.4310 -0.4488  0.9899
19337TIP3    H279503   3.541   2.459  11.782 -0.1161 -0.4900 -0.1580
19338TIP3   OH279504   2.709   0.153   5.899 -0.2281 -0.0124  0.0395
19338TIP3    H179505   2.615   0.140   5.910 -0.3508  1.9152  1.8810
19338TIP3    H279506   2.742   0.165   5.988  1.5251  0.7879 -0.6729
19339TIP3   OH279507   0.803   5.211   2.537  0.3743 -0.3481  0.2831
19339TIP3    H179508   0.715   5.187   2.507  0.2979  0.3958 -0.1099
19339TIP3    H279509   0.811   5.304   2.516  1.0792 -0.2954  0.7582
19340TIP3   OH279510   0.143   5.727  16.933 -0.0481 -0.1971  0.2995
19340TIP3    H179511   0.177   5.744  16.845 -0.3640 -2.1988 -0.2601
19340TIP3    H279512   0.174   5.801  16.986  1.4413  0.2698 -1.1411
19341TIP3   OH279513   4.360   3.033  14.627 -0.0169  0.0747 -0.2672
19341TIP3    H179514   4.311   2.969  14.576 -2.2108  1.0734  0.4754
19341TIP3    H279515   4.327   3.118  14.596  1.7791  0.8313 -0.2170
19342TIP3   OH279516   5.035   0.302  14.087 -0.5040 -0.3223  0.1214
19342TIP3    H179517   4.945   0.330  14.068  0.0226  0.2158 -1.8444
19342TIP3    H279518   5.076   0.295  14.000  1.0999 -1.4222  0.9254
19343TIP3   OH279519   1.438   3.252   4.396  0.3838  0.7991  0.3648
19343TIP3    H179520   1.378   3.270   4.468 -1.5583 -0.5787 -0.8235
19343TIP3    H279521   1.502   3.191   4.433  0.2933  1.2524  1.3032
19344TIP3   OH279522   3.683   6.388  15.858  0.2408 -0.2908 -0.0566
19344TIP3    H179523   3.665   6.474  15.895 -1.4510 -0.7966  0.4143
19344TIP3    H279524   3.777   6.375  15.869  0.3033  0.9492  1.0692
19345TIP3   OH279525   6.760   3.521  17.027  0.2725  0.0680  0.0087
19345TIP3    H179526   6.676   3.474  17.029  0.5432 -0.3957  1.1597
19345TIP3    H279527   6.776   3.545  17.118  2.8051 -2.4279  0.3441
19346TIP3   OH279528   1.847   6.693  16.984  0.4647 -0.1928  0.6962
19346TIP3    H179529   1.902   6.697  17.063  0.6529  1.9069  0.5272
19346TIP3    H279530   1.762   6.726  17.013  0.2605 -0.3028  0.2263
19347TIP3   OH279531   3.218   3.050   2.214  0.2293 -0.4383  1.2262
19347TIP3    H179532   3.187   3.136   2.184  1.3197 -0.4801 -0.1230
19347TIP3    H279533   3.255   3.068   2.301  0.2022  0.4185  1.0776
19348TIP3   OH279534   4.349   6.057  11.399  0.1710 -1.0375  0.5356
19348TIP3    H179535   4.397   6.007  11.333  1.1603 -0.4271  0.7803
19348TIP3    H279536   4.307   6.127  11.349  1.2444 -0.3373  0.5890
19349TIP3   OH279537   3.550   2.081   4.182  0.6427  0.6885 -0.4258
19349TIP3    H179538   3.634   2.041   4.162  0.8581  1.0713 -0.3051
19349TIP3    H279539   3.554   2.098   4.276  0.0215 -0.2261 -0.2174
19350TIP3   OH279540   6.341   6.576  13.169 -0.1126 -0.2368 -0.6048
19350TIP3    H179541   6.358   6.516  13.096 -1.3539 -0.8325 -0.4179
19350TIP3    H279542   6.249   6.563  13.190  0.6838 -1.7320  2.5432
19351TIP3   OH279543   5.590   1.419   5.694  0.2000  0.1466 -0.3208
19351TIP3    H179544   5.639   1.499   5.675  0.1507 -0.1085 -1.6193
19351TIP3    H279545   5.630   1.352   5.638 -1.0607 -0.2630 -0.7749
19352TIP3   OH279546   4.258   2.977   2.229  0.3999  0.5894 -0.2655
19352TIP3    H179547   4.200   2.934   2.291  0.9821 -0.9860 -0.7566
19352TIP3    H279548   4.232   3.069   2.231 -3.6846 -0.2868 -2.1236
19353TIP3   OH279549   0.553   3.072  14.531  0.1499 -0.0780 -0.5810
19353TIP3    H179550   0.533   3.016  14.606  1.8148  1.2060  0.8973
19353TIP3    H279551   0.480   3.059  14.471  0.5557 -4.0279 -0.4658
19354TIP3   OH279552   6.573   4.171   3.454 -0.1248 -0.0145  0.3767
19354TIP3    H179553   6.500   4.141   3.401 -0.1004 -0.3330  0.5223
19354TIP3    H279554   6.650   4.126   3.418 -0.0121  0.2569  0.2746
19355TIP3   OH279555   5.262   4.991  17.056  0.1905 -0.3660  0.3579
19355TIP3    H179556   5.315   4.980  17.135  0.0507 -0.4550  0.4417
19355TIP3    H279557   5.235   4.902  17.033  1.8287 -0.5765 -0.9137
19356TIP3   OH279558   5.728   6.471   1.829 -0.4108  0.3050 -0.0310
19356TIP3    H179559   5.637   6.471   1.801 -0.5929 -0.2954  0.5304
19356TIP3    H279560   5.762   6.555   1.800 -0.4621 -0.4274 -2.3911
19357TIP3   OH279561   6.027   0.955   6.003  0.0907 -0.6379  0.0496
19357TIP3    H179562   6.112   0.986   6.034 -0.1422 -1.3951  1.5167
19357TIP3    H279563   5.980   0.930   6.082 -0.6735 -2.3577 -0.8913
19358TIP3   OH279564   5.509   3.674  16.578  0.0602 -0.2797  0.3661
19358TIP3    H179565   5.536   3.766  16.585  1.1182 -0.7372  3.9542
19358TIP3    H279566   5.419   3.679  16.544  0.5249  1.9408 -0.8090
19359TIP3   OH279567   4.288   6.788  16.115 -0.2000 -0.0547 -0.4718
19359TIP3    H179568   4.227   6.818  16.048 -1.1374 -1.1833 -0.1365
19359TIP3    H279569   4.247   6.813  16.198 -0.0723 -0.5655 -0.2537
19360TIP3   OH279570   3.269   6.321  12.691 -0.0895  0.1852  0.5791
19360TIP3    H179571   3.278   6.379  12.767 -0.8362 -1.4338  1.9645
19360TIP3    H279572   3.178   6.293  12.694 -0.8078  1.8117 -2.2787
19361TIP3   OH279573   5.912   1.285  11.088  0.6307  0.0200 -0.1029
19361TIP3    H179574   5.954   1.205  11.118  1.9796  1.1802  1.2859
19361TIP3    H279575   5.846   1.304  11.153 -0.5735 -0.6003 -1.1044
19362TIP3   OH279576   4.609   4.829  13.456  0.3299  0.0512 -0.1575
19362TIP3    H179577   4.678   4.808  13.392  0.1009 -0.0377 -0.3772
19362TIP3    H279578   4.530   4.789  13.420  0.2783 -0.3380  0.3841
19363TIP3   OH279579   6.334   4.986  12.442  0.3378  0.2070  0.2814
19363TIP3    H179580   6.324   5.075  12.408  0.4851  0.3548  0.6253
19363TIP3    H279581   6.400   4.993  12.511 -0.6448  0.0880  1.2672
19364TIP3   OH279582   1.654   2.615   3.152  0.1867  0.6413 -0.0863
19364TIP3    H179583   1.580   2.616   3.090  0.4494  1.0599 -0.3956
19364TIP3    H279584   1.680   2.707   3.160  0.7423  0.4844 -0.0573
19365TIP3   OH279585   6.090   0.002   1.557 -0.4973 -0.3452  0.4449
19365TIP3    H179586   6.169   0.006   1.502  0.3352 -1.3115  1.5334
19365TIP3    H279587   6.020  -0.021   1.496  0.0489  0.4652 -0.5311
19366TIP3   OH279588   6.714   4.260  12.574  0.0899  0.0484  0.2162
19366TIP3    H179589   6.684   4.247  12.484 -0.1261 -1.2849  0.4632
19366TIP3    H279590   6.636   4.245  12.627  0.3617  0.2086  0.6629
19367TIP3   OH279591   1.943   2.523   4.009  0.6722 -0.3011  0.6013
19367TIP3    H179592   1.920   2.560   3.924 -0.2123 -0.2258  0.8594
19367TIP3    H279593   2.027   2.479   3.995  1.0606  0.6305 -0.0422
19368TIP3   OH279594   3.772   3.110  11.425 -0.0776  0.1122 -0.1283
19368TIP3    H179595   3.846   3.085  11.370  0.1814  1.2428 -0.3224
19368TIP3    H279596   3.808   3.115  11.514  0.3172  1.5236 -0.3446
19369TIP3   OH279597   1.910   0.690  14.195  0.0491  0.5390  0.5553
19369TIP3    H179598   1.992   0.661  14.154 -0.1724 -1.0641  1.1937
19369TIP3    H279599   1.920   0.667  14.287 -1.2439  0.0441  0.5847
19370TIP3   OH279600   1.622   3.906   3.973 -0.0081  0.1335  0.3725
19370TIP3    H179601   1.586   3.840   4.033  1.5671  0.7331  2.0446
19370TIP3    H279602   1.714   3.882   3.962  0.1691  1.0763 -0.3997
19371TIP3   OH279603   6.732   2.384  10.347 -0.3036  0.4587 -0.4948
19371TIP3    H179604   6.676   2.452  10.385 -0.4343 -0.0313  0.2277
19371TIP3    H279605   6.798   2.368  10.415 -0.0151  0.1705 -0.8411
19372TIP3   OH279606   3.668   0.444   4.367 -0.3081  0.6177  0.6306
19372TIP3    H179607   3.712   0.412   4.289  0.9830 -0.4122  1.7404
19372TIP3    H279608   3.585   0.395   4.369 -0.4763  0.8421 -0.1972
19373TIP3   OH279609   6.522   0.705   0.009 -0.2791 -0.6548 -0.0075
19373TIP3    H179610   6.516   0.789  -0.037 -2.3195 -0.8207 -0.1424
19373TIP3    H279611   6.604   0.709   0.058 -0.8366  1.8683  0.8434
19374TIP3   OH279612   3.273   2.290   2.163 -0.0428 -0.2466  0.3387
19374TIP3    H179613   3.202   2.243   2.207  1.2853 -0.3502  2.5056
19374TIP3    H279614   3.263   2.381   2.191  1.2952 -0.4549  1.5889
19375TIP3   OH279615   4.858   4.237  14.450  0.0319 -0.0035  0.0305
19375TIP3    H179616   4.802   4.313  14.436  1.7061  1.1970 -0.4192
19375TIP3    H279617   4.839   4.208  14.539  0.7721  2.1933  0.9667
19376TIP3   OH279618   5.857   2.175  12.123  0.3741  0.1973  0.6438
19376TIP3    H179619   5.880   2.197  12.033  1.4151  0.1448  0.8822
19376TIP3    H279620   5.826   2.084  12.119 -0.2462  0.4223  0.2418
19377TIP3   OH279621   1.537   1.538   0.304 -0.1490  0.8596  0.4368
19377TIP3    H179622   1.557   1.465   0.245  0.1162 -1.1979  2.9100
19377TIP3    H279623   1.610   1.599   0.292  0.3373  0.0877 -0.7195
19378TIP3   OH279624   3.337   6.747   0.267 -0.5326  0.1024  0.5266
19378TIP3    H179625   3.244   6.730   0.282 -0.4138  0.8989  2.5421
19378TIP3    H279626   3.341   6.840   0.243 -0.2875 -0.0293  0.0450
19379TIP3   OH279627   4.727   4.329  14.925 -0.2207  0.1373 -0.7451
19379TIP3    H179628   4.714   4.424  14.933 -0.7661  0.2802 -2.8800
19379TIP3    H279629   4.761   4.303  15.011 -0.7264  2.1389  0.1329
19380TIP3   OH279630   1.156   0.298  12.623 -0.0491  0.1266 -0.2100
19380TIP3    H179631   1.086   0.311  12.686  0.5285 -0.2741  0.5244
19380TIP3    H279632   1.154   0.376  12.567 -0.8666  0.2601  0.0060
19381TIP3   OH279633   3.792   1.419  14.598 -0.3635 -0.3934 -0.0733
19381TIP3    H179634   3.779   1.363  14.675  0.0921 -1.6519 -0.8738
19381TIP3    H279635   3.707   1.419  14.554 -0.1580 -1.1409 -0.4927
19382TIP3   OH279636   0.473   0.462  15.130  0.4752 -0.2406 -0.7272
19382TIP3    H179637   0.568   0.473  15.137  0.4942 -1.1060  0.6450
19382TIP3    H279638   0.441   0.468  15.220 -0.7266 -0.4056 -1.1232
19383TIP3   OH279639   0.493   0.126  10.777  0.0154 -0.3199  0.0569
19383TIP3    H179640   0.418   0.151  10.724 -0.0652 -0.9327 -0.1159
19383TIP3    H279641   0.456   0.102  10.862  0.0362 -0.4741  0.0214
19384TIP3   OH279642   4.746   1.634   3.004  0.3684 -0.2474 -0.2312
19384TIP3    H179643   4.708   1.711   2.962  1.4751  1.2655  1.4114
19384TIP3    H279644   4.714   1.560   2.952 -2.6233  1.0917 -0.4936
19385TIP3   OH279645   2.624   3.698  15.359 -0.6526 -0.3236 -0.3027
19385TIP3    H179646   2.606   3.774  15.414 -1.4814 -1.7927  1.6013
19385TIP3    H279647   2.693   3.727  15.300 -0.0433  1.5247  1.1997
19386TIP3   OH279648   6.612   5.616   0.957 -0.2823 -0.0158 -0.7015
19386TIP3    H179649   6.559   5.606   1.036  0.3680  2.7635  0.2037
19386TIP3    H279650   6.698   5.582   0.982 -0.2039  0.4391 -0.3239
19387TIP3   OH279651   5.125   5.564   6.538  0.2883 -0.2172 -0.0554
19387TIP3    H179652   5.052   5.510   6.569  0.2276  0.9479  2.0380
19387TIP3    H279653   5.090   5.608   6.460 -1.0790 -0.0810  0.6063
19388TIP3   OH279654   1.414   1.052   2.901 -0.7268 -0.7192  0.1974
19388TIP3    H179655   1.464   1.133   2.912 -0.2709 -0.6030 -2.2648
19388TIP3    H279656   1.431   1.003   2.982  1.7526  0.1787  0.3095
19389TIP3   OH279657   5.147   5.685   2.450 -0.1224 -0.1071  0.1277
19389TIP3    H179658   5.237   5.682   2.419  0.3705  3.7235  0.6771
19389TIP3    H279659   5.095   5.654   2.376  1.4670  0.8918 -1.4836
19390TIP3   OH279660   4.164   5.751  14.386 -0.1196 -0.3323 -0.3144
19390TIP3    H179661   4.151   5.667  14.431 -1.1014 -1.6257 -2.8059
19390TIP3    H279662   4.156   5.730  14.293  1.9908  2.1428 -1.1867
19391TIP3   OH279663   3.889   0.990   5.648  0.2080 -0.1927  0.3635
19391TIP3    H179664   3.913   1.019   5.736  3.1469 -0.8078 -0.1258
19391TIP3    H279665   3.908   1.065   5.591  0.4542 -0.5097  0.0169
19392TIP3   OH279666   1.152   3.890   0.056 -0.1316  0.0090  0.5148
19392TIP3    H179667   1.062   3.899   0.087 -0.0262 -2.6358  1.8621
19392TIP3    H279668   1.147   3.825  -0.014  0.8580 -1.1732  1.4975
19393TIP3   OH279669   2.718   1.749   3.353 -0.0405 -0.5834 -0.0383
19393TIP3    H179670   2.771   1.751   3.432 -0.3412 -2.1226  0.2454
19393TIP3    H279671   2.631   1.777   3.381  0.2624  0.5577 -0.2051
19394TIP3   OH279672   1.387   5.191   0.860 -0.3465  0.2841 -0.5467
19394TIP3    H179673   1.477   5.214   0.836  0.7445 -1.8826  1.1347
19394TIP3    H279674   1.390   5.182   0.956 -1.9116 -1.5283 -0.6330
19395TIP3   OH279675   3.991   4.982   7.112 -0.3974  0.6937 -0.3609
19395TIP3    H179676   4.018   4.920   7.045 -1.1590 -0.2831  0.2024
19395TIP3    H279677   3.911   5.022   7.077  0.0659  1.3371 -0.7021
19396TIP3   OH279678   0.980   0.922  16.282  0.0061  0.1803 -0.2299
19396TIP3    H179679   0.961   0.987  16.349 -0.8128 -0.1327 -0.1439
19396TIP3    H279680   0.910   0.934  16.217  0.4204  0.0506 -0.7023
19397TIP3   OH279681   1.884   6.724   5.905  0.2064 -0.5386 -0.3646
19397TIP3    H179682   1.965   6.676   5.926  0.5288 -0.1727 -0.7664
19397TIP3    H279683   1.904   6.815   5.929  0.3939 -0.2027 -1.7348
19398TIP3   OH279684   1.370   3.635  12.573 -1.0732 -0.3743  0.0288
19398TIP3    H179685   1.348   3.717  12.617  2.0052  0.5961  0.0731
19398TIP3    H279686   1.443   3.659  12.515 -0.2970 -3.0094 -0.2165
19399TIP3   OH279687   4.949   4.475   5.806  0.2450 -0.7972 -0.9665
19399TIP3    H179688   5.039   4.446   5.791  1.7002  2.6938  0.1357
19399TIP3    H279689   4.929   4.532   5.731 -1.7487 -2.6779 -2.0115
19400TIP3   OH279690   6.332   4.723  16.556 -0.2069 -0.3397  0.6601
19400TIP3    H179691   6.267   4.660  16.526 -0.9943 -0.3824  2.3744
19400TIP3    H279692   6.358   4.692  16.642  0.6528  0.7542  0.8180
19401TIP3   OH279693   6.856   3.813   3.768 -0.0347 -0.6950  0.0836
19401TIP3    H179694   6.880   3.773   3.685  1.7346  0.0934  0.1655
19401TIP3    H279695   6.765   3.788   3.782 -0.1531 -1.4085 -1.7456
19402TIP3   OH279696   4.258   6.610  13.667 -0.3252  0.3701  0.0360
19402TIP3    H179697   4.294   6.605  13.578  0.5048  1.4640  0.2908
19402TIP3    H279698   4.307   6.545  13.717  0.2705  0.8130  0.0343
19403TIP3   OH279699   6.495   2.672  13.843  0.2859 -0.0627 -0.1290
19403TIP3    H179700   6.530   2.719  13.767  0.9546  0.5771  0.5731
19403TIP3    H279701   6.413   2.634  13.811 -1.2608  3.0544 -0.2564
19404TIP3   OH279702   0.139   4.561   5.905 -0.2580  0.1760  0.7680
19404TIP3    H179703   0.160   4.473   5.936 -0.5825 -0.0444  0.3785
19404TIP3    H279704   0.064   4.589   5.957 -2.0476 -0.9612 -1.0583
19405TIP3   OH279705   0.511   3.247  12.493  0.2320  0.5570  0.1640
19405TIP3    H179706   0.504   3.341  12.480 -0.3615  0.4426 -0.3737
19405TIP3    H279707   0.426   3.212  12.467  0.6223 -0.1863 -0.1743
19406TIP3   OH279708   6.016   2.515   0.452  0.3974 -0.0266  0.4608
19406TIP3    H179709   6.020   2.609   0.470  1.4623  0.4259 -1.7485
19406TIP3    H279710   6.108   2.488   0.445  0.1036 -0.8204 -0.7336
19407TIP3   OH279711   6.410   2.052  16.614  0.1631 -0.0853 -0.3443
19407TIP3    H179712   6.430   1.994  16.541 -0.5701 -1.2092  0.3153
19407TIP3    H279713   6.489   2.105  16.625  0.3661 -0.0578 -1.7860
19408TIP3   OH279714   0.730   6.685  16.349  0.2537 -0.0925  0.2260
19408TIP3    H179715   0.746   6.731  16.431  0.3809  2.1371 -0.9930
19408TIP3    H279716   0.640   6.651  16.358  0.4043 -0.2143  1.4095
19409TIP3   OH279717   5.354   1.245   5.684  0.8895 -0.7475 -0.3867
19409TIP3    H179718   5.330   1.197   5.763  0.1084 -0.2206 -0.2931
19409TIP3    H279719   5.418   1.310   5.714 -1.5157  1.4219  0.4415
19410TIP3   OH279720   6.461   5.108   1.051  0.3817 -0.1811 -0.0491
19410TIP3    H179721   6.517   5.124   1.128  0.1643 -1.1409  0.3206
19410TIP3    H279722   6.400   5.181   1.050 -0.0474 -0.5040  1.0988
19411TIP3   OH279723   6.598   4.207   3.076 -0.3752  0.2056  0.0153
19411TIP3    H179724   6.555   4.173   3.155  1.5571 -0.1007  0.9829
19411TIP3    H279725   6.526   4.242   3.024 -1.6794  0.9258  2.1519
19412TIP3   OH279726   4.096   6.506  13.062 -0.4774  0.8307  0.2645
19412TIP3    H179727   4.185   6.500  13.026 -0.3991 -1.6740  0.6457
19412TIP3    H279728   4.106   6.556  13.142  0.4404  1.3120 -0.1308
19413TIP3   OH279729   1.396   2.434  11.193  0.1783  0.2193 -0.3879
19413TIP3    H179730   1.367   2.343  11.199  0.1285  0.3182  1.4315
19413TIP3    H279731   1.315   2.485  11.193  0.2213  0.3285  0.8569
19414TIP3   OH279732   0.937   4.087  11.634  0.1765 -0.1036 -0.3028
19414TIP3    H179733   0.920   4.148  11.705  0.7802  0.6664 -0.8023
19414TIP3    H279734   0.877   4.112  11.565  2.2718  1.7990 -1.5808
19415TIP3   OH279735   1.406   4.637  16.337 -0.2995  0.4964 -0.3537
19415TIP3    H179736   1.405   4.550  16.296 -0.2859  1.2598 -2.0704
19415TIP3    H279737   1.482   4.635  16.396 -0.6618 -0.8385  0.1162
19416TIP3   OH279738   3.394   0.152   5.865  0.2065 -0.1013  0.4550
19416TIP3    H179739   3.394   0.057   5.878  0.1183  0.0644  1.9012
19416TIP3    H279740   3.313   0.170   5.819  0.2073 -0.7280  0.1987
19417TIP3   OH279741   0.233   0.812   0.602  0.4118  0.0345 -0.1398
19417TIP3    H179742   0.281   0.895   0.601  0.6091 -0.0810 -0.8986
19417TIP3    H279743   0.169   0.823   0.672 -0.2817  1.2516 -0.9038
19418TIP3   OH279744   3.817   2.319   5.181  0.1265 -0.3861  0.5491
19418TIP3    H179745   3.820   2.385   5.250 -1.8060 -0.1489  0.4644
19418TIP3    H279746   3.890   2.342   5.123  0.4807  0.6803  1.3774
19419TIP3   OH279747   2.202   4.415   0.449  0.0260 -0.4769 -0.2915
19419TIP3    H179748   2.275   4.362   0.415  0.4592 -0.4272  0.5492
19419TIP3    H279749   2.139   4.350   0.480  0.0127 -0.5132 -0.3933
19420TIP3   OH279750   1.907   3.565  13.804  0.1858  0.2643 -0.0357
19420TIP3    H179751   1.826   3.615  13.798  0.1413  0.5487  2.3010
19420TIP3    H279752   1.904   3.506  13.728 -1.6281  1.0575 -0.6290
19421TIP3   OH279753   1.395   2.740   2.964 -0.0385 -0.6346  0.0992
19421TIP3    H179754   1.343   2.720   2.886 -0.3379  0.5802 -0.0491
19421TIP3    H279755   1.329   2.764   3.030  0.1121 -2.9706  1.1969
19422TIP3   OH279756   4.359   1.016  16.454  0.1161 -0.4727 -0.0065
19422TIP3    H179757   4.427   0.949  16.452  0.3878 -0.2251  0.6046
19422TIP3    H279758   4.330   1.025  16.363 -1.5472 -3.0311  0.1730
19423TIP3   OH279759   3.679   6.232   1.905  0.0030  0.3557  0.2389
19423TIP3    H179760   3.770   6.222   1.933  0.0427  1.3939  0.5186
19423TIP3    H279761   3.628   6.221   1.985  0.0518  2.2054  0.5810
19424TIP3   OH279762   5.030   4.622   5.576 -0.4219  0.6470 -0.2192
19424TIP3    H179763   5.122   4.648   5.571 -0.3573  0.2548 -1.3560
19424TIP3    H279764   4.984   4.703   5.598  0.3786  0.4396  2.5651
19425TIP3   OH279765   2.581   3.530   3.786 -0.0293 -0.3507  0.0610
19425TIP3    H179766   2.650   3.474   3.822 -0.0497 -1.2637 -1.2394
19425TIP3    H279767   2.546   3.480   3.712 -3.8687 -1.1486  2.1079
19426TIP3   OH279768   3.913   4.198   3.177 -0.4757 -0.0553  0.0395
19426TIP3    H179769   3.981   4.172   3.239 -0.2980  1.4091  0.4813
19426TIP3    H279770   3.898   4.119   3.124  0.0933 -1.0249  1.2598
19427TIP3   OH279771   4.269   3.870  14.337 -0.3891 -0.1408  0.1633
19427TIP3    H179772   4.222   3.787  14.347 -0.5338 -0.0085  0.6191
19427TIP3    H279773   4.349   3.859  14.388 -0.8838  0.3570  1.0568
19428TIP3   OH279774   1.723   6.346   1.087  0.1959  0.5037  0.2978
19428TIP3    H179775   1.680   6.275   1.135 -1.2425  1.2206  0.0963
19428TIP3    H279776   1.804   6.361   1.136  0.3737 -1.0352  0.5408
19429TIP3   OH279777   0.886   6.232  15.936  0.1197  0.3922 -0.3828
19429TIP3    H179778   0.927   6.237  16.022 -0.0184  0.2239 -0.3083
19429TIP3    H279779   0.903   6.318  15.896  0.9222  0.1738 -0.5261
19430TIP3   OH279780   5.882   0.747  14.983  0.3361 -0.0523 -0.2884
19430TIP3    H179781   5.967   0.725  15.020  1.1015  1.8179 -0.8199
19430TIP3    H279782   5.901   0.773  14.892 -0.8023  0.2967 -0.4417
19431TIP3   OH279783   5.753   5.674  14.967  0.6765 -0.5416 -0.8710
19431TIP3    H179784   5.686   5.743  14.958  0.0714 -1.2246 -1.7774
19431TIP3    H279785   5.813   5.691  14.895  1.4371  0.0010 -0.1233
19432TIP3   OH279786   4.853   2.086  14.270  0.1906  0.6412 -0.3371
19432TIP3    H179787   4.792   2.120  14.204  1.2933  1.1740 -1.1026
19432TIP3    H279788   4.808   2.100  14.353 -0.7702  0.9392 -0.8893
19433TIP3   OH279789   6.684   3.199  11.919  0.1004  0.4753 -0.7343
19433TIP3    H179790   6.754   3.254  11.885  0.0412  0.4954 -0.8270
19433TIP3    H279791   6.617   3.200  11.850 -0.6770  1.7141 -0.0035
19434TIP3   OH279792   2.235   4.449  11.360 -0.1893 -0.3167 -0.7740
19434TIP3    H179793   2.212   4.366  11.320 -0.2069 -0.5550 -0.2709
19434TIP3    H279794   2.331   4.445  11.369 -0.2576 -0.5485 -0.1606
19435TIP3   OH279795   0.259   3.146  15.978 -0.1994  0.3756 -0.7415
19435TIP3    H179796   0.334   3.202  15.998 -1.2860  1.9980 -1.0746
19435TIP3    H279797   0.213   3.137  16.061 -0.4835  0.6885 -0.8623
19436TIP3   OH279798   5.607   3.555  11.264 -0.6173  0.3036  0.0918
19436TIP3    H179799   5.637   3.636  11.307 -0.5869  0.7019 -0.6664
19436TIP3    H279800   5.517   3.545  11.295 -0.8881  1.0626 -0.4082
19437TIP3   OH279801   0.560   6.271  13.408 -0.1227  0.6424 -0.1852
19437TIP3    H179802   0.466   6.288  13.413 -0.6514 -1.8179 -0.3875
19437TIP3    H279803   0.568   6.204  13.340  1.5186 -0.7084  1.2509
19438TIP3   OH279804   2.343   1.304  15.886 -0.6727  0.4440 -0.8252
19438TIP3    H179805   2.350   1.212  15.864  0.0886 -0.2935  2.0666
19438TIP3    H279806   2.305   1.305  15.974 -1.6836  2.9524 -1.2092
19439TIP3   OH279807   6.209   5.069   4.235  0.2126  0.1066 -0.3351
19439TIP3    H179808   6.220   5.129   4.162  0.8460  0.0770 -0.2760
19439TIP3    H279809   6.229   5.122   4.312 -0.5949  0.1750 -0.1703
19440TIP3   OH279810   4.563   1.972   5.166  0.2286 -0.1260  0.5033
19440TIP3    H179811   4.547   1.879   5.180 -0.9619  0.1559  1.1163
19440TIP3    H279812   4.624   1.997   5.235 -0.1628 -0.2485  0.8925
19441TIP3   OH279813   0.528   4.660   4.856  0.5062  0.1922  0.2855
19441TIP3    H179814   0.569   4.626   4.776  0.9104  0.9875  0.1423
19441TIP3    H279815   0.437   4.632   4.850  0.1043  1.6650 -1.3058
19442TIP3   OH279816   5.055   4.632   3.971 -0.2136  0.1809 -0.0820
19442TIP3    H179817   5.003   4.591   4.040 -0.2302 -0.9066 -0.7126
19442TIP3    H279818   5.125   4.678   4.017 -0.9929  0.6107  0.7135
19443TIP3   OH279819   1.546   2.751  12.698  0.0726 -0.3504 -0.1771
19443TIP3    H179820   1.550   2.670  12.750  1.1711 -1.1915 -1.5157
19443TIP3    H279821   1.540   2.721  12.608  0.4288  1.0682 -0.6933
19444TIP3   OH279822   4.872   4.853   1.290 -0.2855 -0.0175  0.1443
19444TIP3    H179823   4.859   4.907   1.212  2.3939  0.9096  0.2410
19444TIP3    H279824   4.892   4.766   1.257  0.3949  0.2682 -0.2061
19445TIP3   OH279825   1.939   3.025  12.234  0.8574 -0.2407 -0.5363
19445TIP3    H179826   1.862   3.004  12.181  1.8813 -1.4595 -1.6298
19445TIP3    H279827   1.903   3.058  12.317 -0.8101  0.8187 -1.6037
19446TIP3   OH279828   0.736   2.781   3.226 -0.2796 -0.8388  0.3762
19446TIP3    H179829   0.769   2.694   3.246 -1.9901 -1.2826  1.5891
19446TIP3    H279830   0.676   2.768   3.152  0.7981 -0.3715 -0.5977
19447TIP3   OH279831   1.318   6.457  12.428  0.1513  0.8810 -0.5623
19447TIP3    H179832   1.236   6.471  12.475 -0.1442  0.2082 -0.8733
19447TIP3    H279833   1.321   6.364  12.409  1.4280  0.7297  0.2301
19448TIP3   OH279834   2.721   0.605  11.842  0.1051 -0.8072 -0.3523
19448TIP3    H179835   2.787   0.592  11.774  0.6822 -1.4263  0.3091
19448TIP3    H279836   2.698   0.517  11.870  1.0639 -0.5544  1.3630
19449TIP3   OH279837   1.165   2.021   5.887 -0.2722  0.5713 -0.1024
19449TIP3    H179838   1.227   2.019   5.961  2.1791  0.9442 -2.0062
19449TIP3    H279839   1.171   2.110   5.853 -1.1397  0.3265 -0.9463
19450TIP3   OH279840   3.816   0.910  14.592  0.2423 -0.0757 -0.0408
19450TIP3    H179841   3.796   0.891  14.683  0.5818 -1.3016 -0.1895
19450TIP3    H279842   3.733   0.937  14.553 -0.1265 -0.5392  0.4113
19451TIP3   OH279843   4.742   2.320   3.438 -0.3078  0.8117  0.0936
19451TIP3    H179844   4.683   2.252   3.471  1.8050 -0.3858  1.5725
19451TIP3    H279845   4.715   2.332   3.347 -0.7053 -2.0971 -0.2621
19452TIP3   OH279846   0.801   0.183   0.813 -0.5519 -0.3204  0.2744
19452TIP3    H179847   0.742   0.193   0.738  1.4941  0.4646 -1.3592
19452TIP3    H279848   0.793   0.091   0.839  0.5922 -1.3970 -2.7255
19453TIP3   OH279849   3.572   5.103   6.513  0.1778 -0.0106 -0.0193
19453TIP3    H179850   3.663   5.097   6.483  0.3917 -1.0201  0.7532
19453TIP3    H279851   3.522   5.054   6.447  0.1362  0.8452 -0.6337
19454TIP3   OH279852   5.555   5.375   2.459 -0.2124  0.0168 -0.0108
19454TIP3    H179853   5.488   5.308   2.473 -0.5528 -0.0583 -1.7977
19454TIP3    H279854   5.622   5.331   2.408  0.2126  0.6722 -0.0270
19455TIP3   OH279855   0.325   1.520  12.449 -0.0571 -0.1118 -0.2785
19455TIP3    H179856   0.383   1.466  12.395  0.4471 -0.9367  1.0245
19455TIP3    H279857   0.273   1.456  12.499 -1.5490  0.6169 -0.8416
19456TIP3   OH279858   1.012   0.606   2.257 -0.5477 -0.2748  0.4243
19456TIP3    H179859   0.974   0.627   2.172  0.6194  1.2050  0.2287
19456TIP3    H279860   0.947   0.636   2.320 -1.5072 -1.5573  0.0859
19457TIP3   OH279861   6.379   4.801   3.057 -0.7746 -0.1461  0.6150
19457TIP3    H179862   6.431   4.852   2.994 -0.2761 -0.9659  0.3558
19457TIP3    H279863   6.295   4.848   3.061 -0.2351  0.8581  0.5953
19458TIP3   OH279864   6.141   0.671   1.195  0.5610 -0.4658  0.4703
19458TIP3    H179865   6.099   0.684   1.110  0.4922 -1.9343  0.2538
19458TIP3    H279866   6.218   0.728   1.192  1.2283 -1.3493 -1.0853
19459TIP3   OH279867   6.591   1.383   3.077 -0.0306 -1.0476  0.3364
19459TIP3    H179868   6.658   1.390   3.145  0.7765 -0.2778 -0.4965
19459TIP3    H279869   6.623   1.314   3.019 -0.2990 -1.1458  0.3068
19460TIP3   OH279870   5.378   6.692   6.376 -0.3282 -0.4147 -0.2568
19460TIP3    H179871   5.417   6.623   6.323  1.7908 -0.4497  1.2049
19460TIP3    H279872   5.387   6.771   6.323  0.7604 -0.6302 -0.4101
19461TIP3   OH279873   5.071   4.748   2.810  0.0928  0.0498  0.0088
19461TIP3    H179874   5.037   4.818   2.865  0.1822  2.0992 -2.3385
19461TIP3    H279875   5.004   4.735   2.743 -0.4142 -2.9640  0.9951
19462TIP3   OH279876   5.674   2.776  13.717 -0.0181  0.3774  0.3046
19462TIP3    H179877   5.606   2.817  13.770 -1.7479 -2.0303  0.1341
19462TIP3    H279878   5.751   2.772  13.775 -0.6437  1.3204  1.2322
19463TIP3   OH279879   0.730   1.643   5.384  0.2305 -0.5143 -0.0260
19463TIP3    H179880   0.645   1.609   5.413  0.3065 -0.7955 -0.1330
19463TIP3    H279881   0.749   1.714   5.446  0.2856 -0.9619  0.4819
19464TIP3   OH279882   5.352   4.869  12.081 -0.2052 -0.1052  0.4466
19464TIP3    H179883   5.400   4.924  12.018  0.9923 -1.7830 -0.1785
19464TIP3    H279884   5.314   4.800  12.027 -0.1268 -0.9290  1.4351
19465TIP3   OH279885   3.058   0.252  12.450 -0.3869  0.3029  0.0747
19465TIP3    H179886   3.054   0.186  12.381  0.5264  0.3271 -0.0163
19465TIP3    H279887   3.010   0.213  12.524 -0.7575 -0.0168 -0.3321
19466TIP3   OH279888   0.585   5.046  16.130  0.0714 -0.5515  0.1275
19466TIP3    H179889   0.584   4.965  16.078  0.1596 -0.3630 -0.1740
19466TIP3    H279890   0.677   5.062  16.147  0.2722  0.7137 -1.7892
19467TIP3   OH279891   3.494   2.506   3.279 -0.5645 -0.0286 -0.0974
19467TIP3    H179892   3.464   2.462   3.358  2.5877 -0.8785  0.7557
19467TIP3    H279893   3.485   2.599   3.298 -1.0851 -0.2319  0.7032
19468TIP3   OH279894   2.076   1.185  11.401 -0.2200  0.5852  0.4064
19468TIP3    H179895   2.047   1.245  11.332 -0.1981 -0.8223 -0.8769
19468TIP3    H279896   2.141   1.235  11.450 -0.6046  1.7982 -0.2773
19469TIP3   OH279897   3.414   2.561  12.871  0.3095  0.3302 -0.5074
19469TIP3    H179898   3.433   2.467  12.868  0.5667  0.2154  2.3169
19469TIP3    H279899   3.466   2.598  12.800 -0.8025 -1.7574 -2.5544
19470TIP3   OH279900   1.331   3.152  14.853  0.3776 -0.0386 -0.1566
19470TIP3    H179901   1.391   3.200  14.796  0.5760 -0.5841 -0.4065
19470TIP3    H279902   1.309   3.215  14.923  0.8425  0.3261 -0.3343
19471TIP3   OH279903   6.261   2.652   5.575 -0.1067  0.0983 -0.5658
19471TIP3    H179904   6.184   2.687   5.531 -0.2805  0.1394 -0.2306
19471TIP3    H279905   6.229   2.622   5.660 -0.0077 -1.1204 -0.9381
19472TIP3   OH279906   3.094   3.943  14.433  0.1014 -0.5297  0.1670
19472TIP3    H179907   3.155   3.877  14.400 -0.3611 -0.8170 -0.1217
19472TIP3    H279908   3.008   3.913  14.405 -0.1807 -0.1370  0.5861
19473TIP3   OH279909   3.822   5.287  10.882 -0.2089  0.1323  0.9664
19473TIP3    H179910   3.910   5.312  10.852 -1.1366  1.7544 -0.6010
19473TIP3    H279911   3.807   5.202  10.840 -0.3382  1.0285 -0.9372
19474TIP3   OH279912   2.198   3.266  14.539 -0.4434  0.0321  0.0063
19474TIP3    H179913   2.194   3.350  14.587 -1.9437  0.1422 -0.2939
19474TIP3    H279914   2.251   3.286  14.462 -1.6389  0.9824 -0.5902
19475TIP3   OH279915   6.020   4.803  13.154  0.0514 -0.2713  0.1327
19475TIP3    H179916   6.023   4.708  13.145 -2.3629 -0.4892  0.8296
19475TIP3    H279917   6.003   4.817  13.248 -3.0443  0.6236 -0.4561
19476TIP3   OH279918   1.275   1.263  11.233  0.1505 -0.1212  0.0074
19476TIP3    H179919   1.240   1.216  11.308 -1.4767 -1.9508 -1.7799
19476TIP3    H279920   1.355   1.216  11.210 -0.1756 -0.5380 -0.3014
19477TIP3   OH279921   6.351   0.818  11.140  0.3165  0.1386  0.5852
19477TIP3    H179922   6.329   0.791  11.051  0.4406  2.3682 -0.1933
19477TIP3    H279923   6.393   0.741  11.179 -1.8412 -1.6863 -0.4372
19478TIP3   OH279924   3.909   0.279   0.756 -0.1550 -0.0755  0.2583
19478TIP3    H179925   3.982   0.306   0.699 -0.2421  0.3321  0.3400
19478TIP3    H279926   3.934   0.308   0.843  0.1501 -1.0326  0.5045
19479TIP3   OH279927   1.254   3.470  16.466 -0.5152 -0.1068  0.6916
19479TIP3    H179928   1.265   3.401  16.401 -1.2480 -0.7754  1.2539
19479TIP3    H279929   1.245   3.424  16.549 -0.4809  0.6916  1.1489
19480TIP3   OH279930   1.207   5.546  12.801  0.1415  0.3127 -0.6926
19480TIP3    H179931   1.182   5.637  12.786 -0.3324  0.2939 -0.0698
19480TIP3    H279932   1.151   5.517  12.873  1.6146  0.0930  0.4132
19481TIP3   OH279933   0.511   3.469  14.751  0.1766 -0.5355 -0.0122
19481TIP3    H179934   0.503   3.523  14.672  0.2510 -1.2968 -0.5520
19481TIP3    H279935   0.446   3.400  14.740 -0.5421 -0.0687  1.0917
19482TIP3   OH279936   0.504   4.821  14.999  0.1472 -0.1700  0.9106
19482TIP3    H179937   0.591   4.792  14.970 -0.0177 -1.0751  1.2547
19482TIP3    H279938   0.446   4.747  14.979 -0.9423  1.1316 -1.0416
19483TIP3   OH279939   1.428   6.117  14.380 -0.5353 -0.1233  0.5339
19483TIP3    H179940   1.391   6.163  14.305  0.0711  0.9730  0.8847
19483TIP3    H279941   1.509   6.164  14.400 -0.8125 -0.2161  2.0338
19484TIP3   OH279942   6.658   2.507  16.702  0.0730 -0.4556 -0.1512
19484TIP3    H179943   6.612   2.584  16.668  1.5858  0.6501  0.1867
19484TIP3    H279944   6.593   2.462  16.756 -0.8902  0.5182 -0.4639
19485TIP3   OH279945   4.247   1.830   4.557  0.0770  0.4976  0.1837
19485TIP3    H179946   4.187   1.778   4.611 -1.3236 -0.2215 -1.9113
19485TIP3    H279947   4.322   1.846   4.613 -0.7969 -1.1392  1.9539
19486TIP3   OH279948   2.785   3.231   1.534  0.4542  0.0127 -0.4342
19486TIP3    H179949   2.691   3.249   1.529  0.4752  0.1352 -0.3923
19486TIP3    H279950   2.790   3.138   1.554  0.3498 -0.1488 -1.1323
19487TIP3   OH279951   4.038   6.373   6.053 -0.8982  0.3039  0.2403
19487TIP3    H179952   4.037   6.430   6.130 -3.1656 -0.7207  1.0552
19487TIP3    H279953   3.981   6.417   5.989 -1.1977 -0.1529  0.1872
19488TIP3   OH279954   4.962   3.569  15.023 -0.3443  0.2582  0.4027
19488TIP3    H179955   4.903   3.494  15.024 -0.1781  0.1316  0.8774
19488TIP3    H279956   4.984   3.584  15.115  0.0480  0.5536  0.2657
19489TIP3   OH279957   4.197   2.118  14.194  0.0805  0.4647  0.2466
19489TIP3    H179958   4.281   2.077  14.173 -0.1450 -0.2297  0.6798
19489TIP3    H279959   4.134   2.046  14.194 -0.6760  1.1012 -0.9086
19490TIP3   OH279960   2.387   6.097  15.325 -0.3541  0.8817 -0.0595
19490TIP3    H179961   2.306   6.054  15.295 -0.3682  1.9190 -1.6190
19490TIP3    H279962   2.368   6.190  15.320  0.7312  1.1262  0.2027
19491TIP3   OH279963   3.063   6.819   0.686  0.7579  0.6284 -0.5929
19491TIP3    H179964   3.138   6.766   0.658  0.1606  0.3723 -1.7818
19491TIP3    H279965   3.078   6.834   0.779  1.7306 -0.3332 -0.5698
19492TIP3   OH279966   5.026   2.579  16.710  0.7334 -0.3267  0.2731
19492TIP3    H179967   4.970   2.514  16.751  0.1047 -0.3108 -0.5514
19492TIP3    H279968   4.969   2.626  16.650  1.6758 -0.4809 -0.7736
19493TIP3   OH279969   2.622   2.555  13.562 -0.0887  0.0839  0.3214
19493TIP3    H179970   2.612   2.462  13.540 -0.2120 -0.0875  1.0713
19493TIP3    H279971   2.651   2.596  13.481 -1.1259 -0.4177 -0.3276
19494TIP3   OH279972   4.325   2.518  12.345  0.1665 -0.5018  0.0940
19494TIP3    H179973   4.343   2.442  12.400  0.1007 -1.0555 -0.6332
19494TIP3    H279974   4.382   2.506  12.269 -0.1206 -0.0148 -0.2023
19495TIP3   OH279975   0.830   4.132   5.144 -0.4551 -0.5133  0.1451
19495TIP3    H179976   0.878   4.068   5.091  0.1884 -0.4010  0.5837
19495TIP3    H279977   0.896   4.167   5.204 -0.7109  0.7766 -0.2855
19496TIP3   OH279978   5.149   6.675  14.263  0.2095 -0.2991  0.7385
19496TIP3    H179979   5.082   6.608  14.280 -0.8570  0.6536  0.4696
19496TIP3    H279980   5.232   6.631  14.279 -0.4556 -1.7135  0.4560
19497TIP3   OH279981   6.805   5.170   3.194  0.3350  0.1657 -0.0984
19497TIP3    H179982   6.738   5.126   3.247  1.5899 -0.4779  1.0179
19497TIP3    H279983   6.805   5.123   3.111 -1.4882  1.0242 -0.6319
19498TIP3   OH279984   6.311   3.166  15.021 -0.6710  0.6842 -0.4071
19498TIP3    H179985   6.257   3.239  15.049 -1.5616 -0.2060  0.2981
19498TIP3    H279986   6.314   3.108  15.098 -1.0915 -0.6339 -1.3451
19499TIP3   OH279987   3.241   0.754  12.576  0.0574  0.0672  0.3241
19499TIP3    H179988   3.213   0.669  12.541 -1.1033  0.8091 -0.6278
19499TIP3    H279989   3.160   0.797  12.601  0.7306  0.3723  2.1343
19500TIP3   OH279990   5.733   0.768  10.649 -0.2146 -0.1594  0.3215
19500TIP3    H179991   5.698   0.747  10.736  0.2137  0.6140  0.6916
19500TIP3    H279992   5.689   0.849  10.625  1.9057  1.3207  1.1714
19501TIP3   OH279993   4.734   5.048  15.231 -0.6846 -0.3294 -0.0545
19501TIP3    H179994   4.736   5.083  15.320 -1.3900  1.5222 -0.7145
19501TIP3    H279995   4.735   4.953  15.242 -0.7722 -0.1350  1.9163
19502TIP3   OH279996   2.331   1.107   6.078 -0.1649 -0.0902  0.4680
19502TIP3    H179997   2.389   1.034   6.057  0.2335  0.5157 -0.6318
19502TIP3    H279998   2.386   1.167   6.129  0.8384  1.3635 -2.1309
19503TIP3   OH279999   2.441   1.965  12.044 -0.2685 -0.0447 -0.2685
19503TIP3    H180000   2.449   2.056  12.070 -1.0614 -0.0968  0.2017
19503TIP3    H280001   2.418   1.919  12.124  0.1702 -0.6671 -0.4956
19504TIP3   OH280002   2.120   6.165  14.379 -0.1154  0.5986  0.2010
19504TIP3    H180003   2.134   6.095  14.443  0.7793 -1.1740 -1.8385
19504TIP3    H280004   2.205   6.210  14.375  0.1821 -0.0074 -0.5220
19505TIP3   OH280005   1.767   1.432  14.881 -0.0538 -0.4021 -0.4042
19505TIP3    H180006   1.780   1.483  14.801 -1.8341 -0.9294 -1.0674
19505TIP3    H280007   1.739   1.346  14.851 -0.9537 -0.5480  0.7666
19506TIP3   OH280008   4.399   1.053  11.849 -0.2305 -0.3832 -0.5441
19506TIP3    H180009   4.313   1.012  11.861  0.9241 -2.4911  1.0915
19506TIP3    H280010   4.401   1.123  11.915 -0.5282 -0.6124 -0.2862
19507TIP3   OH280011   4.160   3.365  13.686  0.4379 -1.0404 -0.2953
19507TIP3    H180012   4.213   3.342  13.762  1.6125  0.0016 -0.7604
19507TIP3    H280013   4.116   3.447  13.711 -0.5175 -1.5904 -0.1301
19508TIP3   OH280014   4.562   3.148  15.430  0.3464 -0.0776  0.3486
19508TIP3    H180015   4.511   3.075  15.395 -1.6550  1.6471 -0.5908
19508TIP3    H280016   4.501   3.194  15.488  2.0170  0.0679  2.0914
19509TIP3   OH280017   5.268   3.352  12.348 -0.4074  0.0824 -0.3026
19509TIP3    H180018   5.233   3.368  12.435 -2.1775 -1.4534 -0.6631
19509TIP3    H280019   5.362   3.341  12.361 -0.3560  1.7415  1.0914
19510TIP3   OH280020   0.921   2.731  14.205 -0.1568  0.1161 -0.3684
19510TIP3    H180021   0.844   2.741  14.148  1.6385  1.5179 -2.7527
19510TIP3    H280022   0.946   2.821  14.226  1.8516 -0.2070 -1.1766
19511TIP3   OH280023   0.592   1.761  12.898 -0.1047  0.2235 -0.1148
19511TIP3    H180024   0.526   1.701  12.864  0.1863  0.8568 -1.9286
19511TIP3    H280025   0.670   1.707  12.911 -1.0119 -0.5955  2.3549
19512TIP3   OH280026   6.342   5.522   5.333 -0.0461 -0.0725 -0.6159
19512TIP3    H180027   6.254   5.511   5.370  0.0297 -0.4413 -0.5405
19512TIP3    H280028   6.352   5.449   5.272  1.1847 -1.6087  1.2958
19513TIP3   OH280029   1.857   4.670  15.793 -0.0655  0.2820  0.6114
19513TIP3    H180030   1.852   4.725  15.871  0.6547  0.4880  0.5237
19513TIP3    H280031   1.945   4.686  15.758  0.2368 -1.0778  0.6906
19514TIP3   OH280032   4.761   6.543  12.064  0.1703 -0.3553 -0.2684
19514TIP3    H180033   4.776   6.590  11.982 -1.3625 -0.3604 -0.5707
19514TIP3    H280034   4.689   6.590  12.106 -0.1238 -1.2965  0.3150
19515TIP3   OH280035   6.240   6.064  15.580 -0.5597 -0.4323 -0.0242
19515TIP3    H180036   6.174   6.130  15.602 -0.0278 -0.3125  1.3374
19515TIP3    H280037   6.265   6.026  15.664 -1.5982 -3.1549 -0.8411
19516TIP3   OH280038   1.846   4.837  15.998  0.5407 -0.1806 -0.1841
19516TIP3    H180039   1.918   4.896  16.019 -0.7783  0.9855  1.3353
19516TIP3    H280040   1.773   4.867  16.053 -1.7446  0.0012 -3.0451
19517TIP3   OH280041   3.161   0.775   1.151  0.0910  0.4173  0.1488
19517TIP3    H180042   3.094   0.757   1.085 -0.0451 -0.8157  0.5899
19517TIP3    H280043   3.227   0.827   1.105 -0.4783  0.4310 -0.6751
19518TIP3   OH280044   3.228   1.053  12.003  0.2244  0.4081  0.5674
19518TIP3    H180045   3.144   1.091  12.027 -0.2965 -1.4787  1.8981
19518TIP3    H280046   3.209   0.962  11.981  1.8608  0.0661  0.4060
19519TIP3   OH280047   2.991   2.946   3.762 -0.3943 -0.0479  0.1164
19519TIP3    H180048   2.955   2.862   3.790 -0.3043 -0.1486 -0.0695
19519TIP3    H280049   2.915   3.004   3.755 -0.4718 -0.1496  0.1135
19520TIP3   OH280050   5.352   4.094  15.292 -0.1730  0.4078 -0.1686
19520TIP3    H180051   5.311   4.090  15.378  0.9522 -1.3136  0.3441
19520TIP3    H280052   5.445   4.103  15.310  0.2592 -1.6131 -1.1308
19521TIP3   OH280053   1.111   4.616   2.049  0.0063 -0.0234  0.1795
19521TIP3    H180054   1.144   4.654   1.968 -0.1320  1.1845  0.6651
19521TIP3    H280055   1.120   4.522   2.037  0.9743  0.1790 -0.8152
19522TIP3   OH280056   2.020   6.707   2.621 -0.5459  0.0883  0.1305
19522TIP3    H180057   2.003   6.795   2.587  0.8340 -0.7916 -3.2039
19522TIP3    H280058   1.941   6.657   2.600 -0.7162  0.1427  0.6238
19523TIP3   OH280059   6.670   1.691  15.076  0.0845 -0.9802  0.2256
19523TIP3    H180060   6.737   1.642  15.030  0.0012  0.0733 -1.0964
19523TIP3    H280061   6.683   1.782  15.047  0.8807 -0.0019  3.3196
19524TIP3   OH280062   4.557   0.286   5.654 -0.2445 -0.0097  0.1719
19524TIP3    H180063   4.638   0.316   5.696 -0.9451 -0.6805  2.1219
19524TIP3    H280064   4.582   0.267   5.564  1.4305  1.1728  0.3434
19525TIP3   OH280065   6.113   3.042   6.167 -0.4230 -0.0395  0.1049
19525TIP3    H180066   6.152   3.084   6.243  1.7177 -0.4158 -0.7098
19525TIP3    H280067   6.168   3.068   6.093 -0.8683 -1.7576 -0.9119
19526TIP3   OH280068   1.365   1.413  14.804  0.4623 -0.4191 -0.5825
19526TIP3    H180069   1.436   1.425  14.740  0.7558  0.0272 -0.1786
19526TIP3    H280070   1.330   1.326  14.785  1.0118 -0.5778 -0.8934
19527TIP3   OH280071   4.137   3.440  12.751  0.4650 -0.3653  0.0314
19527TIP3    H180072   4.202   3.508  12.736  0.7010 -0.9128 -1.6128
19527TIP3    H280073   4.174   3.362  12.710 -0.6618 -1.0116  0.1923
19528TIP3   OH280074   0.423   6.483  12.666 -0.8002 -0.2126 -0.6457
19528TIP3    H180075   0.363   6.494  12.592 -0.5181 -0.7513 -0.9612
19528TIP3    H280076   0.375   6.428  12.728  0.3609 -3.0580 -2.1166
19529TIP3   OH280077   5.001   1.187   5.783 -0.0190 -0.5932  0.4017
19529TIP3    H180078   5.086   1.225   5.762 -0.4551 -0.0765 -0.4850
19529TIP3    H280079   5.017   1.134   5.861  0.6934  1.0832  1.4490
19530TIP3   OH280080   5.583   5.100   6.574  0.2724 -0.2579  0.5961
19530TIP3    H180081   5.635   5.172   6.539  0.6836 -1.0695 -0.5311
19530TIP3    H280082   5.498   5.140   6.593  0.4876  0.5325 -0.0087
19531TIP3   OH280083   0.272   6.328  13.520  0.0021  0.3260  0.0349
19531TIP3    H180084   0.266   6.237  13.550  0.5186  0.3184  0.1369
19531TIP3    H280085   0.208   6.375  13.573 -0.7422 -0.0902 -0.4830
19532TIP3   OH280086   0.229   3.010   0.212 -0.1676  0.3788 -0.4677
19532TIP3    H180087   0.193   2.930   0.250  0.0852  0.5742  0.2098
19532TIP3    H280088   0.226   2.996   0.117  0.1232 -0.5414 -0.3501
19533TIP3   OH280089   5.454   6.611  15.923  0.0630  0.2128  0.2659
19533TIP3    H180090   5.498   6.590  15.841 -0.3785 -0.8347  0.2763
19533TIP3    H280091   5.380   6.666  15.897 -0.5557 -0.7882 -0.1543
19534TIP3   OH280092   4.949   4.643  11.161  0.2145  0.0794  0.2076
19534TIP3    H180093   4.977   4.581  11.094 -1.7984 -1.0321  0.3025
19534TIP3    H280094   4.867   4.678  11.128  0.7057  1.8202  0.7302
19535TIP3   OH280095   2.357   2.505  14.296  0.5750  0.1893  0.4463
19535TIP3    H180096   2.394   2.591  14.318 -0.3146  0.9490 -0.8804
19535TIP3    H280097   2.281   2.497  14.352  0.7892  0.1724  0.7347
19536TIP3   OH280098   6.621   4.362  13.851 -0.5520  0.6913 -0.2430
19536TIP3    H180099   6.716   4.369  13.865 -0.6579  1.9468 -0.0449
19536TIP3    H280100   6.595   4.449  13.821 -1.5445  0.1633 -0.9686
19537TIP3   OH280101   4.748   2.244   3.750 -0.2058  0.1561 -0.0424
19537TIP3    H180102   4.765   2.149   3.749  0.2018  0.2159  0.6068
19537TIP3    H280103   4.653   2.251   3.760 -0.3414 -0.1769 -0.9212
19538TIP3   OH280104   4.958   0.105   2.848  0.5018 -0.1496  0.4484
19538TIP3    H180105   5.014   0.060   2.912  0.8083  0.6451  0.7623
19538TIP3    H280106   4.878   0.054   2.846  0.2843  0.0749  1.8646
19539TIP3   OH280107   0.412   2.841   5.281  0.0501 -0.0849  0.2026
19539TIP3    H180108   0.387   2.752   5.257 -0.3200 -0.2177  1.0173
19539TIP3    H280109   0.378   2.896   5.210 -3.3193 -0.1738  1.5669
19540TIP3   OH280110   6.611   4.666  14.850 -0.5937  0.1336  0.5210
19540TIP3    H180111   6.544   4.601  14.872 -0.7367  0.6856  1.8433
19540TIP3    H280112   6.594   4.739  14.911 -0.1574  1.2140 -0.6093
19541TIP3   OH280113   1.364   1.367   3.880 -0.3941  0.3146  0.0529
19541TIP3    H180114   1.358   1.356   3.975 -0.9733 -1.6913 -0.1840
19541TIP3    H280115   1.351   1.280   3.844 -0.5557  1.0911 -1.9126
19542TIP3   OH280116   2.825   4.838   6.599 -0.4081  0.3436  0.4744
19542TIP3    H180117   2.833   4.745   6.622  1.3229 -0.2715 -2.1846
19542TIP3    H280118   2.826   4.839   6.503 -0.0906  3.1331  0.4413
19543TIP3   OH280119   6.245   4.598   1.170 -0.0315  0.1985 -0.0774
19543TIP3    H180120   6.176   4.662   1.153  0.3966  1.2027  1.6980
19543TIP3    H280121   6.286   4.628   1.251  1.4121 -1.3051 -0.1972
19544TIP3   OH280122   0.890   4.173   3.410  0.2646 -0.5650 -0.1286
19544TIP3    H180123   0.802   4.137   3.401  1.0332 -2.8115  0.6461
19544TIP3    H280124   0.900   4.191   3.504 -0.9001  4.1596 -0.6776
19545TIP3   OH280125   5.778   1.004  12.371 -0.0780 -0.3188  0.2070
19545TIP3    H180126   5.848   1.062  12.339 -1.6961  2.0434  0.7326
19545TIP3    H280127   5.707   1.063  12.395 -1.0441 -2.3812  2.8912
19546TIP3   OH280128   5.564   6.097   3.583 -0.3728 -0.5584  0.5023
19546TIP3    H180129   5.571   6.057   3.496  0.3702 -0.8850  0.6991
19546TIP3    H280130   5.496   6.046   3.627 -1.8042  0.5412 -0.3618
19547TIP3   OH280131   6.495   0.363  12.632 -0.2114 -0.0490  0.5113
19547TIP3    H180132   6.506   0.268  12.626 -0.0319  0.0531 -1.2091
19547TIP3    H280133   6.574   0.394  12.675  0.8277 -0.4825 -1.0069
19548TIP3   OH280134   6.324   2.569   3.819  0.0298  0.2252  0.0103
19548TIP3    H180135   6.231   2.555   3.801 -0.1497  0.0202  1.0220
19548TIP3    H280136   6.328   2.659   3.852  0.0477 -0.0717  0.8362
19549TIP3   OH280137   3.234   0.714   5.962 -0.4723  0.1076  0.0394
19549TIP3    H180138   3.176   0.790   5.957 -0.4814  0.0609 -0.5902
19549TIP3    H280139   3.282   0.715   5.879 -1.8328 -1.6614 -0.8232
19550TIP3   OH280140   6.037   0.117   2.759 -0.4588 -0.1084 -0.0753
19550TIP3    H180141   6.097   0.046   2.733 -0.0098  0.1657  0.1931
19550TIP3    H280142   6.083   0.161   2.831 -1.3104 -0.3365  0.6208
19551TIP3   OH280143   1.630   0.473   5.083 -0.2956 -0.1736 -0.3533
19551TIP3    H180144   1.568   0.400   5.084  0.2776 -0.6649  0.7222
19551TIP3    H280145   1.692   0.452   5.013  0.0253 -0.8707  0.1317
19552TIP3   OH280146   1.986   2.731  14.315 -1.0124 -0.4329 -0.3359
19552TIP3    H180147   2.027   2.645  14.308 -1.7315 -0.6602 -2.1775
19552TIP3    H280148   1.903   2.715  14.359 -1.0847 -0.6756 -0.5579
19553TIP3   OH280149   4.911   2.256  13.532  0.0799 -0.2632  0.3195
19553TIP3    H180150   4.994   2.296  13.505 -0.3972 -0.0829 -0.9406
19553TIP3    H280151   4.936   2.168  13.562  1.1135  0.8235  2.9453
19554TIP3   OH280152   3.256   6.118   3.622  0.6587  0.3184  0.2204
19554TIP3    H180153   3.165   6.094   3.602  0.2253  2.5755 -0.8914
19554TIP3    H280154   3.269   6.201   3.576  2.0550  2.0622  3.4422
19555TIP3   OH280155   5.690   1.753   1.476  0.7507 -0.0415  0.1808
19555TIP3    H180156   5.727   1.667   1.498 -0.1269 -0.2619  0.8312
19555TIP3    H280157   5.715   1.766   1.384 -3.6939 -3.5592 -1.9279
19556TIP3   OH280158   1.985   5.221   3.008  0.3391  0.5451 -0.0136
19556TIP3    H180159   1.975   5.275   3.087 -2.1374  1.5313 -0.9015
19556TIP3    H280160   2.020   5.281   2.943  1.3491  0.0045  0.0082
19557TIP3   OH280161   3.448   2.610   3.756 -0.1242 -0.0875  0.7679
19557TIP3    H180162   3.437   2.663   3.835  3.8052 -4.4142  4.8586
19557TIP3    H280163   3.539   2.626   3.729 -0.1383 -1.6572 -0.3355
19558TIP3   OH280164   1.108   4.275  15.918 -0.1806  0.2538  0.3583
19558TIP3    H180165   1.054   4.211  15.965  0.1135 -0.8659 -0.7782
19558TIP3    H280166   1.048   4.319  15.859 -0.2691  0.6192  0.7158
19559TIP3   OH280167   6.148   1.660  15.176  0.2900 -0.2304 -0.5579
19559TIP3    H180168   6.077   1.722  15.157  0.1504  0.3773  1.6258
19559TIP3    H280169   6.228   1.708  15.157  0.1562 -0.2262 -1.1346
19560TIP3   OH280170   3.566   6.176  11.635  0.4375 -0.0266 -0.1396
19560TIP3    H180171   3.485   6.203  11.590  0.4445  0.5219  0.1659
19560TIP3    H280172   3.635   6.197  11.572  0.3160 -0.8343 -0.5462
19561TIP3   OH280173   4.832   3.815  12.288 -0.2738  0.2477  0.1881
19561TIP3    H180174   4.779   3.743  12.254 -1.7944  1.1922  0.4349
19561TIP3    H280175   4.814   3.888  12.229  0.0356  0.8324  0.8016
19562TIP3   OH280176   6.693   0.438  15.984 -0.7021 -0.3432 -0.1511
19562TIP3    H180177   6.700   0.528  16.016 -2.1534 -0.1815 -0.2087
19562TIP3    H280178   6.637   0.445  15.906 -0.4744 -1.2496 -0.4091
19563TIP3   OH280179   4.833   6.655   5.123 -0.1604 -0.0248  0.1503
19563TIP3    H180180   4.804   6.745   5.110 -2.2769 -0.6870  0.0480
19563TIP3    H280181   4.854   6.624   5.034 -1.7918 -0.3629 -0.1481
19564TIP3   OH280182   2.052   4.408  15.926  0.3361 -0.0079 -0.1028
19564TIP3    H180183   1.983   4.391  15.862 -1.0856  0.0794  1.3391
19564TIP3    H280184   2.007   4.448  16.001  2.2565  2.0344  0.1008
19565TIP3   OH280185   3.859   3.720  12.450 -0.1623  0.2043 -0.1389
19565TIP3    H180186   3.914   3.642  12.449 -2.0609 -1.3990  3.1025
19565TIP3    H280187   3.920   3.793  12.464  1.4211 -1.0573 -0.2200
19566TIP3   OH280188   0.959   5.267   2.229 -0.2073  0.4451  0.0051
19566TIP3    H180189   1.036   5.324   2.237  1.3310 -1.3702 -0.9283
19566TIP3    H280190   0.948   5.254   2.135 -0.3129 -0.9835  0.1845
19567TIP3   OH280191   6.306   4.941  14.564  0.2013 -0.1804 -0.3148
19567TIP3    H180192   6.223   4.898  14.542  0.3492 -0.6870  0.1099
19567TIP3    H280193   6.305   4.948  14.659  0.5019  0.1066 -0.3322
19568TIP3   OH280194   5.276   4.875  13.516  0.2951  0.1626 -0.4464
19568TIP3    H180195   5.186   4.907  13.514  0.2663  0.0511 -0.8195
19568TIP3    H280196   5.307   4.899  13.604  0.8509  2.8354 -1.2766
19569TIP3   OH280197   5.439   5.908   4.281 -0.2224 -0.4499  0.2396
19569TIP3    H180198   5.451   5.888   4.188  1.3630  0.1919  0.2944
19569TIP3    H280199   5.510   5.861   4.325 -1.3502 -1.2991  1.2290
19570TIP3   OH280200   5.604   4.835   5.977 -0.2568 -0.0648  0.0969
19570TIP3    H180201   5.575   4.914   6.023 -0.0568 -0.3317  0.6780
19570TIP3    H280202   5.523   4.785   5.963 -0.1869 -0.4796  1.0995
19571TIP3   OH280203   4.130   0.005  11.063  0.0746 -0.0137 -0.1119
19571TIP3    H180204   4.206   0.031  11.115  0.3497 -2.1660  0.6806
19571TIP3    H280205   4.154   0.026  10.973  2.2508 -1.8247 -0.0654
19572TIP3   OH280206   6.067   6.635   3.377  0.7356 -0.0107 -0.5330
19572TIP3    H180207   6.057   6.553   3.426  1.0128 -0.4416 -1.1811
19572TIP3    H280208   6.130   6.685   3.428 -1.1344  0.7807  1.0895
19573TIP3   OH280209   5.989   1.015  13.662 -0.1988  0.0402 -0.4100
19573TIP3    H180210   5.951   1.045  13.580  0.3592 -0.9488 -1.0491
19573TIP3    H280211   6.076   1.054  13.665 -0.1437 -0.0817 -0.3884
19574TIP3   OH280212   6.515   1.210  12.699  0.5129  0.2674  0.4140
19574TIP3    H180213   6.583   1.215  12.632  0.0877  0.8433  0.0064
19574TIP3    H280214   6.520   1.121  12.732 -1.6875 -1.3666 -3.0119
19575TIP3   OH280215   2.739   6.693   1.439  0.1176  0.0511  0.5785
19575TIP3    H180216   2.654   6.727   1.467 -0.1693  0.6847 -0.9120
19575TIP3    H280217   2.762   6.627   1.504 -1.6073 -0.2712  0.9185
19576TIP3   OH280218   4.965   5.917  14.406 -0.4331  0.0967  0.4240
19576TIP3    H180219   5.024   5.853  14.447 -0.3830  0.2491  0.5922
19576TIP3    H280220   4.894   5.928  14.470 -0.2220  0.5328  0.5906
19577TIP3   OH280221   2.277   6.815  13.102 -0.4012  0.1898 -0.5739
19577TIP3    H180222   2.221   6.883  13.065 -0.6633 -0.3797 -1.2575
19577TIP3    H280223   2.234   6.733  13.077 -0.1533 -0.2323  0.3265
19578TIP3   OH280224   6.226   6.009   4.325  0.0120  0.0898 -0.2668
19578TIP3    H180225   6.237   6.057   4.407  0.1392 -3.1728  1.8043
19578TIP3    H280226   6.137   5.973   4.330  0.5504 -1.3838 -0.8028
19579TIP3   OH280227   3.239   5.106   2.195 -0.4368  0.7926 -0.7759
19579TIP3    H180228   3.191   5.121   2.113 -0.5721 -0.2995 -0.9083
19579TIP3    H280229   3.174   5.068   2.254 -0.7612  2.9866  0.3856
19580TIP3   OH280230   1.326   4.373   4.256 -0.3256  0.0411 -0.7969
19580TIP3    H180231   1.326   4.462   4.220 -1.5172  0.0464 -0.8226
19580TIP3    H280232   1.356   4.318   4.184  0.8927  0.4608 -0.6332
19581TIP3   OH280233   0.055   5.750  14.235  0.2427 -0.2064 -0.2330
19581TIP3    H180234   0.076   5.720  14.323 -0.8444  0.0998  0.1462
19581TIP3    H280235   0.126   5.716  14.180 -0.7783 -3.3843  0.1830
19582TIP3   OH280236   4.742   0.411  12.911 -0.0905 -0.0270  0.1965
19582TIP3    H180237   4.698   0.393  12.995  1.8732 -0.5211  1.1752
19582TIP3    H280238   4.763   0.325  12.876 -0.7869  0.1816 -0.7964
19583TIP3   OH280239   1.853   1.188   5.702  0.5453  0.3905 -0.3838
19583TIP3    H180240   1.850   1.095   5.725  1.2237  0.1970 -1.0566
19583TIP3    H280241   1.765   1.208   5.671  0.5362 -0.1517 -0.7099
19584TIP3   OH280242   4.668   1.882   0.829 -0.2786 -0.2483 -0.5154
19584TIP3    H180243   4.735   1.949   0.842 -1.3643  0.7200  0.2500
19584TIP3    H280244   4.712   1.800   0.852  0.5096  0.4081  0.3906
19585TIP3   OH280245   6.521   1.564  12.866 -0.0602 -0.2576 -0.4507
19585TIP3    H180246   6.479   1.492  12.914  0.2676  0.8569  1.6193
19585TIP3    H280247   6.472   1.642  12.892 -0.2917  0.3471 -2.5139
19586TIP3   OH280248   3.350   3.243   0.311 -0.7894 -0.1053  0.2041
19586TIP3    H180249   3.295   3.292   0.250  1.7089  1.2083 -1.1595
19586TIP3    H280250   3.437   3.245   0.271  0.8799  0.3615  3.5368
19587TIP3   OH280251   0.895   4.890  12.285  0.5471  0.5963  0.2469
19587TIP3    H180252   0.831   4.937  12.232  1.1016  0.3323 -0.6673
19587TIP3    H280253   0.885   4.927  12.373 -0.0075  1.4151 -0.1516
19588TIP3   OH280254   4.579   5.873  13.855  0.2975 -0.4315  0.3031
19588TIP3    H180255   4.665   5.830  13.860  1.1270  1.2118  0.9125
19588TIP3    H280256   4.581   5.922  13.773 -0.3262 -0.8803  0.0078
19589TIP3   OH280257   3.547   0.224  15.037 -0.0423 -0.1343  0.0659
19589TIP3    H180258   3.477   0.204  15.099 -1.5434  2.4516 -0.6866
19589TIP3    H280259   3.506   0.218  14.951  1.8306 -2.9161 -0.7856
19590TIP3   OH280260   2.674   0.418   0.404 -0.4134 -0.0938 -0.2327
19590TIP3    H180261   2.714   0.341   0.364 -1.0964 -0.0158 -1.0779
19590TIP3    H280262   2.583   0.392   0.421 -0.2091 -0.0522  1.0849
19591TIP3   OH280263   2.001   3.347   4.152  0.2961  0.3530 -0.3903
19591TIP3    H180264   2.040   3.280   4.209  1.4339 -0.0305 -1.5601
19591TIP3    H280265   1.923   3.377   4.199  0.4439 -0.9213  0.7179
19592TIP3   OH280266   3.493   4.546   5.111 -0.6299  0.4119 -0.8156
19592TIP3    H180267   3.448   4.597   5.043 -3.0253  0.6094  0.8227
19592TIP3    H280268   3.519   4.611   5.176 -0.0748 -0.0023 -0.6226
19593TIP3   OH280269   5.051   1.864   4.737  0.3108  0.0329 -0.1875
19593TIP3    H180270   4.958   1.886   4.739  0.5677  1.1696  1.2612
19593TIP3    H280271   5.058   1.792   4.674 -1.7861 -1.1457  0.8225
19594TIP3   OH280272   0.716   0.215  11.050 -0.1221 -0.1231  0.1229
19594TIP3    H180273   0.665   0.239  10.973  1.7291  0.5459 -0.9392
19594TIP3    H280274   0.772   0.144  11.021 -0.3782 -0.8209  1.2643
19595TIP3   OH280275   1.337   0.364  16.565  0.0554  0.3679  0.2004
19595TIP3    H180276   1.277   0.295  16.594 -0.2418 -0.4625 -2.1865
19595TIP3    H280277   1.305   0.443  16.608 -3.7986  0.2758 -2.0886
19596TIP3   OH280278   4.737   5.786  15.769  0.0448 -1.0413  0.0393
19596TIP3    H180279   4.747   5.711  15.828 -1.2447 -0.2844  1.2736
19596TIP3    H280280   4.642   5.802  15.767  0.3998  1.8133  1.4607
19597TIP3   OH280281   3.589   6.446   2.633  0.2480 -0.1489 -0.8584
19597TIP3    H180282   3.627   6.370   2.677  1.1108  0.6629 -0.1721
19597TIP3    H280283   3.494   6.431   2.638  0.3876 -0.9868 -0.4004
19598TIP3   OH280284   3.184   0.013  13.913  0.0955  0.1155 -0.6677
19598TIP3    H180285   3.108   0.065  13.887 -0.7940 -1.1220 -0.6619
19598TIP3    H280286   3.253   0.077  13.927 -0.1838  1.1079 -3.2019
19599TIP3   OH280287   0.692   4.111  10.939  0.0058  0.1069 -0.4220
19599TIP3    H180288   0.659   4.096  11.028  1.9512  0.1327  0.3567
19599TIP3    H280289   0.620   4.154  10.893 -1.4299 -0.8712  0.8087
19600TIP3   OH280290   4.874   2.238  15.174 -0.1773  0.4541 -0.0103
19600TIP3    H180291   4.896   2.279  15.090  0.0630  0.7726  0.2060
19600TIP3    H280292   4.954   2.244  15.225  0.0984 -0.9525 -0.2319
19601TIP3   OH280293   5.989   4.630  15.705  0.3906 -0.1429 -0.4470
19601TIP3    H180294   6.065   4.677  15.670  0.9409 -1.5776 -1.2421
19601TIP3    H280295   6.013   4.612  15.796 -0.1362  1.6848  0.1103
19602TIP3   OH280296   5.340   0.443  12.243 -0.1769 -0.3427  0.8056
19602TIP3    H180297   5.345   0.351  12.266  2.1516 -0.4313  0.1756
19602TIP3    H280298   5.413   0.484  12.288 -0.3702  0.9510  0.0148
19603TIP3   OH280299   4.717   5.534  14.392 -0.6434  0.2882 -0.0731
19603TIP3    H180300   4.717   5.505  14.301 -0.4309  1.9350 -0.6275
19603TIP3    H280301   4.809   5.554  14.412 -0.5932 -0.6406  0.7177
19604TIP3   OH280302   3.338   1.911  13.178 -0.3598 -0.1750  0.3623
19604TIP3    H180303   3.427   1.919  13.213 -1.0607 -0.7213  2.4175
19604TIP3    H280304   3.309   1.824  13.207 -1.5776  0.0181 -0.2383
19605TIP3   OH280305   3.004   1.583  13.231 -0.8419 -0.1155  0.1290
19605TIP3    H180306   2.937   1.515  13.231  1.0900 -2.1715  1.7941
19605TIP3    H280307   3.007   1.614  13.141 -2.3654 -1.6391 -0.4968
19606TIP3   OH280308   4.655   6.299   3.587  0.8364 -0.2601  0.0467
19606TIP3    H180309   4.605   6.228   3.545 -0.1402  0.0959  0.5615
19606TIP3    H280310   4.588   6.365   3.608  1.8289  1.2229 -1.2155
19607TIP3   OH280311   0.501   0.262   2.086 -0.0840  0.1464 -0.4084
19607TIP3    H180312   0.433   0.317   2.125 -0.2381  0.9976 -1.8069
19607TIP3    H280313   0.525   0.307   2.004  2.5056  0.1364  0.2533
19608TIP3   OH280314   3.561   1.353  15.029  0.4626  0.3167 -0.2675
19608TIP3    H180315   3.540   1.437  15.068  2.3463  1.4067 -1.4255
19608TIP3    H280316   3.490   1.295  15.055 -1.1546  2.3877  0.1308
19609TIP3   OH280317   2.623   6.319  13.666  0.4414  0.0900 -0.4309
19609TIP3    H180318   2.595   6.379  13.597  0.3793  0.2403 -0.2734
19609TIP3    H280319   2.718   6.315  13.658  0.2979 -1.8019 -2.1390
19610TIP3   OH280320   1.221   3.224   2.623 -0.6925 -0.0300  0.0121
19610TIP3    H180321   1.171   3.244   2.544  1.1922  1.4402 -0.9047
19610TIP3    H280322   1.302   3.185   2.591 -0.8344 -1.5653  1.3988
19611TIP3   OH280323   5.081   2.561   0.054  0.1749 -0.1384 -0.2658
19611TIP3    H180324   5.138   2.485   0.059 -0.0090 -0.2125  1.5836
19611TIP3    H280325   5.139   2.634   0.030  0.6931 -0.5417 -0.2470
19612TIP3   OH280326   3.794   6.773   3.095  0.2786  0.1369  0.0984
19612TIP3    H180327   3.727   6.833   3.063 -0.1132  0.1684  0.9516
19612TIP3    H280328   3.806   6.710   3.024 -0.8526 -0.0289  0.0367
19613TIP3   OH280329   1.665   3.060  10.645  0.1327 -0.1840  0.3490
19613TIP3    H180330   1.702   2.998  10.583 -2.7692 -2.6179  0.8264
19613TIP3    H280331   1.575   3.073  10.616 -0.9066 -0.2903  3.1686
19614TIP3   OH280332   5.843   6.268  14.758  0.0279  0.4814  0.0676
19614TIP3    H180333   5.891   6.294  14.837  0.3641  0.0597  0.0067
19614TIP3    H280334   5.775   6.209  14.789  0.2975  0.1429  0.0199
19615TIP3   OH280335   0.318   0.481   5.495  0.4157  0.2070  0.6250
19615TIP3    H180336   0.306   0.510   5.586  0.6697  3.8680 -0.3674
19615TIP3    H280337   0.405   0.441   5.494 -0.1825 -1.3073  2.2265
19616TIP3   OH280338   0.529   2.200  11.621  0.4715  0.0850  0.2981
19616TIP3    H180339   0.557   2.135  11.685  1.7772  0.9508  0.6395
19616TIP3    H280340   0.570   2.173  11.539  0.9765  0.4463  0.4293
19617TIP3   OH280341   4.958   5.978   5.903  0.0588  0.4304  0.0664
19617TIP3    H180342   4.929   6.030   5.827  0.6582  2.1412  0.9605
19617TIP3    H280343   4.888   5.989   5.967 -0.0152 -0.2622  0.1090
19618TIP3   OH280344   4.118   2.469  13.309 -0.3009 -0.4315 -0.0293
19618TIP3    H180345   4.103   2.526  13.385 -0.8118 -0.8622  0.1990
19618TIP3    H280346   4.093   2.523  13.234  1.8425  0.6150 -0.0714
19619TIP3   OH280347   0.631   2.378  15.282 -0.3255 -0.2395  0.0145
19619TIP3    H180348   0.654   2.464  15.246  0.5607 -0.1857  0.6648
19619TIP3    H280349   0.606   2.326  15.206 -0.2752  0.4148 -0.4605
19620TIP3   OH280350   6.833   5.904  16.068  0.1958  0.2322 -0.3839
19620TIP3    H180351   6.894   5.855  16.123  0.2208 -0.9880 -1.4503
19620TIP3    H280352   6.870   5.899  15.980 -1.6228 -0.8846 -1.1431
19621TIP3   OH280353   4.325   2.250   5.588 -0.1959  0.1980  0.1426
19621TIP3    H180354   4.407   2.271   5.544 -0.2149 -3.1580 -1.8443
19621TIP3    H280355   4.347   2.180   5.649 -1.2007  0.9376  1.4091
19622TIP3   OH280356   5.700   0.247   2.188  0.7787  0.2250 -0.0671
19622TIP3    H180357   5.638   0.302   2.140  2.1381  0.8399 -1.2042
19622TIP3    H280358   5.727   0.300   2.262  0.5347  0.2650 -0.0053
19623TIP3   OH280359   1.744   4.261   2.139 -0.0907 -0.6382  0.1290
19623TIP3    H180360   1.734   4.188   2.200 -0.2516  0.2777  1.2437
19623TIP3    H280361   1.665   4.314   2.153 -0.1255 -0.4063 -0.8848
19624TIP3   OH280362   1.867   4.071  11.587 -0.0772  0.1960  0.7256
19624TIP3    H180363   1.829   4.148  11.630  1.9959  0.4560  2.2401
19624TIP3    H280364   1.943   4.106  11.540  0.0800 -0.7354  0.2790
19625TIP3   OH280365   6.283   2.122  12.522 -0.1159 -0.2372  0.2969
19625TIP3    H180366   6.268   2.059  12.592 -0.0750 -0.9505 -0.3340
19625TIP3    H280367   6.372   2.105  12.493 -0.0620  0.1935  0.1966
19626TIP3   OH280368   3.546   0.113  10.875  0.5747 -0.0388  0.2293
19626TIP3    H180369   3.462   0.098  10.918  0.2049  1.2328 -0.0292
19626TIP3    H280370   3.524   0.145  10.788  1.3225  0.9160  0.3730
19627TIP3   OH280371   0.102   3.544   5.368 -1.0781 -0.1379 -0.0858
19627TIP3    H180372   0.031   3.526   5.306 -0.9432  0.2301 -0.3447
19627TIP3    H280373   0.144   3.459   5.381 -1.0638 -0.2052 -0.5495
19628TIP3   OH280374   2.723   0.880  14.009  0.8850  0.6407  0.3372
19628TIP3    H180375   2.663   0.864  13.937  1.5516  2.3715 -0.6571
19628TIP3    H280376   2.745   0.793  14.042 -0.4956 -0.1121 -0.6448
19629TIP3   OH280377   3.441   1.728  11.646  0.1771  0.2741 -0.3793
19629TIP3    H180378   3.385   1.650  11.638  0.5457  0.1312 -1.9074
19629TIP3    H280379   3.521   1.695  11.686 -0.0479  0.0796 -0.0785
19630TIP3   OH280380   0.688   0.950  13.696 -0.0539 -0.2646 -0.2685
19630TIP3    H180381   0.669   1.043  13.708 -0.6107 -0.5114  0.9703
19630TIP3    H280382   0.728   0.923  13.779 -0.9802 -1.3886 -0.1611
19631TIP3   OH280383   5.830   4.210   1.472 -0.0303  0.0463  0.1914
19631TIP3    H180384   5.848   4.278   1.536  0.5059  0.6836 -0.6051
19631TIP3    H280385   5.757   4.161   1.508  0.7871 -0.1304  1.6641
19632TIP3   OH280386   0.632   0.158   4.756 -0.5281 -0.4065  0.2855
19632TIP3    H180387   0.558   0.100   4.774 -0.4883 -0.5622 -0.0617
19632TIP3    H280388   0.616   0.193   4.669 -0.1078 -0.5709  0.1375
19633TIP3   OH280389   6.350   4.845  14.306 -0.5629 -0.2817  0.1753
19633TIP3    H180390   6.437   4.884  14.318 -0.8658  0.0868  1.3075
19633TIP3    H280391   6.294   4.892  14.367 -1.6051 -0.4185 -0.6467
19634TIP3   OH280392   6.056   5.499  14.909 -0.5539  0.3646  0.9317
19634TIP3    H180393   6.131   5.518  14.965  0.0807  1.1311 -0.1348
19634TIP3    H280394   6.048   5.577  14.853 -0.4876 -0.7753 -0.7532
19635TIP3   OH280395   6.425   5.973   1.926 -0.0855 -0.2215 -0.4160
19635TIP3    H180396   6.483   5.931   1.861 -0.3449  0.2971 -0.9942
19635TIP3    H280397   6.380   5.900   1.968 -1.3557 -0.5249 -2.1765
19636TIP3   OH280398   1.444   6.206   5.690 -0.1089 -0.0376 -0.2846
19636TIP3    H180399   1.439   6.114   5.664 -0.3231  0.0557 -0.5696
19636TIP3    H280400   1.365   6.220   5.742  0.7777 -0.4821  1.2531
19637TIP3   OH280401   6.091   1.131   5.779 -0.2192 -0.0500  0.5041
19637TIP3    H180402   6.060   1.069   5.845 -1.3896  1.7122  1.7184
19637TIP3    H280403   6.169   1.091   5.741 -0.7043 -2.0360  1.5167
19638TIP3   OH280404   0.247   6.766  13.749  0.2527  0.1565 -0.3834
19638TIP3    H180405   0.198   6.720  13.681 -0.4605 -1.1674  0.9587
19638TIP3    H280406   0.180   6.814  13.798  0.9146  2.2640 -1.4010
19639TIP3   OH280407   6.012   0.251  12.141 -0.6987 -0.5245 -0.2422
19639TIP3    H180408   5.949   0.216  12.078 -0.5571 -0.1931 -0.5702
19639TIP3    H280409   6.090   0.198  12.129  0.1964  1.0945 -2.1094
19640TIP3   OH280410   0.504   3.940  13.751  0.2717  0.4075 -0.1091
19640TIP3    H180411   0.551   3.963  13.831 -0.3623  0.0914  0.3586
19640TIP3    H280412   0.412   3.957  13.771  0.0795  0.0913 -0.6883
19641TIP3   OH280413   5.067   4.588  15.344 -0.0736  0.8715  0.2947
19641TIP3    H180414   5.002   4.581  15.274  2.6936 -2.6747 -2.2888
19641TIP3    H280415   5.044   4.518  15.405  1.4266 -0.8511 -0.9737
19642TIP3   OH280416   4.917   2.029   0.626 -0.1335 -0.8167 -0.2416
19642TIP3    H180417   4.875   2.078   0.555  1.3987 -0.6699 -1.0925
19642TIP3    H280418   4.903   2.083   0.704 -0.7314 -0.3382 -0.6712
19643TIP3   OH280419   3.260   1.700   1.531  0.0492 -0.1833  0.1237
19643TIP3    H180420   3.277   1.609   1.509  0.6273 -0.2720  0.8762
19643TIP3    H280421   3.273   1.704   1.626  0.9394  0.8688 -0.0278
19644TIP3   OH280422   0.423   1.528  14.441  0.3616 -0.4158 -0.1332
19644TIP3    H180423   0.498   1.582  14.417 -0.7465  0.1320 -2.7288
19644TIP3    H280424   0.347   1.586  14.434 -0.8573 -2.1006 -2.8625
19645TIP3   OH280425   0.351   4.073  16.740 -0.6101  0.0822 -0.0458
19645TIP3    H180426   0.279   4.012  16.727 -0.0932 -0.5296 -0.1018
19645TIP3    H280427   0.357   4.083  16.835 -2.5513  2.3346 -0.0647
19646TIP3   OH280428   5.563   3.143   1.831  0.6275 -0.5917 -0.4590
19646TIP3    H180429   5.597   3.149   1.920 -0.7363 -1.4510  0.1622
19646TIP3    H280430   5.640   3.155   1.775  1.1658  2.2727  0.7474
19647TIP3   OH280431   0.843   0.851  14.935  0.4261 -0.4953 -0.0472
19647TIP3    H180432   0.871   0.942  14.924 -0.6922  0.0436  1.3194
19647TIP3    H280433   0.820   0.822  14.847  1.9883  0.1061 -0.7014
19648TIP3   OH280434   4.148   1.632   0.905  0.3226  0.4138 -0.6212
19648TIP3    H180435   4.064   1.611   0.947  0.2811  0.6930 -0.5612
19648TIP3    H280436   4.214   1.602   0.967  0.2912 -0.8042 -1.1402
19649TIP3   OH280437   1.216   1.738   3.570 -0.5294  0.0560  0.3438
19649TIP3    H180438   1.128   1.763   3.541 -0.4915  0.1953  0.3482
19649TIP3    H280439   1.221   1.769   3.660 -0.0510  1.1393 -0.0304
19650TIP3   OH280440   2.595   6.548  11.850  0.0802  0.1476  0.1176
19650TIP3    H180441   2.555   6.612  11.909  0.1992  0.1344  0.2134
19650TIP3    H280442   2.561   6.464  11.879  0.9405  0.0321  0.8383
19651TIP3   OH280443   0.314   5.559  11.126  0.3712 -0.3347 -0.4168
19651TIP3    H180444   0.246   5.536  11.063  0.5626 -0.1987 -0.6780
19651TIP3    H280445   0.275   5.627  11.180  0.1408 -0.5838 -0.2676
19652TIP3   OH280446   5.426   6.178   0.425  0.3836 -0.1480  0.0187
19652TIP3    H180447   5.459   6.245   0.485  1.3251  0.3509 -1.0191
19652TIP3    H280448   5.333   6.198   0.416  0.2560 -0.1479  1.1805
19653TIP3   OH280449   2.675   3.873   5.716  0.1392  0.3699  0.0118
19653TIP3    H180450   2.748   3.902   5.770  1.3919 -2.2990 -0.0586
19653TIP3    H280451   2.661   3.945   5.655  3.2346  0.7504 -0.4506
19654TIP3   OH280452   4.644   3.858  14.707  0.2355  0.1348  0.4606
19654TIP3    H180453   4.695   3.790  14.751 -1.0997 -1.6734 -0.6386
19654TIP3    H280454   4.603   3.907  14.778  0.1827 -1.0541  1.2808
19655TIP3   OH280455   4.436   3.433   1.275 -0.3161 -0.0777  0.0525
19655TIP3    H180456   4.509   3.375   1.299  0.8676  0.9282 -0.9554
19655TIP3    H280457   4.387   3.444   1.356 -1.3228 -3.4254  0.0421
19656TIP3   OH280458   6.454   6.218   5.145  0.1413  0.5604 -0.0886
19656TIP3    H180459   6.365   6.184   5.157  0.3826 -0.2531 -0.5220
19656TIP3    H280460   6.456   6.299   5.196 -0.3417 -0.2696  1.2853
19657TIP3   OH280461   1.790   1.396   1.022  0.4111  0.4390  0.6622
19657TIP3    H180462   1.712   1.416   0.970 -1.0652  0.4599  2.7610
19657TIP3    H280463   1.822   1.313   0.987 -0.1443  0.7603 -0.6742
19658TIP3   OH280464   0.298   6.316  15.546  0.5229 -0.0064 -0.1564
19658TIP3    H180465   0.370   6.326  15.609 -0.4517  1.0219  0.8321
19658TIP3    H280466   0.268   6.405  15.530 -0.3160 -0.4052 -0.8134
19659TIP3   OH280467   4.693   1.260  14.068 -0.1884  0.0035  0.4067
19659TIP3    H180468   4.782   1.234  14.093 -0.5388  0.3138  2.1424
19659TIP3    H280469   4.669   1.328  14.132 -1.8768 -0.4875  0.3551
19660TIP3   OH280470   5.684   1.770   2.855  0.1793 -0.4822 -0.4979
19660TIP3    H180471   5.615   1.740   2.915 -0.7446  0.7982 -0.8863
19660TIP3    H280472   5.652   1.746   2.768  0.3213 -0.0540 -0.6660
19661TIP3   OH280473   6.280   0.459   0.443  0.6707 -0.0253  0.0671
19661TIP3    H180474   6.258   0.490   0.530 -0.2633 -0.4431 -0.0134
19661TIP3    H280475   6.265   0.535   0.386  4.0761  1.2039  0.5718
19662TIP3   OH280476   1.444   0.042   4.722 -0.5434  0.3053  0.2114
19662TIP3    H180477   1.450  -0.053   4.707 -0.3554  0.6392 -2.4351
19662TIP3    H280478   1.398   0.051   4.805  1.6061 -2.1042  1.8397
19663TIP3   OH280479   5.127   4.290   1.074  0.3785 -0.9631  0.0578
19663TIP3    H180480   5.190   4.258   1.010 -0.5479 -2.8324  0.0375
19663TIP3    H280481   5.043   4.256   1.044 -0.4019 -0.0039  1.0751
19664TIP3   OH280482   0.426   4.621  10.565 -0.0494 -0.1743  0.5718
19664TIP3    H180483   0.469   4.539  10.540 -1.7185 -0.8490 -0.2307
19664TIP3    H280484   0.395   4.658  10.482 -0.2574  0.7284  1.0351
19665TIP3   OH280485   4.595   5.674  12.292  0.0213 -0.0428  0.2946
19665TIP3    H180486   4.657   5.683  12.220 -1.5550  1.6559 -0.9382
19665TIP3    H280487   4.580   5.580  12.300 -0.3565 -0.2500 -2.1562
19666TIP3   OH280488   3.174   6.278   3.852 -0.4070 -0.2242  0.4069
19666TIP3    H180489   3.109   6.252   3.786 -0.1085 -0.2819  0.1322
19666TIP3    H280490   3.123   6.321   3.920 -0.6673  0.2801 -0.0946
19667TIP3   OH280491   3.170   3.989  14.702 -0.3488  0.1982 -0.4292
19667TIP3    H180492   3.131   3.968  14.616  0.4984  2.6060 -1.4733
19667TIP3    H280493   3.099   4.031  14.751 -0.3831  0.2629 -0.5345
19668TIP3   OH280494   4.827   3.884  14.498  0.2409  0.3424 -0.0525
19668TIP3    H180495   4.900   3.929  14.540 -0.2648 -0.3720  1.6831
19668TIP3    H280496   4.759   3.880  14.566 -0.2606 -1.7095 -0.6121
19669TIP3   OH280497   2.301   0.002   2.607 -0.1927  0.4906 -0.6433
19669TIP3    H180498   2.246  -0.012   2.530 -0.4962  0.9260 -0.5097
19669TIP3    H280499   2.308  -0.084   2.648  0.1974  0.1951 -1.2995
19670TIP3   OH280500   0.880   1.659  13.324  0.2061  0.1072 -0.0740
19670TIP3    H180501   0.894   1.651  13.418  0.4784  0.3072 -0.0964
19670TIP3    H280502   0.819   1.588  13.303 -0.9808  0.9244  0.4876
19671TIP3   OH280503   0.621   1.885  14.952  0.1400  0.0605  0.1051
19671TIP3    H180504   0.685   1.904  14.883  0.2760  0.7778  0.4202
19671TIP3    H280505   0.567   1.815  14.916  2.0477 -1.6694  0.4022
19672TIP3   OH280506   5.999   4.958  13.389 -0.4780 -0.2258  0.1469
19672TIP3    H180507   5.908   4.976  13.413 -0.0366  1.4570  0.7259
19672TIP3    H280508   6.023   5.032  13.333  0.4437 -0.8290 -0.2626
19673TIP3   OH280509   4.401   6.040  16.789  0.5631  0.5911 -0.0270
19673TIP3    H180510   4.412   6.115  16.848  1.4749  1.2385 -0.9902
19673TIP3    H280511   4.482   5.989  16.800  0.9764  0.9989 -1.0929
19674TIP3   OH280512   0.825   5.955  16.323 -0.4776  0.2158 -0.2333
19674TIP3    H180513   0.737   5.925  16.349 -0.8034  0.8194 -0.6261
19674TIP3    H280514   0.876   5.949  16.403 -0.2447 -2.3611 -0.4871
19675TIP3   OH280515   5.139   2.225   6.243 -0.0584 -0.1323 -0.2172
19675TIP3    H180516   5.137   2.252   6.335  1.1252 -0.2641 -0.1385
19675TIP3    H280517   5.216   2.168   6.236 -0.3518 -0.4304 -1.2053
19676TIP3   OH280518   1.402   1.398  10.608 -0.0329  0.1100  0.2452
19676TIP3    H180519   1.440   1.314  10.633 -0.6811 -0.5516 -0.9324
19676TIP3    H280520   1.429   1.412  10.517 -1.8698  0.0024 -0.3693
19677TIP3   OH280521   2.964   0.785   6.121  0.2876 -0.0408 -0.8710
19677TIP3    H180522   2.883   0.785   6.071 -0.2403  1.5773 -0.0741
19677TIP3    H280523   3.012   0.861   6.090 -0.0965  1.0622  1.0747
19678TIP3   OH280524   6.389   2.301   3.273 -0.2396  0.6159 -0.1989
19678TIP3    H180525   6.338   2.346   3.340 -0.7985 -0.4245  0.0956
19678TIP3    H280526   6.323   2.262   3.215  0.0372 -2.8294  1.5401
19679TIP3   OH280527   1.557   1.245  12.401  0.6277 -0.4089  0.3622
19679TIP3    H180528   1.511   1.304  12.340  1.8791 -0.2661 -0.4848
19679TIP3    H280529   1.513   1.259  12.485  0.4427  1.2305  0.0340
19680TIP3   OH280530   0.615   0.748  14.347 -0.2460  0.2980  0.1195
19680TIP3    H180531   0.539   0.748  14.288 -0.5096  0.3861  0.4579
19680TIP3    H280532   0.593   0.686  14.415 -0.2449  0.7249  0.5146
19681TIP3   OH280533   2.991   6.752  13.644  0.1150 -0.3887  0.7455
19681TIP3    H180534   3.075   6.770  13.601 -1.0963  0.8908 -1.2807
19681TIP3    H280535   2.945   6.694  13.583 -1.9187  1.9802 -0.1912
19682TIP3   OH280536   0.443   2.730  12.914 -0.3630 -0.2085  0.2363
19682TIP3    H180537   0.415   2.819  12.935 -0.1648 -0.0492 -0.1378
19682TIP3    H280538   0.426   2.721  12.820  0.1872 -0.3423  0.1405
19683TIP3   OH280539   3.845   6.202   4.568  0.1568 -0.6996  0.0920
19683TIP3    H180540   3.837   6.153   4.487  1.5196 -3.8268  1.6641
19683TIP3    H280541   3.777   6.165   4.625  0.2464  0.3063  0.8745
19684TIP3   OH280542   3.347   0.645  16.485 -0.5419  0.0071 -0.5599
19684TIP3    H180543   3.393   0.625  16.566 -0.7516  1.2552 -0.1141
19684TIP3    H280544   3.413   0.688  16.430 -1.0003  1.3641 -0.1007
19685TIP3   OH280545   3.389   1.391   1.750  0.1248  0.5656 -0.7107
19685TIP3    H180546   3.323   1.333   1.712  0.1336 -1.1790  1.7213
19685TIP3    H280547   3.442   1.419   1.675  0.2979 -2.8289 -2.0571
19686TIP3   OH280548   6.187   5.437  11.321 -0.4444 -0.2917 -0.1359
19686TIP3    H180549   6.092   5.448  11.323 -0.4304  0.0724 -0.9940
19686TIP3    H280550   6.209   5.399  11.407 -1.1052  1.6493  0.9471
19687TIP3   OH280551   3.202   0.169  14.947  0.3378  0.1969  0.6537
19687TIP3    H180552   3.123   0.119  14.928  0.1784  0.3480  0.9213
19687TIP3    H280553   3.171   0.253  14.981  0.6066  0.3903  0.4313
19688TIP3   OH280554   2.217   3.423  13.412  0.0771 -0.7232  0.1878
19688TIP3    H180555   2.255   3.351  13.361 -0.1126 -0.0241 -0.9858
19688TIP3    H280556   2.179   3.381  13.489 -0.8447 -2.0104 -0.9275
19689TIP3   OH280557   2.345   2.054  17.026 -0.2078 -0.0462 -0.2672
19689TIP3    H180558   2.392   2.025  16.947 -0.3857  0.6919 -0.6515
19689TIP3    H280559   2.321   2.144  17.007  0.5160  0.4359  0.9876
19690TIP3   OH280560   3.851   3.913  14.592  0.3077 -0.0724 -0.0805
19690TIP3    H180561   3.928   3.970  14.598 -0.0708  0.5309 -0.8020
19690TIP3    H280562   3.823   3.901  14.683 -0.1415  1.6499  0.0551
19691TIP3   OH280563   1.773   0.852   2.046 -0.2970 -0.5391 -0.7848
19691TIP3    H180564   1.745   0.943   2.057  0.0667 -0.4660 -0.4534
19691TIP3    H280565   1.840   0.840   2.113 -1.2430 -1.4293  0.0390
19692TIP3   OH280566   0.517   0.302   0.204  0.1761 -0.6592  0.0830
19692TIP3    H180567   0.527   0.258   0.120 -0.3828 -1.2296  0.3133
19692TIP3    H280568   0.557   0.243   0.268  0.8927 -0.0832  0.1933
19693TIP3   OH280569   2.590   2.749   5.048  0.6868  0.0007  0.6718
19693TIP3    H180570   2.563   2.799   4.972  1.3492 -1.4338 -0.5592
19693TIP3    H280571   2.684   2.761   5.054  0.4105  1.7187  2.5227
19694TIP3   OH280572   0.276   1.731  11.949 -0.0404 -0.3599 -0.1383
19694TIP3    H180573   0.218   1.801  11.979 -1.3478 -0.9085 -1.3033
19694TIP3    H280574   0.254   1.719  11.856  2.6690  0.1223 -0.9516
19695TIP3   OH280575   0.465   3.277  11.837 -0.1430  0.0799 -0.0628
19695TIP3    H180576   0.455   3.221  11.760 -0.3682 -0.2948  0.2351
19695TIP3    H280577   0.546   3.246  11.879  0.8195  1.2974 -0.9784
19696TIP3   OH280578   0.922   1.768   5.168 -0.5146  0.4713 -0.0799
19696TIP3    H180579   0.930   1.704   5.097 -0.6033  0.1937  0.1621
19696TIP3    H280580   0.833   1.755   5.202  0.2974 -1.0078  1.6324
19697TIP3   OH280581   4.440   4.608   1.522  0.8304 -0.5638 -0.0101
19697TIP3    H180582   4.446   4.573   1.611 -0.6797  0.0213  0.3563
19697TIP3    H280583   4.453   4.702   1.532  1.8120 -0.6241 -0.5843
19698TIP3   OH280584   0.910   3.272   1.246  0.0016  0.2828  0.7439
19698TIP3    H180585   0.988   3.320   1.276  0.3912  0.6135 -0.7180
19698TIP3    H280586   0.836   3.326   1.274  0.3749  0.9382  0.4912
19699TIP3   OH280587   6.216   1.092   3.522 -0.4957  0.0374  0.1259
19699TIP3    H180588   6.256   1.166   3.475  0.1936 -0.3987  0.0130
19699TIP3    H280589   6.261   1.091   3.607 -0.9352  0.1195  0.3614
19700TIP3   OH280590   0.916   3.443  13.269  0.0233  0.2358 -0.4196
19700TIP3    H180591   1.004   3.433  13.234 -0.4926 -0.3996 -1.5961
19700TIP3    H280592   0.877   3.356  13.262 -1.0777  0.7628 -0.9987
19701TIP3   OH280593   3.103   0.036  15.272  0.3719 -0.1029  0.5043
19701TIP3    H180594   3.078   0.127  15.259 -1.0846 -0.4083  0.9277
19701TIP3    H280595   3.136   0.032  15.362 -0.3113 -0.1224  0.7625
19702TIP3   OH280596   6.393   1.186   3.721  1.5931 -0.0586  0.2123
19702TIP3    H180597   6.417   1.274   3.693 -0.2399  0.6197  0.6271
19702TIP3    H280598   6.476   1.142   3.737  2.5641  1.1545 -1.3098
19703TIP3   OH280599   2.536   3.809  16.096 -0.3810 -0.5778  0.0067
19703TIP3    H180600   2.534   3.904  16.084  0.4936 -0.6957 -1.2701
19703TIP3    H280601   2.529   3.797  16.191 -1.4576  0.7091  0.1197
19704TIP3   OH280602   0.667   4.517   3.208 -0.2138 -0.1732  0.3305
19704TIP3    H180603   0.606   4.559   3.147  0.9547 -0.3413 -1.0067
19704TIP3    H280604   0.615   4.501   3.287 -0.8639  3.2133  0.7391
19705TIP3   OH280605   1.752   1.407   1.304  0.6774  0.5332  0.2444
19705TIP3    H180606   1.766   1.380   1.214  0.0451  0.5926  0.1187
19705TIP3    H280607   1.680   1.471   1.299 -0.5522 -0.7441  0.9660
19706TIP3   OH280608   0.750   1.671  14.687 -0.3259 -0.2861 -0.3374
19706TIP3    H180609   0.781   1.761  14.691 -1.3318  0.1935 -2.2057
19706TIP3    H280610   0.830   1.619  14.679  0.3176  0.3158  1.6076
19707TIP3   OH280611   0.707   2.609  12.239  0.1307 -0.0020 -0.9912
19707TIP3    H180612   0.689   2.531  12.293  1.9329  3.0078  4.8828
19707TIP3    H280613   0.624   2.657  12.238  0.2775  0.3216  0.1300
19708TIP3   OH280614   5.284   3.292  16.266 -0.0121 -0.4553 -0.1476
19708TIP3    H180615   5.363   3.269  16.316  1.5990 -0.6958 -2.6203
19708TIP3    H280616   5.231   3.343  16.327  2.1801 -0.0702  1.5602
19709TIP3   OH280617   5.325   4.974   4.001  0.0642 -0.9132  0.3197
19709TIP3    H180618   5.296   4.973   3.909  1.2539 -1.1641 -0.0780
19709TIP3    H280619   5.244   4.970   4.052 -0.8755  2.6517 -0.6484
19710TIP3   OH280620   0.166   3.542   4.013 -0.4111 -0.1038 -0.2525
19710TIP3    H180621   0.155   3.503   3.927 -0.8636  1.9453 -1.1967
19710TIP3    H280622   0.235   3.491   4.055  1.3472  0.1251 -2.6533
19711TIP3   OH280623   0.544   2.618   5.720  0.2868 -0.6092 -0.4418
19711TIP3    H180624   0.535   2.656   5.633 -1.4789 -0.5187 -0.2564
19711TIP3    H280625   0.486   2.670   5.775  2.4601  0.3157  1.1629
19712TIP3   OH280626   4.503   0.006  14.040  0.0081 -0.1015 -0.3810
19712TIP3    H180627   4.500   0.025  13.946  0.9929  1.7161 -0.0806
19712TIP3    H280628   4.417   0.035  14.073 -1.0639 -2.4099 -0.9460
19713TIP3   OH280629   6.600   4.256   4.325  0.1694 -0.1356 -0.0420
19713TIP3    H180630   6.637   4.289   4.243  1.7513  0.5341  0.8784
19713TIP3    H280631   6.652   4.177   4.345 -2.5901 -2.5140 -1.4590
19714TIP3   OH280632   3.188   1.923   3.072 -0.0610 -0.0332 -0.0933
19714TIP3    H180633   3.241   1.860   3.121 -1.7132 -1.3683  0.0651
19714TIP3    H280634   3.240   1.943   2.994  0.6155 -1.4103 -0.0195
19715TIP3   OH280635   0.832   3.580  16.307 -0.0476 -0.7016 -0.9143
19715TIP3    H180636   0.905   3.634  16.276  0.9166 -1.0812  0.5922
19715TIP3    H280637   0.791   3.546  16.227  1.5651 -0.6615 -1.7908
19716TIP3   OH280638   2.784   4.969  12.695  0.5895 -0.4542  0.0375
19716TIP3    H180639   2.697   4.930  12.705 -0.7703  2.3408  0.1451
19716TIP3    H280640   2.829   4.949  12.778  0.2911 -2.3929 -0.2342
19717TIP3   OH280641   1.211   0.483  15.835  0.3403 -0.1272 -0.0882
19717TIP3    H180642   1.159   0.411  15.873  0.3901 -0.2102 -0.1774
19717TIP3    H280643   1.301   0.463  15.860  0.1492  1.0693  1.7938
19718TIP3   OH280644   2.660   4.287  14.924  0.0523 -0.0335  0.5586
19718TIP3    H180645   2.639   4.340  15.000  2.4488  1.7995  0.0643
19718TIP3    H280646   2.663   4.197  14.957 -0.6321  0.5268  2.2383
19719TIP3   OH280647   4.149   4.441   1.698 -0.5105  0.4178  0.4093
19719TIP3    H180648   4.190   4.490   1.769 -0.6472 -0.4324  1.0862
19719TIP3    H280649   4.055   4.453   1.711 -0.5251  1.2750 -0.3666
19720TIP3   OH280650   2.005   4.668  15.100 -0.4552 -0.2510 -0.1206
19720TIP3    H180651   1.989   4.761  15.084  1.3740  0.3196  1.1652
19720TIP3    H280652   2.004   4.659  15.195 -0.7033 -1.5928 -0.2292
19721TIP3   OH280653   4.875   2.681   5.599  0.6225  0.0781 -0.7722
19721TIP3    H180654   4.786   2.649   5.584  1.2216 -2.7894  0.8996
19721TIP3    H280655   4.875   2.712   5.689  1.5499 -1.0785 -0.3478
19722TIP3   OH280656   2.446   5.108  11.436 -0.1652  0.6264  0.7901
19722TIP3    H180657   2.438   5.102  11.341  0.4805  0.1696  0.7561
19722TIP3    H280658   2.362   5.076  11.469 -0.3682  0.7192  0.3747
19723TIP3   OH280659   4.713   6.485   2.946 -0.5051  0.0955 -0.6727
19723TIP3    H180660   4.729   6.441   3.029  0.6253  1.5495 -0.0774
19723TIP3    H280661   4.620   6.510   2.949 -0.2330  1.0664  0.6524
19724TIP3   OH280662   3.138   1.044  15.275  0.1083  0.0468  0.1461
19724TIP3    H180663   3.140   1.031  15.370 -0.1313 -1.4089 -0.0265
19724TIP3    H280664   3.160   0.959  15.238 -1.1214  0.2261 -1.1118
19725TIP3   OH280665   5.940   1.256   0.127 -0.1713 -0.0586 -0.3828
19725TIP3    H180666   5.943   1.348   0.105 -1.4631  0.2258  0.4746
19725TIP3    H280667   5.853   1.227   0.099  0.9279 -1.5701 -2.5526
19726TIP3   OH280668   1.488   2.092  12.014 -0.2563  0.0654 -0.0982
19726TIP3    H180669   1.416   2.149  11.989  0.8056  2.3399  1.6429
19726TIP3    H280670   1.477   2.014  11.961 -3.3742  0.7510 -0.6193
19727TIP3   OH280671   6.377   3.712  13.126 -0.0914  0.4704  0.6192
19727TIP3    H180672   6.313   3.756  13.182 -2.1969  0.8259 -1.8885
19727TIP3    H280673   6.441   3.780  13.105 -1.0449  1.2217  0.0760
19728TIP3   OH280674   0.659   1.247  12.600  0.4172 -0.0077  0.1457
19728TIP3    H180675   0.748   1.214  12.607 -0.1281 -2.3834 -2.3153
19728TIP3    H280676   0.611   1.177  12.556 -2.4139  1.6534  0.3318
19729TIP3   OH280677   4.155   4.603   6.148 -0.1863  0.4228  0.1264
19729TIP3    H180678   4.213   4.615   6.223  0.9026  1.2125 -0.8033
19729TIP3    H280679   4.190   4.526   6.103 -1.4658 -0.6926  0.9473
19730TIP3   OH280680   6.853   2.977  14.133 -0.0584  0.4542 -0.1106
19730TIP3    H180681   6.835   2.896  14.181  0.2045  0.1012 -0.5955
19730TIP3    H280682   6.943   3.000  14.158  0.2049  0.0812 -0.6858
19731TIP3   OH280683   3.387   3.318  14.659  0.4210  0.3968  0.1212
19731TIP3    H180684   3.450   3.279  14.720  0.9851 -1.1250 -1.3617
19731TIP3    H280685   3.431   3.314  14.574 -0.5180  2.0572 -0.4766
19732TIP3   OH280686   3.293   0.494   6.094 -0.2276  0.1121 -0.0844
19732TIP3    H180687   3.213   0.496   6.147 -0.7614 -0.5306 -0.8337
19732TIP3    H280688   3.293   0.577   6.047 -0.3625  0.1917  0.0557
19733TIP3   OH280689   2.806   1.523   3.169  0.1608  0.1813  0.3181
19733TIP3    H180690   2.772   1.609   3.141  0.0516  0.0988  0.1943
19733TIP3    H280691   2.736   1.486   3.223 -0.5194 -0.5539 -1.0134
19734TIP3   OH280692   1.009   1.276   1.147  0.5652  0.3075 -0.3861
19734TIP3    H180693   1.104   1.268   1.136  0.6259  0.1204  0.2183
19734TIP3    H280694   0.998   1.336   1.221  0.2464 -0.6110  0.3429
19735TIP3   OH280695   0.657   1.673  11.406  0.7070 -0.1021 -0.2864
19735TIP3    H180696   0.731   1.733  11.414 -1.2729  2.4956  0.0544
19735TIP3    H280697   0.621   1.690  11.319 -0.0914 -0.5806 -0.0599
19736TIP3   OH280698   6.368   5.659   5.084 -0.1375 -0.0116 -0.5651
19736TIP3    H180699   6.328   5.705   5.158 -1.9599 -1.2944 -0.6790
19736TIP3    H280700   6.458   5.641   5.113 -0.7700 -0.3984  1.3472
19737TIP3   OH280701   4.374   3.584  12.689  0.1623  0.1448 -0.6000
19737TIP3    H180702   4.435   3.622  12.625 -0.4212  0.6415 -0.8748
19737TIP3    H280703   4.324   3.659  12.721 -0.6773 -0.3288 -0.7838
19738TIP3   OH280704   3.595   5.864  10.724 -0.0853  0.0751 -0.7690
19738TIP3    H180705   3.526   5.922  10.756 -0.5540  0.7691 -2.9016
19738TIP3    H280706   3.573   5.779  10.760 -1.0669  0.6313 -0.0022
19739TIP3   OH280707   3.217   4.424  12.943 -0.7780  0.7881 -0.0350
19739TIP3    H180708   3.291   4.451  12.997  0.6696 -0.7661 -1.1225
19739TIP3    H280709   3.159   4.378  13.004 -0.0322  0.5772  0.5300
19740TIP3   OH280710   2.823   0.204  14.036 -0.4911  0.2522  0.8647
19740TIP3    H180711   2.827   0.167  14.124 -0.0925 -0.7161  0.4536
19740TIP3    H280712   2.915   0.212  14.009 -0.6381 -0.6149  0.0734
19741TIP3   OH280713   6.063   1.436  10.889 -0.0394  0.3822  0.0505
19741TIP3    H180714   6.097   1.369  10.829  0.0021 -0.3378  0.8576
19741TIP3    H280715   6.031   1.386  10.964 -0.5941  1.2338  0.3884
19742TIP3   OH280716   4.027   1.728  13.797  0.1041  0.2428  0.3017
19742TIP3    H180717   4.001   1.681  13.876 -1.6345  0.1395 -0.2864
19742TIP3    H280718   3.947   1.735  13.746  0.9277  1.3948 -0.9040
19743TIP3   OH280719   0.169   3.547   5.964  0.1927 -0.4300 -0.1328
19743TIP3    H180720   0.193   3.490   6.036 -0.0838 -0.0898  0.2288
19743TIP3    H280721   0.081   3.521   5.939  0.4059 -0.7593 -0.5600
19744TIP3   OH280722   4.939   2.038  12.468 -0.0615 -0.1792  0.8712
19744TIP3    H180723   4.983   1.981  12.405 -0.4841 -0.3549  0.7300
19744TIP3    H280724   4.997   2.114  12.477  1.4165 -1.4205  2.4498
19745TIP3   OH280725   0.857   6.019  12.346  0.1464 -0.2552  0.2130
19745TIP3    H180726   0.846   6.094  12.286 -0.2585 -0.1917  0.3597
19745TIP3    H280727   0.850   6.058  12.433 -1.2965 -0.6182  0.2917
19746TIP3   OH280728   6.705   1.203  11.852  0.0750 -0.3441  0.7785
19746TIP3    H180729   6.775   1.200  11.787 -0.0298  0.7099  0.6014
19746TIP3    H280730   6.636   1.148  11.817 -0.1039  0.4577 -0.1644
19747TIP3   OH280731   4.509   2.714   0.130 -0.0416  0.5658  0.3776
19747TIP3    H180732   4.415   2.727   0.117 -0.2721 -1.0342  0.1724
19747TIP3    H280733   4.517   2.620   0.147  1.3811  0.9214  1.8189
19748TIP3   OH280734   2.424   2.178   1.970  0.0453 -0.1950  0.4464
19748TIP3    H180735   2.354   2.239   1.947  1.0545  0.2068 -1.8985
19748TIP3    H280736   2.501   2.211   1.923  0.5880 -3.3017 -1.1444
19749TIP3   OH280737   3.788   1.171  11.064  0.0366 -0.2822  0.0545
19749TIP3    H180738   3.719   1.145  11.003  1.0351  2.2169 -2.3587
19749TIP3    H280739   3.745   1.233  11.123 -0.2740 -0.4038 -0.0404
19750TIP3   OH280740   0.101   3.056   4.264  0.4812 -0.6598  0.6362
19750TIP3    H180741   0.118   3.098   4.348 -0.5103  0.3023  0.3787
19750TIP3    H280742   0.139   2.968   4.273 -0.0436 -0.7573  2.2626
19751TIP3   OH280743   1.894   3.161   5.930  0.0162 -0.4012 -0.5362
19751TIP3    H180744   1.802   3.186   5.928 -0.9629 -3.1602  2.3811
19751TIP3    H280745   1.927   3.199   6.012  0.7223 -1.5777 -0.2515
19752TIP3   OH280746   5.485   0.618   1.171  0.3943  0.0166  0.1718
19752TIP3    H180747   5.562   0.612   1.114  0.0252 -0.3941 -0.2924
19752TIP3    H280748   5.452   0.706   1.157 -0.0130 -0.2594 -0.6782
19753TIP3   OH280749   3.013   5.263   2.496  0.2054 -0.3675 -0.0293
19753TIP3    H180750   3.023   5.309   2.412 -0.7824 -0.4230 -0.1926
19753TIP3    H280751   2.987   5.174   2.470  2.1770 -1.0732  0.2758
19754TIP3   OH280752   4.638   4.144  11.841 -0.6238 -0.1633  0.7514
19754TIP3    H180753   4.602   4.060  11.810 -1.8073  0.7814 -0.5632
19754TIP3    H280754   4.733   4.134  11.831 -0.8519 -0.5189 -1.7394
19755TIP3   OH280755   3.853   2.672  10.577  0.2070 -0.0609 -0.0994
19755TIP3    H180756   3.923   2.738  10.579 -0.9075  1.1686  1.3719
19755TIP3    H280757   3.836   2.653  10.670 -3.5277  2.1284 -0.1448
19756TIP3   OH280758   4.593   2.876   1.011 -0.1673 -0.2915  0.0849
19756TIP3    H180759   4.673   2.826   1.023  0.2387 -0.2781 -2.0965
19756TIP3    H280760   4.549   2.834   0.937  0.1654  2.4776 -1.8327
19757TIP3   OH280761   6.390   4.702   3.627 -0.3730 -0.0054 -0.4410
19757TIP3    H180762   6.370   4.781   3.576 -1.3228 -1.2103 -2.0181
19757TIP3    H280763   6.327   4.637   3.597  0.2633 -1.3409  0.9582
19758TIP3   OH280764   5.270   2.295  16.021 -0.4891 -0.2319 -0.1172
19758TIP3    H180765   5.245   2.263  15.934  0.3628  0.6549 -0.7188
19758TIP3    H280766   5.308   2.219  16.064 -0.3877 -0.5432 -0.7450
19759TIP3   OH280767   1.403   0.699  12.423  0.8897  0.8448 -0.5970
19759TIP3    H180768   1.328   0.719  12.480  0.0807 -1.3644 -0.7874
19759TIP3    H280769   1.466   0.655  12.481  0.0999 -1.3403 -1.2945
19760TIP3   OH280770   0.390   5.083  15.770  0.6705  0.3439 -0.2997
19760TIP3    H180771   0.341   5.057  15.849  1.1446 -1.7732 -0.6385
19760TIP3    H280772   0.322   5.092  15.703  0.5191 -0.5374 -0.2781
19761TIP3   OH280773   4.878   4.426   0.911 -0.1390  0.4680  0.2811
19761TIP3    H180774   4.832   4.365   0.969 -1.9166  1.1510 -0.3408
19761TIP3    H280775   4.813   4.451   0.846  0.6044  2.7900  0.3302
19762TIP3   OH280776   6.018   3.648   3.784  0.3020  0.0235 -0.2338
19762TIP3    H180777   6.059   3.714   3.839 -0.9733  0.8351 -0.2369
19762TIP3    H280778   5.924   3.662   3.794 -0.0065 -1.7251 -0.3184
19763TIP3   OH280779   5.915   1.813  13.803 -0.2110 -0.0255  0.5812
19763TIP3    H180780   5.943   1.735  13.851  0.8539  0.1791  0.3065
19763TIP3    H280781   5.973   1.817  13.727 -2.3172 -0.7560 -1.1971
19764TIP3   OH280782   5.875   6.327  10.555 -0.2260 -0.3103 -0.8902
19764TIP3    H180783   5.822   6.251  10.581 -0.5301  0.3083  0.3624
19764TIP3    H280784   5.893   6.373  10.637  0.9580  0.3354 -1.4943
19765TIP3   OH280785   0.034   1.300   6.183 -0.2096  0.4922  0.4032
19765TIP3    H180786   0.028   1.205   6.186 -1.2622  0.4858 -0.8813
19765TIP3    H280787   0.095   1.323   6.253  1.8965 -1.2810 -0.7405
19766TIP3   OH280788   5.518   2.357   0.121  0.3346  0.7503 -0.0753
19766TIP3    H180789   5.578   2.290   0.089 -2.1779 -2.1639  0.8858
19766TIP3    H280790   5.565   2.399   0.193  1.4254 -1.0807  0.3377
19767TIP3   OH280791   5.010   2.622  13.068  0.2978  0.0012 -0.2165
19767TIP3    H180792   4.922   2.586  13.068  0.4633 -0.7411 -3.7147
19767TIP3    H280793   5.064   2.552  13.106 -0.2629 -0.7245 -0.7286
19768TIP3   OH280794   6.568   3.026  16.702  0.6612  0.5757 -0.1589
19768TIP3    H180795   6.651   3.064  16.732  0.5219  1.1496 -0.4710
19768TIP3    H280796   6.506   3.099  16.707  0.3343  0.3292 -0.5722
19769TIP3   OH280797   6.638   3.107   5.267 -0.1920  0.2312 -0.0890
19769TIP3    H180798   6.545   3.122   5.289 -0.1272 -0.8309  1.0322
19769TIP3    H280799   6.636   3.071   5.178 -1.0198 -1.2591  0.4882
19770TIP3   OH280800   0.093   5.131   4.517  0.5289  0.3052 -0.2047
19770TIP3    H180801   0.136   5.071   4.458  0.6151  1.0476 -0.9117
19770TIP3    H280802   0.070   5.207   4.463 -1.6663 -0.0452  0.1146
19771TIP3   OH280803   1.158   4.731   2.558 -0.0631 -0.9887  0.1682
19771TIP3    H180804   1.205   4.693   2.484 -0.3267 -0.2113 -0.4168
19771TIP3    H280805   1.084   4.777   2.518 -0.1149 -0.4115  0.8980
19772TIP3   OH280806   3.648   5.572   1.874 -0.0855 -0.3643  0.0650
19772TIP3    H180807   3.662   5.480   1.853 -1.0260 -0.5856  0.3402
19772TIP3    H280808   3.553   5.579   1.887 -0.1259  0.8044 -0.7265
19773TIP3   OH280809   0.975   2.598   2.454 -0.5630  0.9987  0.6048
19773TIP3    H180810   1.065   2.574   2.434 -0.3778  0.0228  2.4137
19773TIP3    H280811   0.952   2.661   2.386  0.6990 -0.4109 -1.2440
19774TIP3   OH280812   5.046   2.682   2.312  0.1413  0.4896 -0.0183
19774TIP3    H180813   5.072   2.598   2.274 -0.3215  0.4186 -0.1790
19774TIP3    H280814   5.126   2.735   2.309  0.6200 -0.1607  0.6902
19775TIP3   OH280815   2.464   5.713   2.680 -0.9901  0.0128 -0.0506
19775TIP3    H180816   2.373   5.741   2.679 -0.7865  0.8413  1.6346
19775TIP3    H280817   2.515   5.794   2.678 -0.1894 -0.4517 -2.8981
19776TIP3   OH280818   3.790   0.007   2.548  0.0010 -0.2370  0.8055
19776TIP3    H180819   3.859  -0.041   2.595 -0.6955  0.2979  2.4583
19776TIP3    H280820   3.741   0.051   2.617 -2.2216 -0.8767 -0.2816
19777TIP3   OH280821   4.999   4.837   3.769 -0.7438 -0.0743  0.2646
19777TIP3    H180822   4.958   4.795   3.694 -1.8253 -0.0425  0.8135
19777TIP3    H280823   5.028   4.764   3.824 -1.2198 -0.1203  0.4688
19778TIP3   OH280824   2.565   3.710   4.443  0.2520  0.3543 -0.3806
19778TIP3    H180825   2.499   3.766   4.484 -1.4804  0.3266 -2.9386
19778TIP3    H280826   2.571   3.634   4.500 -1.4055  0.6882  0.2940
19779TIP3   OH280827   2.505   3.280   1.533  0.0688  0.4209 -0.2188
19779TIP3    H180828   2.480   3.344   1.601 -0.3990 -0.8740  0.8659
19779TIP3    H280829   2.501   3.330   1.451  0.4565  1.9756  0.6649
19780TIP3   OH280830   4.453   2.712   2.785 -0.3221 -0.3657 -0.1791
19780TIP3    H180831   4.423   2.647   2.848  0.1949 -0.7362 -0.3104
19780TIP3    H280832   4.379   2.771   2.774 -0.4219 -0.3021  0.7717
19781TIP3   OH280833   3.642   5.601  13.852  0.5366 -0.3634  0.5572
19781TIP3    H180834   3.608   5.612  13.763 -0.0756  0.5168  0.8789
19781TIP3    H280835   3.734   5.625  13.846 -0.2993  3.7981  0.8441
19782TIP3   OH280836   1.959   6.186  12.050 -0.3493 -0.0966 -0.0090
19782TIP3    H180837   1.969   6.205  12.143  0.4406  0.8744 -0.2737
19782TIP3    H280838   1.868   6.207  12.031 -0.6502 -0.7570  0.6322
19783TIP3   OH280839   5.863   2.282  15.094  0.3075 -0.6624  0.0411
19783TIP3    H180840   5.800   2.297  15.024  0.2525 -0.8852  0.0447
19783TIP3    H280841   5.945   2.261  15.050  0.2553 -0.8720  0.0472
19784TIP3   OH280842   5.351   5.306  13.821  0.2600 -0.5638 -0.0660
19784TIP3    H180843   5.312   5.383  13.862  1.5750 -1.7107  3.7641
19784TIP3    H280844   5.443   5.329  13.812 -0.0010 -0.2873 -2.8464
19785TIP3   OH280845   3.062   2.572  16.036  0.1054  0.1679 -0.2507
19785TIP3    H180846   3.019   2.585  15.951 -2.7427 -0.4146  0.9921
19785TIP3    H280847   3.040   2.651  16.086  2.9885  1.1934 -0.4160
19786TIP3   OH280848   0.779   0.360  15.854  0.1479  0.0390  0.0190
19786TIP3    H180849   0.750   0.387  15.942  1.5955  1.6171  0.0764
19786TIP3    H280850   0.760   0.267  15.850  0.0076 -0.0658  2.0158
19787TIP3   OH280851   4.773   0.335   4.708  0.1914  0.2179 -0.4341
19787TIP3    H180852   4.802   0.292   4.628  0.1652 -1.0249  0.2053
19787TIP3    H280853   4.849   0.334   4.765 -0.2290 -0.3417  0.1334
19788TIP3   OH280854   4.988   1.718   5.444  0.0008  0.5827 -0.2943
19788TIP3    H180855   4.974   1.678   5.359  1.0640 -0.5327  0.0313
19788TIP3    H280856   5.055   1.664   5.486  2.2763  3.2367 -0.2331
19789TIP3   OH280857   4.985   0.021   1.120  0.3314  0.0691  0.2008
19789TIP3    H180858   4.942   0.089   1.068  0.9188  0.1733 -0.1488
19789TIP3    H280859   4.978   0.052   1.210 -0.4591  0.0139  0.1666
19790TIP3   OH280860   1.642   5.414  12.018  0.1381  0.1592 -0.1863
19790TIP3    H180861   1.687   5.499  12.013  1.4250 -0.5289 -0.6156
19790TIP3    H280862   1.556   5.436  12.053  0.5815  1.5980  0.1047
19791TIP3   OH280863   3.501   2.025   0.189 -0.1635  0.1835 -0.3004
19791TIP3    H180864   3.459   1.945   0.220 -0.2076  0.2042 -0.3057
19791TIP3    H280865   3.595   2.009   0.199 -0.1971  0.8137  1.3947
19792TIP3   OH280866   6.123   1.592  10.662 -0.3278 -0.4885  0.0008
19792TIP3    H180867   6.030   1.573  10.678 -0.6306  1.1884  0.4304
19792TIP3    H280868   6.124   1.643  10.581  0.0518  0.6627  0.7001
19793TIP3   OH280869   4.184   2.812   4.215 -0.4444 -0.5778  0.1902
19793TIP3    H180870   4.252   2.757   4.253 -2.5366 -1.5615  2.9494
19793TIP3    H280871   4.114   2.750   4.191 -0.9492  0.4871 -1.1762
19794TIP3   OH280872   4.286   5.396   0.547  0.3757 -0.6849 -0.0572
19794TIP3    H180873   4.277   5.487   0.518  0.7285 -1.0741 -1.4756
19794TIP3    H280874   4.207   5.379   0.598  0.9808  0.8473  1.4741
19795TIP3   OH280875   2.816   2.903  15.270 -0.2706 -0.6207 -0.1149
19795TIP3    H180876   2.738   2.957  15.282  0.5338  0.8884 -1.3057
19795TIP3    H280877   2.874   2.929  15.342  0.4719  0.8425 -1.1855
19796TIP3   OH280878   4.447   4.335  14.858  0.1436 -0.3213 -0.3051
19796TIP3    H180879   4.529   4.308  14.899  0.4004  0.0680 -0.5524
19796TIP3    H280880   4.406   4.393  14.921 -0.1938 -0.9293  0.0381
19797TIP3   OH280881   5.807   0.379  15.774  0.0833  0.3153  0.6761
19797TIP3    H180882   5.731   0.368  15.717  0.7407 -0.0460 -0.1336
19797TIP3    H280883   5.789   0.461  15.821 -0.4560  0.6246 -0.0530
19798TIP3   OH280884   0.350   3.463  12.369 -0.1482 -0.1545  0.0364
19798TIP3    H180885   0.270   3.441  12.416  0.4923 -3.6896 -0.2680
19798TIP3    H280886   0.328   3.452  12.277  0.1342  1.0594 -0.1933
19799TIP3   OH280887   5.145   4.005   4.741  0.0081  0.8127  0.0473
19799TIP3    H180888   5.202   4.072   4.778 -0.1993  1.2356 -0.3830
19799TIP3    H280889   5.071   4.000   4.801  0.5450  0.1888  0.6619
19800TIP3   OH280890   4.830   4.009  15.964 -0.1703  0.3801 -0.4800
19800TIP3    H180891   4.897   4.030  16.029 -1.9966  1.4934  1.1614
19800TIP3    H280892   4.780   3.938  16.003  0.6721 -1.2027 -2.1811
19801TIP3   OH280893   6.028   3.475   3.579  0.1025 -0.4553  0.4121
19801TIP3    H180894   5.976   3.404   3.616 -0.4628  0.5501  1.5986
19801TIP3    H280895   6.059   3.524   3.655  1.2463  0.0471 -0.3579
19802TIP3   OH280896   2.559   2.084  15.076 -0.7064  0.2717 -0.3300
19802TIP3    H180897   2.482   2.029  15.086 -0.3526 -0.0278  0.7710
19802TIP3    H280898   2.527   2.173  15.091 -1.0618  0.2813 -1.0701
19803TIP3   OH280899   0.519   2.579  13.689  0.6535 -0.3085  0.3569
19803TIP3    H180900   0.429   2.572  13.723  0.4149 -0.0324 -0.2142
19803TIP3    H280901   0.516   2.536  13.604  1.1109 -0.4515  0.4122
19804TIP3   OH280902   3.581   0.093  12.145 -0.5269  0.3603 -0.3142
19804TIP3    H180903   3.561   0.027  12.211 -0.3412  0.1060 -0.5117
19804TIP3    H280904   3.622   0.164  12.193  0.5415 -0.2566 -0.3035
19805TIP3   OH280905   3.946   1.112   5.937 -0.1561  0.3217  0.0619
19805TIP3    H180906   3.928   1.182   6.000  0.0793 -0.2021  0.7294
19805TIP3    H280907   4.027   1.139   5.893 -0.8644  1.1833 -0.7530
19806TIP3   OH280908   4.039   1.409  12.038 -0.0267 -0.1107 -0.7127
19806TIP3    H180909   4.033   1.370  11.951 -1.7838 -0.2747 -0.5414
19806TIP3    H280910   4.072   1.337  12.093  2.2203  0.3086 -1.3842
19807TIP3   OH280911   6.201   0.434   2.520  0.4663  0.5220  0.3487
19807TIP3    H180912   6.276   0.376   2.536  1.0544  1.1183 -0.1555
19807TIP3    H280913   6.241   0.516   2.490 -0.4505  0.4500 -1.1273
19808TIP3   OH280914   2.737   2.526  11.830  0.0514 -0.7033 -0.0287
19808TIP3    H180915   2.648   2.497  11.852  0.2671 -0.9025  0.6047
19808TIP3    H280916   2.749   2.502  11.738  0.0775 -2.2530  0.3578
19809TIP3   OH280917   6.135   1.881  13.075 -0.1402  0.1440  0.2350
19809TIP3    H180918   6.047   1.844  13.069 -0.1135  0.0241  0.5817
19809TIP3    H280919   6.143   1.910  13.166  0.6186 -0.9383  0.5277
19810TIP3   OH280920   3.873   1.214  13.697  0.2578 -0.1058 -0.2838
19810TIP3    H180921   3.930   1.165  13.756 -0.3936  0.2755  0.6707
19810TIP3    H280922   3.929   1.283  13.660  0.4710  0.1264  0.4709
19811TIP3   OH280923   1.583   2.377  13.190  0.1925  0.5382  0.1898
19811TIP3    H180924   1.542   2.320  13.125  2.2373 -2.7630  1.5467
19811TIP3    H280925   1.625   2.446  13.138 -0.1912 -0.6525 -1.7848
19812TIP3   OH280926   1.609   0.813   3.508 -0.0892  0.6171 -0.4405
19812TIP3    H180927   1.575   0.864   3.582 -1.0342 -0.2852 -0.2401
19812TIP3    H280928   1.671   0.873   3.465 -1.0159  1.8736 -0.0952
19813TIP3   OH280929   1.004   2.228   4.863  0.2055  0.3666 -0.4109
19813TIP3    H180930   0.967   2.169   4.928 -0.1030 -0.6960 -1.5303
19813TIP3    H280931   1.094   2.198   4.851 -0.0839 -0.1668 -1.3026
19814TIP3   OH280932   5.005   3.534   3.485  0.0692 -0.2556 -0.5860
19814TIP3    H180933   4.958   3.495   3.559  0.9889  0.8218  0.6023
19814TIP3    H280934   4.953   3.611   3.463  1.0552  0.7616  0.5261
19815TIP3   OH280935   6.674   0.496  13.992  0.2486 -0.1021 -0.2768
19815TIP3    H180936   6.622   0.553  13.935  0.0511 -0.8080 -0.8050
19815TIP3    H280937   6.620   0.419  14.007  1.2182 -0.9521 -1.0179
19816TIP3   OH280938   3.644   2.228   6.079 -0.6353  0.2972  0.2778
19816TIP3    H180939   3.724   2.277   6.096  0.9384 -0.8132 -3.1203
19816TIP3    H280940   3.641   2.161   6.147  0.4092  1.3420  1.3902
19817TIP3   OH280941   1.926   5.409  12.801  0.1155  0.2471 -0.0530
19817TIP3    H180942   2.010   5.363  12.796 -0.2233 -0.2340 -2.7960
19817TIP3    H280943   1.862   5.347  12.764 -1.2928  0.9645  1.0714
19818TIP3   OH280944   4.214   5.687  14.077 -0.8398  0.1768 -0.0486
19818TIP3    H180945   4.260   5.748  14.020  0.4060 -0.1239  0.5934
19818TIP3    H280946   4.273   5.613  14.085 -0.2479  0.8420  2.8438
19819TIP3   OH280947   1.216   6.519  14.663 -0.1073 -0.1171 -0.4174
19819TIP3    H180948   1.176   6.500  14.748  1.7607 -0.5545  0.4067
19819TIP3    H280949   1.207   6.614  14.654 -1.7726 -0.2571 -0.5255
19820TIP3   OH280950   1.964   1.176   3.786 -0.4723 -0.2429 -0.4398
19820TIP3    H180951   1.911   1.233   3.730 -2.8410 -0.3708  1.4670
19820TIP3    H280952   1.906   1.102   3.806  0.6975 -0.8016  1.1561
19821TIP3   OH280953   4.158   3.904  14.684 -0.7219  0.1269 -0.3561
19821TIP3    H180954   4.202   3.971  14.630  2.2611  0.7408  2.4887
19821TIP3    H280955   4.220   3.830  14.685 -0.8695 -0.0341  1.7160
19822TIP3   OH280956   3.760   6.634   2.172  0.1427 -0.1314  0.0167
19822TIP3    H180957   3.714   6.609   2.253 -1.9452 -0.8377 -1.3196
19822TIP3    H280958   3.710   6.593   2.102  1.1627  1.4917 -1.7600
19823TIP3   OH280959   1.298   3.012   4.966 -0.1299  0.7324 -0.1163
19823TIP3    H180960   1.290   2.925   4.928  1.3906  0.7074 -0.4236
19823TIP3    H280961   1.252   3.069   4.904 -0.4945  0.2603 -0.2898
19824TIP3   OH280962   1.170   5.202   5.311 -0.0450  0.0075  0.3216
19824TIP3    H180963   1.183   5.134   5.376  0.1087 -1.0869 -0.8084
19824TIP3    H280964   1.258   5.231   5.287 -0.0463 -0.3888 -0.1883
19825TIP3   OH280965   2.090   5.781  14.987 -0.5927 -0.6702 -0.4570
19825TIP3    H180966   2.026   5.792  14.916 -0.4573 -0.6596 -0.5768
19825TIP3    H280967   2.171   5.819  14.953 -0.7483  0.1276  0.0176
19826TIP3   OH280968   6.190   2.037  13.321 -0.2646 -0.1581  0.7449
19826TIP3    H180969   6.223   1.985  13.394 -0.3505  0.3764  1.1729
19826TIP3    H280970   6.129   2.099  13.362  0.6932  1.0424  0.4149
19827TIP3   OH280971   5.455   6.788  13.650  0.4825  0.0497 -0.3845
19827TIP3    H180972   5.367   6.807  13.618  0.4247  0.7933  0.1961
19827TIP3    H280973   5.467   6.694  13.633 -1.1193 -0.4849  1.1787
19828TIP3   OH280974   6.836   5.376  15.091  0.3851  0.1662 -0.1028
19828TIP3    H180975   6.859   5.448  15.033 -0.6960 -0.3156 -1.1599
19828TIP3    H280976   6.918   5.353  15.135  1.5398 -0.3145 -2.3776
19829TIP3   OH280977   4.373   0.703  16.854  0.1463  0.6004  0.6155
19829TIP3    H180978   4.447   0.756  16.885  1.1921 -0.4004 -0.0479
19829TIP3    H280979   4.388   0.617  16.893 -0.4355  0.2748  0.1396
19830TIP3   OH280980   1.960   4.960  13.100  0.0119 -0.1551  0.2824
19830TIP3    H180981   1.939   4.869  13.120  0.2627 -0.3975 -0.5277
19830TIP3    H280982   2.032   4.955  13.038 -0.7485  0.5639 -0.6984
19831TIP3   OH280983   6.655   1.814  16.209  0.0370 -0.0683 -0.0581
19831TIP3    H180984   6.671   1.840  16.119  1.1793  1.5410  0.5735
19831TIP3    H280985   6.719   1.745  16.226 -0.6063 -0.8330 -0.6453
19832TIP3   OH280986   0.826   3.092  14.114 -0.1335  0.0301 -0.1191
19832TIP3    H180987   0.865   3.177  14.133  1.9402 -0.7273 -0.7164
19832TIP3    H280988   0.784   3.103  14.028 -2.2944  1.1468  0.9970
19833TIP3   OH280989   4.530   1.963   4.083 -0.2230  0.7871 -0.3206
19833TIP3    H180990   4.529   1.971   4.178 -1.5068 -1.6760 -0.0507
19833TIP3    H280991   4.613   1.918   4.064 -0.4081  0.4208 -0.2658
19834TIP3   OH280992   0.084   5.356  14.745 -0.1686 -0.1068  0.1028
19834TIP3    H180993   0.179   5.348  14.736 -0.0363  0.6154  0.7767
19834TIP3    H280994   0.049   5.285  14.691  0.6990  0.9623 -1.9835
19835TIP3   OH280995   5.262   0.563   5.951  0.7947  0.1058  0.3599
19835TIP3    H180996   5.344   0.593   5.990  1.0999  0.7384 -0.7275
19835TIP3    H280997   5.242   0.627   5.884 -0.2453 -0.4115  0.1484
19836TIP3   OH280998   1.096   3.540  15.154  0.6443 -0.1369  0.0067
19836TIP3    H180999   1.001   3.540  15.165  0.3591 -1.7724 -1.8292
19836TIP3    H281000   1.112   3.597  15.079  1.1140  0.0379  0.2339
19837TIP3   OH281001   6.174   1.416  14.523 -0.0054 -0.1503  0.4551
19837TIP3    H181002   6.239   1.359  14.483  0.6869  1.3399 -0.6724
19837TIP3    H281003   6.223   1.465  14.589 -0.8857 -1.7429  2.3986
19838TIP3   OH281004   6.454   4.165   0.961  0.9904 -0.0804 -0.3927
19838TIP3    H181005   6.410   4.229   1.016 -0.4087 -1.4643  0.1863
19838TIP3    H281006   6.386   4.133   0.902  1.0358 -2.5071  0.7407
19839TIP3   OH281007   2.604   5.561   0.798 -0.3316  0.1390  0.3993
19839TIP3    H181008   2.527   5.570   0.742 -1.4769  0.9309  2.0334
19839TIP3    H281009   2.598   5.473   0.834 -0.5052  0.2100  0.5479
19840TIP3   OH281010   2.939   4.349  11.133  0.3190  0.0111 -0.8061
19840TIP3    H181011   2.929   4.303  11.049 -1.4371  1.2810 -1.3780
19840TIP3    H281012   2.977   4.285  11.192  0.4049 -1.3252 -2.2479
19841TIP3   OH281013   5.757   6.121   3.949  0.8381  0.1009  0.2535
19841TIP3    H181014   5.748   6.029   3.975  0.2259  0.5099  1.6004
19841TIP3    H281015   5.667   6.153   3.941  1.0463  0.6868  0.1824
19842TIP3   OH281016   2.205   0.670   2.813  0.7782  0.4737  0.1975
19842TIP3    H181017   2.125   0.637   2.773  0.7034 -0.2878  0.9447
19842TIP3    H281018   2.276   0.640   2.757  0.5085  1.9632 -1.0066
19843TIP3   OH281019   2.647   5.056  12.225 -0.0601 -0.0272 -0.2397
19843TIP3    H181020   2.585   5.124  12.253 -0.9667  0.1865 -2.5282
19843TIP3    H281021   2.592   4.979  12.209  1.0409 -1.6738  3.0369
19844TIP3   OH281022   5.852   3.537  10.699 -0.3616 -0.0825 -0.2295
19844TIP3    H181023   5.932   3.532  10.646  1.3152  1.0877  2.0165
19844TIP3    H281024   5.818   3.625  10.681  0.2655  0.3553  0.6036
19845TIP3   OH281025   1.601   0.539   2.752 -0.4257 -0.2916  0.1372
19845TIP3    H181026   1.640   0.626   2.748 -2.3185  0.5830 -1.0078
19845TIP3    H281027   1.617   0.501   2.666 -0.1018 -0.8503  0.4389
19846TIP3   OH281028   0.720   1.265   1.576  0.4618 -0.5237 -0.1889
19846TIP3    H181029   0.700   1.283   1.668  0.5688 -1.1642 -0.0414
19846TIP3    H281030   0.635   1.269   1.532  0.5939  1.5339 -0.3815
19847TIP3   OH281031   3.416   0.260   5.001 -0.1244  0.1231 -0.0366
19847TIP3    H181032   3.507   0.284   4.982 -0.4578 -0.0527 -2.0997
19847TIP3    H281033   3.398   0.298   5.087  2.0132 -0.1775  0.5800
19848TIP3   OH281034   4.858   0.428   0.641  0.4436 -0.4134 -0.3331
19848TIP3    H181035   4.783   0.421   0.699 -0.2941 -2.5425 -1.4464
19848TIP3    H281036   4.934   0.419   0.700 -0.2567 -1.6081  0.4382
19849TIP3   OH281037   4.770   3.250   0.605  0.1831  0.2418 -0.3598
19849TIP3    H181038   4.721   3.262   0.524  0.9897  1.3825 -0.6955
19849TIP3    H281039   4.720   3.184   0.653 -0.8132  0.2299 -1.3646
19850TIP3   OH281040   4.732   5.118  12.300 -0.2378  0.1765 -0.2327
19850TIP3    H181041   4.748   5.208  12.270 -0.7342  0.3007 -0.1260
19850TIP3    H281042   4.641   5.101  12.277 -0.3411 -0.0668  0.3530
19851TIP3   OH281043   1.053   5.339   3.019  0.0750 -0.0371 -0.1230
19851TIP3    H181044   0.976   5.313   2.969  1.3986 -0.8982 -1.8093
19851TIP3    H281045   1.082   5.258   3.061  0.7333  0.0038 -0.4840
19852TIP3   OH281046   6.568   4.840   0.186 -0.1374 -0.3991  0.2932
19852TIP3    H181047   6.627   4.777   0.145  1.2940  0.7047  0.5808
19852TIP3    H281048   6.527   4.886   0.112 -0.4695 -0.9867  0.0989
19853TIP3   OH281049   3.590   2.570   0.143  1.3926 -0.1728 -0.1464
19853TIP3    H181050   3.616   2.573   0.235  2.1493 -0.3346 -0.3435
19853TIP3    H281051   3.521   2.635   0.135  0.7342 -0.7422  0.7118
19854TIP3   OH281052   4.123   4.441  14.195 -0.8742 -0.4926 -0.1389
19854TIP3    H181053   4.104   4.480  14.110  0.1369 -0.2419 -0.2568
19854TIP3    H281054   4.173   4.362  14.175 -1.0945 -0.7204  0.1969
19855TIP3   OH281055   3.282   5.952  14.522  0.1917  0.5555  0.6908
19855TIP3    H181056   3.238   5.937  14.438  0.4628 -0.0992  0.6630
19855TIP3    H281057   3.360   5.898  14.519  0.9611  1.6243  0.7943
19856TIP3   OH281058   3.396   2.424   3.529 -0.2093  0.0352 -0.4340
19856TIP3    H181059   3.407   2.493   3.595 -1.7699  2.4691 -2.5220
19856TIP3    H281060   3.302   2.423   3.512 -0.1986 -2.4825 -0.7398
19857TIP3   OH281061   4.249   1.583   1.517  0.6576  0.1527  0.1496
19857TIP3    H181062   4.319   1.572   1.453  1.1843  1.2721  0.5048
19857TIP3    H281063   4.209   1.496   1.524  1.6670 -0.3810 -0.4486
19858TIP3   OH281064   5.902   0.533   4.538 -0.2006 -0.6973  0.0121
19858TIP3    H181065   5.982   0.573   4.573  0.6664 -1.2826 -1.2456
19858TIP3    H281066   5.904   0.443   4.568 -0.9683 -0.4446  0.8835
19859TIP3   OH281067   5.110   5.681   4.283 -1.0178  0.2014 -0.1255
19859TIP3    H181068   5.120   5.742   4.209  3.5636  1.7971  1.4853
19859TIP3    H281069   5.115   5.594   4.243 -1.3692  0.9617 -1.9159
19860TIP3   OH281070   0.033   4.699  13.222  0.6405 -0.1271 -0.6682
19860TIP3    H181071  -0.020   4.776  13.245  0.4737 -0.6863  0.9706
19860TIP3    H281072   0.106   4.735  13.171 -0.5099  0.8435 -1.7128
19861TIP3   OH281073   1.343   4.956  11.606  0.2036  0.1554 -0.5960
19861TIP3    H181074   1.392   5.028  11.567 -0.1615  2.0806  2.1734
19861TIP3    H281075   1.400   4.921  11.673  0.0801 -1.7390 -1.4158
19862TIP3   OH281076   5.049   3.530  15.566  0.0535 -0.0299  0.2778
19862TIP3    H181077   5.094   3.533  15.650  2.2890  2.1613 -0.8939
19862TIP3    H281078   5.105   3.476  15.510  0.8208  1.9282 -0.9272
19863TIP3   OH281079   3.130   1.898  12.967  0.3348  0.1725  0.0651
19863TIP3    H181080   3.221   1.879  12.990  0.0052 -0.8142  0.6095
19863TIP3    H281081   3.121   1.993  12.981  0.2720 -0.2330  3.7400
19864TIP3   OH281082   4.585   3.198  14.547 -0.0349  0.7813 -0.5816
19864TIP3    H181083   4.509   3.141  14.565  0.0302  0.9528  0.2713
19864TIP3    H281084   4.559   3.249  14.471 -0.0749 -0.4275 -1.4200
19865TIP3   OH281085   4.978   1.764   1.164  0.3294  0.0161 -0.3981
19865TIP3    H181086   5.052   1.759   1.224 -0.2148 -0.7562  0.2268
19865TIP3    H281087   4.925   1.836   1.198  0.8797  0.7108 -0.9693
19866TIP3   OH281088   5.238   6.075  15.535 -0.1875 -0.2631 -0.6293
19866TIP3    H181089   5.271   6.164  15.520  0.1624 -0.4055 -0.7045
19866TIP3    H281090   5.181   6.083  15.612  1.1649 -0.2912  0.3975
19867TIP3   OH281091   3.003   4.124   1.634  0.3719  0.4143 -0.1571
19867TIP3    H181092   3.030   4.129   1.542  0.0974 -0.1817 -0.2748
19867TIP3    H281093   3.003   4.215   1.664 -1.2855  0.8255 -1.2595
19868TIP3   OH281094   1.544   5.297  16.626  0.1872 -0.1211 -0.3575
19868TIP3    H181095   1.448   5.290  16.623  0.2715 -0.8780 -1.8201
19868TIP3    H281096   1.572   5.219  16.673  0.0812  0.2459  0.3264
19869TIP3   OH281097   5.244   0.922   0.441 -0.3235  0.0854 -0.1760
19869TIP3    H181098   5.179   0.971   0.492  1.1583  0.9287  1.0002
19869TIP3    H281099   5.251   0.837   0.486  0.8732  0.7741  1.0243
19870TIP3   OH281100   2.676   4.419  13.075 -0.2002 -0.1909  0.0773
19870TIP3    H181101   2.752   4.363  13.092  0.0558 -0.1406 -0.8318
19870TIP3    H281102   2.603   4.358  13.066 -0.6919 -0.1350  2.9117
19871TIP3   OH281103   6.723   2.484   1.437 -0.0349  0.5481  0.0325
19871TIP3    H181104   6.641   2.481   1.389  0.3388  1.3835 -0.6960
19871TIP3    H281105   6.704   2.539   1.513  0.3186  2.4460 -1.1715
19872TIP3   OH281106   6.768   2.218  10.882 -0.0792  0.0391  0.1349
19872TIP3    H181107   6.681   2.254  10.867  0.2721  0.5456 -0.7803
19872TIP3    H281108   6.827   2.277  10.835  0.5002 -1.8245 -1.6332
19873TIP3   OH281109   0.588   0.693   3.646 -0.1711  0.1808 -0.1289
19873TIP3    H181110   0.497   0.666   3.654  0.1794 -2.5841 -3.2045
19873TIP3    H281111   0.636   0.633   3.702 -0.0106 -0.9566 -1.4203
19874TIP3   OH281112   1.744   1.452  13.878 -0.1852 -0.1267  0.2361
19874TIP3    H181113   1.751   1.526  13.939  0.8568  0.5423 -0.6563
19874TIP3    H281114   1.828   1.406  13.887  0.1656  0.2402 -1.0038
19875TIP3   OH281115   3.728   1.393   1.125 -0.2018  0.3539  0.0327
19875TIP3    H181116   3.752   1.396   1.032 -1.5066  0.5162 -0.3243
19875TIP3    H281117   3.809   1.368   1.170 -0.0062 -1.7573 -1.3454
19876TIP3   OH281118   0.116   4.384   4.117  0.0098 -0.0876 -0.0345
19876TIP3    H181119   0.074   4.316   4.064  0.9996 -2.0652  1.5778
19876TIP3    H281120   0.202   4.396   4.077  0.1979 -0.4915  0.2486
19877TIP3   OH281121   1.177   4.768   5.943  0.1351 -0.5508  0.1188
19877TIP3    H181122   1.246   4.711   5.909  1.6425 -0.7873  3.2768
19877TIP3    H281123   1.129   4.714   6.005  0.2969  1.0070  1.6737
19878TIP3   OH281124   0.026   2.493  16.061 -0.1304 -0.1929 -1.0194
19878TIP3    H181125  -0.022   2.559  16.111  1.0109 -0.2940  0.2861
19878TIP3    H281126   0.069   2.543  15.991 -0.7724  0.1532 -1.1672
19879TIP3   OH281127   6.036   1.835  11.858  0.0001  0.2344 -0.4272
19879TIP3    H181128   5.979   1.760  11.877  0.3871 -0.6617 -2.5509
19879TIP3    H281129   6.110   1.825  11.919 -1.5964  0.9392  1.7662
19880TIP3   OH281130   6.493   2.993   6.147  0.3312 -0.2542 -0.3339
19880TIP3    H181131   6.565   3.028   6.199 -1.1888  2.5197  0.0774
19880TIP3    H281132   6.522   3.003   6.056  1.6905 -2.1794 -0.1815
19881TIP3   OH281133   2.865   0.749   4.065  0.6390 -0.0193  0.6713
19881TIP3    H181134   2.783   0.729   4.020  0.8153  0.6875  0.0092
19881TIP3    H281135   2.923   0.676   4.043  0.6792  0.2492 -0.1439
19882TIP3   OH281136   0.669   1.184  16.279 -0.0058  0.0609 -0.2108
19882TIP3    H181137   0.626   1.269  16.292 -0.2345 -0.1340  0.3686
19882TIP3    H281138   0.709   1.190  16.193 -1.6273  0.0638 -1.0022
19883TIP3   OH281139   3.752   1.767  13.625  0.9623  0.3954  0.4554
19883TIP3    H181140   3.787   1.842  13.576  0.0708  0.1587 -0.5894
19883TIP3    H281141   3.742   1.698  13.559  1.3027 -0.4904  1.3100
19884TIP3   OH281142   4.217   1.119  11.608 -0.3954 -0.9001  0.4783
19884TIP3    H181143   4.305   1.119  11.571  0.2527  0.7708  1.8926
19884TIP3    H281144   4.160   1.132  11.532  0.4297 -3.0009 -0.5935
19885TIP3   OH281145   0.371   4.190   0.437 -0.2557 -0.4109  0.6319
19885TIP3    H181146   0.297   4.192   0.498 -0.5207 -3.8190  0.5872
19885TIP3    H281147   0.421   4.269   0.458 -1.2012 -0.5678  4.1470
19886TIP3   OH281148   1.033   2.256  14.798  0.3633  0.1799 -0.5478
19886TIP3    H181149   1.128   2.266  14.787  0.4054 -0.1406 -0.4816
19886TIP3    H281150   1.007   2.196  14.728  0.1491  0.5646 -0.8011
19887TIP3   OH281151   4.000   0.919  13.793 -0.5050 -0.4516 -0.0402
19887TIP3    H181152   4.071   0.871  13.835 -0.9573 -0.6741  0.4820
19887TIP3    H281153   3.974   0.985  13.857  1.7778  2.2389 -1.6591
19888TIP3   OH281154   3.884   4.039   0.877 -0.4099 -0.3600 -0.2576
19888TIP3    H181155   3.967   4.074   0.910 -1.5301  2.4313 -0.1980
19888TIP3    H281156   3.901   3.945   0.866  2.3963 -0.0707  0.7878
19889TIP3   OH281157   5.490   2.607   1.618 -0.1744 -0.4621  0.5879
19889TIP3    H181158   5.450   2.692   1.634 -0.5754 -0.6735  0.7323
19889TIP3    H281159   5.456   2.551   1.688 -0.0267 -0.7757  0.4105
19890TIP3   OH281160   5.841   4.421  11.323 -0.0111 -0.3732  0.0019
19890TIP3    H181161   5.865   4.494  11.380  1.1172  0.2597 -1.2345
19890TIP3    H281162   5.813   4.352  11.383  1.1379  0.2615  1.3312
19891TIP3   OH281163   2.465   0.032   4.373  0.6916  0.0090 -0.2125
19891TIP3    H181164   2.554   0.000   4.388  0.5204 -0.1369  0.5665
19891TIP3    H281165   2.419   0.013   4.455  1.0020  3.7976  1.0040
19892TIP3   OH281166   4.286   0.353   5.596 -0.3110 -0.4428  0.1366
19892TIP3    H181167   4.373   0.328   5.625 -0.7750 -0.2859  1.8079
19892TIP3    H281168   4.228   0.328   5.669 -1.4619  0.7259 -0.3186
19893TIP3   OH281169   4.225   5.961   5.454  0.2785 -0.0577 -0.0632
19893TIP3    H181170   4.177   5.905   5.393 -0.6023 -0.7811  1.2344
19893TIP3    H281171   4.199   5.929   5.541  2.2270  0.3062  0.6987
19894TIP3   OH281172   1.078   1.141   2.153 -0.4609 -0.2455  0.0056
19894TIP3    H181173   1.041   1.069   2.205  0.2349 -0.8503 -0.3255
19894TIP3    H281174   1.088   1.105   2.065 -0.8438  0.5131 -0.3601
19895TIP3   OH281175   0.148   3.897   5.788  0.5410 -0.2770  0.0028
19895TIP3    H181176   0.206   3.863   5.856 -0.1952 -0.1383  0.7167
19895TIP3    H281177   0.154   3.832   5.717  1.6933 -0.1730 -0.0243
19896TIP3   OH281178   4.609   3.347   2.242 -0.2152  0.2078 -0.0241
19896TIP3    H181179   4.609   3.251   2.241  3.1131  0.0807 -1.3348
19896TIP3    H281180   4.663   3.370   2.318  2.1766  0.7873 -1.7643
19897TIP3   OH281181   3.063   1.432   2.499  0.2598  0.5680  0.0174
19897TIP3    H181182   3.001   1.362   2.521  0.9608 -0.3602 -0.8695
19897TIP3    H281183   3.009   1.511   2.496 -0.6021  0.0295  0.7315
19898TIP3   OH281184   3.204   3.865   2.797  0.2513  0.3641  0.0223
19898TIP3    H181185   3.206   3.837   2.706  1.9801 -1.0060  0.4251
19898TIP3    H281186   3.137   3.810   2.838 -0.0270  0.4860 -0.2655
19899TIP3   OH281187   2.018   1.666   6.117 -0.0750  0.7411  0.4459
19899TIP3    H181188   1.924   1.677   6.102  0.0200  1.8734  0.5713
19899TIP3    H281189   2.032   1.696   6.206  0.3178 -0.0779  0.6740
19900TIP3   OH281190   0.404   3.632   2.952  0.5117 -0.1516  0.0770
19900TIP3    H181191   0.357   3.632   3.036  0.9503  0.9057  0.3362
19900TIP3    H281192   0.453   3.714   2.952 -1.0244  0.8603 -2.0668
19901TIP3   OH281193   0.156   2.603  12.024  0.5534 -0.4412  0.4966
19901TIP3    H181194   0.131   2.525  11.975 -1.4834  1.1926 -1.2490
19901TIP3    H281195   0.084   2.617  12.086 -1.2014  2.1133 -1.8797
19902TIP3   OH281196   5.508   3.514   0.442  0.3262  0.6294 -0.0258
19902TIP3    H181197   5.561   3.579   0.395 -1.3112  1.2306 -1.1133
19902TIP3    H281198   5.471   3.561   0.516  0.7821  0.3663  0.3799
19903TIP3   OH281199   6.362   3.374  15.255 -0.7544  0.7469 -0.5288
19903TIP3    H181200   6.318   3.415  15.329  1.5488  0.3982  1.1421
19903TIP3    H281201   6.381   3.285  15.285  0.7375  0.7836 -1.2611
19904TIP3   OH281202   3.665   2.378  11.933  0.0338  0.6166  0.6413
19904TIP3    H181203   3.709   2.301  11.898 -0.0120 -0.1906  2.2619
19904TIP3    H281204   3.736   2.441  11.947  0.3470  0.1953  1.0016
19905TIP3   OH281205   0.341   2.673  13.245 -0.1936 -0.3672  0.0122
19905TIP3    H181206   0.286   2.743  13.280 -1.2021 -0.4791 -1.2768
19905TIP3    H281207   0.286   2.595  13.252 -0.6853 -0.2848 -2.3601
19906TIP3   OH281208   2.856   2.049   1.023  0.0177  0.1604 -0.3250
19906TIP3    H181209   2.938   1.999   1.023 -0.8093 -1.2446 -0.4845
19906TIP3    H281210   2.801   2.004   1.087 -1.4926 -0.4260 -1.9715
19907TIP3   OH281211   5.962   0.375   2.638 -0.5420 -0.2345  0.2414
19907TIP3    H181212   6.039   0.394   2.585 -0.6584 -1.6561 -0.5089
19907TIP3    H281213   5.977   0.285   2.670 -0.2797  0.6905  3.0071
19908TIP3   OH281214   4.561   0.635  10.565 -0.1206  0.5475 -0.0867
19908TIP3    H181215   4.478   0.681  10.563 -0.8640 -0.6585 -3.1995
19908TIP3    H281216   4.615   0.681  10.501  1.9004  1.6013  2.2134
19909TIP3   OH281217   3.913   2.207  14.759 -0.4407  0.0277  0.4371
19909TIP3    H181218   3.874   2.294  14.768 -0.0702  0.2970 -0.4109
19909TIP3    H281219   3.842   2.152  14.730 -1.1297 -0.3880  2.7050
19910TIP3   OH281220   2.684   1.763  12.850  0.0436  0.2402 -0.0308
19910TIP3    H181221   2.594   1.782  12.878 -0.8596 -1.1490 -1.7799
19910TIP3    H281222   2.687   1.792  12.759  1.1613 -0.3333 -0.1895
19911TIP3   OH281223   3.321   3.569   6.064 -0.8604 -0.0079  0.8231
19911TIP3    H181224   3.337   3.646   6.119  2.4045 -0.1634  0.2493
19911TIP3    H281225   3.314   3.497   6.127  0.0594  0.2057  1.1834
19912TIP3   OH281226   1.966   0.650  12.406  0.3582 -0.1356  0.4757
19912TIP3    H181227   1.912   0.581  12.368  0.7246  0.4742 -1.2697
19912TIP3    H281228   1.916   0.682  12.481 -1.7728  0.4582 -1.0997
19913TIP3   OH281229   6.356   1.196  17.035  0.1508  0.4901 -0.1911
19913TIP3    H181230   6.451   1.210  17.036  0.1540  0.5610 -0.7809
19913TIP3    H281231   6.338   1.166  16.946 -0.4145  0.7205 -0.1553
19914TIP3   OH281232   2.172   1.167  12.978 -0.9045  0.0387 -0.1459
19914TIP3    H181233   2.229   1.142  12.906  1.1299 -0.2037  1.4332
19914TIP3    H281234   2.100   1.105  12.975  1.5660 -3.1401  0.7856
19915TIP3   OH281235   2.316   1.062  12.781 -0.5262 -0.6685 -0.0487
19915TIP3    H181236   2.374   1.072  12.705 -0.1806 -1.7398  0.0567
19915TIP3    H281237   2.264   0.984  12.760  0.1169 -1.4493  1.1450
19916TIP3   OH281238   2.573   0.216  15.049 -0.0341 -0.2819  0.1599
19916TIP3    H181239   2.517   0.189  14.976 -0.2481 -1.6504  0.8032
19916TIP3    H281240   2.540   0.301  15.075  0.5367  0.6111 -1.8332
19917TIP3   OH281241   1.651   5.485   3.247  0.1397  0.6332  0.3173
19917TIP3    H181242   1.610   5.546   3.308  0.6235  0.4019  0.8876
19917TIP3    H281243   1.579   5.432   3.214  0.0951 -0.6945  2.3513
19918TIP3   OH281244   1.991   1.046   4.684 -0.0719 -0.3256  0.2698
19918TIP3    H181245   2.057   0.991   4.641 -0.1946 -0.3545  0.1173
19918TIP3    H281246   2.005   1.032   4.778 -0.3432 -0.9067  0.2288
19919TIP3   OH281247   4.034   5.173   1.725  0.1218 -0.1302 -0.4059
19919TIP3    H181248   3.974   5.099   1.736 -0.2663  0.2868  0.2637
19919TIP3    H281249   3.988   5.248   1.760 -0.0069  0.7122 -2.2407
19920TIP3   OH281250   5.267   4.046   0.112  0.6720  0.0477 -0.1043
19920TIP3    H181251   5.282   4.031   0.206  1.6945 -1.9705 -0.5102
19920TIP3    H281252   5.172   4.053   0.103  0.5314 -0.2272  1.0363
19921TIP3   OH281253   3.734   4.048  14.401  0.8367  0.2942  0.2346
19921TIP3    H181254   3.663   4.102  14.434  1.4477  0.9508  0.5119
19921TIP3    H281255   3.778   4.015  14.479  0.6015 -0.4496  0.0681
19922TIP3   OH281256   3.709   0.109   0.874  0.1989  0.5319  0.5453
19922TIP3    H181257   3.793   0.143   0.843 -1.2361  3.3124 -0.6674
19922TIP3    H281258   3.676   0.057   0.800  0.9064 -0.7622  1.1126
19923TIP3   OH281259   1.660   3.057   6.604 -0.2786  0.2860  0.0648
19923TIP3    H181260   1.626   2.985   6.657  1.2749  0.3968  1.2637
19923TIP3    H281261   1.717   3.014   6.540 -0.3230  0.3559 -0.0222
19924TIP3   OH281262   4.955   2.804  16.309 -0.3770 -0.1200  0.3092
19924TIP3    H181263   4.923   2.718  16.337  1.0607 -0.8379 -0.1218
19924TIP3    H281264   4.906   2.823  16.230  0.1367 -1.1420 -0.2832
19925TIP3   OH281265   1.003   0.661   5.025  0.5688  0.5560 -0.3585
19925TIP3    H181266   0.911   0.654   5.050  0.7841  0.4852  0.4582
19925TIP3    H281267   1.039   0.725   5.087  1.2490 -0.0340 -0.1320
19926TIP3   OH281268   0.448   6.533   0.098 -0.0070  0.3186 -0.5640
19926TIP3    H181269   0.444   6.611   0.152  0.6447 -0.6288  0.9182
19926TIP3    H281270   0.505   6.556   0.025 -1.2750  1.7665 -1.1540
19927TIP3   OH281271   6.544   2.819   5.450 -0.3211  0.2894 -0.2865
19927TIP3    H181272   6.519   2.882   5.383 -1.8591 -0.1882 -0.2011
19927TIP3    H281273   6.591   2.750   5.402 -0.3080  0.5634 -0.6715
19928TIP3   OH281274   4.608   5.645   1.577  0.1502  0.0259 -0.6088
19928TIP3    H181275   4.565   5.684   1.501 -0.7917  1.6656  0.6852
19928TIP3    H281276   4.680   5.705   1.598  2.3811 -2.0018 -1.9561
19929TIP3   OH281277   5.414   1.975  13.702  0.3361  0.2706 -0.0771
19929TIP3    H181278   5.505   1.972  13.732  0.1049  0.9825  0.7665
19929TIP3    H281279   5.386   1.884  13.699  1.5968 -0.1110 -2.0936
19930TIP3   OH281280   0.835   6.362  10.987  0.5083 -0.2655  0.0296
19930TIP3    H181281   0.910   6.409  11.023 -0.2675  0.8176  0.2699
19930TIP3    H281282   0.826   6.395  10.897  0.5034 -0.6146 -0.0991
19931TIP3   OH281283   0.599   3.501  13.301 -0.2172  0.0298  0.1046
19931TIP3    H181284   0.563   3.412  13.303  0.5347 -0.2957 -0.1809
19931TIP3    H281285   0.661   3.499  13.228 -0.4646  0.9004 -0.1409
19932TIP3   OH281286   5.337   6.401   3.462 -0.0524  0.2842 -0.2711
19932TIP3    H181287   5.386   6.396   3.379 -0.4159 -1.2958 -0.4312
19932TIP3    H281288   5.258   6.349   3.446  0.3253 -0.8508  1.3613
19933TIP3   OH281289   6.109   6.781  11.055 -0.4822 -0.8504 -1.0483
19933TIP3    H181290   6.195   6.755  11.021 -0.6638 -1.6234 -0.9191
19933TIP3    H281291   6.050   6.712  11.027 -1.0203 -0.4492 -0.9146
19934TIP3   OH281292   4.802   1.877  10.149  0.7424  0.0328  0.7216
19934TIP3    H181293   4.734   1.873  10.216 -0.9215  0.5879 -0.8593
19934TIP3    H281294   4.873   1.927  10.190 -0.9487  1.9404  1.4904
19935TIP3   OH281295   3.008   0.105  10.368  0.8617 -0.0062  0.2174
19935TIP3    H181296   3.089   0.157  10.370  0.4751  0.5957  0.8986
19935TIP3    H281297   2.943   0.162  10.408 -0.2280  0.0308 -1.5395
19936TIP3   OH281298   3.250   5.902  11.784  0.5854 -0.9591 -0.1729
19936TIP3    H181299   3.298   5.873  11.706 -0.2611  0.2980 -1.1993
19936TIP3    H281300   3.305   5.971  11.821  1.3085 -1.9915  0.7665
19937TIP3   OH281301   4.049   6.237   3.315  0.4912 -0.3735  0.1258
19937TIP3    H181302   3.955   6.240   3.300  0.1596 -3.1116  1.1106
19937TIP3    H281303   4.071   6.325   3.347 -1.6209  0.4444 -0.4872
19938TIP3   OH281304   1.770   4.640   1.557  0.1301 -0.3342  0.0620
19938TIP3    H181305   1.750   4.610   1.645 -0.0676 -1.1461 -0.2552
19938TIP3    H281306   1.766   4.561   1.503  2.4525 -0.2870 -0.3152
19939TIP3   OH281307   2.790   0.751  14.615  1.0686 -0.9773 -0.1862
19939TIP3    H181308   2.708   0.795  14.595  1.4923 -0.3728 -0.6584
19939TIP3    H281309   2.786   0.735  14.709  2.3928  3.4445  0.8745
19940TIP3   OH281310   3.535   5.953  10.247 -0.3858  0.6827 -0.0340
19940TIP3    H181311   3.508   5.866  10.216 -0.1669  1.5331 -2.8625
19940TIP3    H281312   3.598   5.934  10.317 -0.9681 -1.4060  0.0171
19941TIP3   OH281313   2.162   1.487   5.980 -0.6820 -0.2906 -0.5898
19941TIP3    H181314   2.099   1.548   6.020 -0.0829  0.3030 -0.5366
19941TIP3    H281315   2.109   1.434   5.921 -1.4123 -0.4976  0.2165
19942TIP3   OH281316   2.971   2.807  15.559  0.5305  0.0486  0.5003
19942TIP3    H181317   2.944   2.755  15.634  1.5696 -0.7992  0.3073
19942TIP3    H281318   3.052   2.849  15.586  1.1060 -0.5437 -0.2505
19943TIP3   OH281319   3.232   2.748   3.267  0.5512  0.3852 -0.2986
19943TIP3    H181320   3.251   2.661   3.231 -1.2584  0.9311 -2.8816
19943TIP3    H281321   3.239   2.737   3.362  1.9982 -2.1287 -0.5975
19944TIP3   OH281322   2.257   4.404  15.335  0.2587 -0.7050  0.5247
19944TIP3    H181323   2.301   4.458  15.269  1.1430  0.5715  2.0955
19944TIP3    H281324   2.218   4.332  15.284  1.7179 -0.3232 -1.2748
19945TIP3   OH281325   6.097   6.178  13.640 -0.3825  0.0468  0.3564
19945TIP3    H181326   6.036   6.251  13.622  0.1013  0.4342  0.2702
19945TIP3    H281327   6.115   6.140  13.555  0.6568  0.8727  0.1991
19946TIP3   OH281328   4.044   0.575  11.234 -0.5096 -0.2821 -0.4582
19946TIP3    H181329   4.041   0.652  11.291 -0.5751  0.2793 -1.2046
19946TIP3    H281330   3.985   0.512  11.275 -2.2257  0.8996 -1.0102
19947TIP3   OH281331   5.172   2.513  15.405 -0.1008 -0.1571 -0.0308
19947TIP3    H181332   5.208   2.486  15.489 -1.2654 -3.2975 -0.3973
19947TIP3    H281333   5.246   2.554  15.359  1.2207 -0.6447  1.5729
19948TIP3   OH281334   0.931   6.067   5.439 -0.2532 -0.2233 -0.4420
19948TIP3    H181335   0.927   6.117   5.521 -2.2545  0.3555 -0.8226
19948TIP3    H281336   0.932   6.133   5.370  0.8311 -0.7128 -0.9216
19949TIP3   OH281337   4.957   5.428   6.240 -0.1870  0.4660 -0.2941
19949TIP3    H181338   4.876   5.380   6.221 -0.0019  1.0020 -2.7809
19949TIP3    H281339   4.928   5.507   6.285 -0.8563 -0.1777  0.4290
19950TIP3   OH281340   5.030   6.675   1.946 -0.5468  0.3176  0.3013
19950TIP3    H181341   5.056   6.668   2.038 -0.9467 -0.5984  0.3592
19950TIP3    H281342   4.935   6.691   1.949 -0.4209  1.1447  0.0562
19951TIP3   OH281343   6.290   3.549   1.172  0.5508  0.1243  0.0572
19951TIP3    H181344   6.285   3.644   1.164  0.2073  0.2514  1.5276
19951TIP3    H281345   6.368   3.533   1.226  0.1983 -0.3735  0.4405
19952TIP3   OH281346   4.934   3.963   2.847  0.7153 -0.0893  0.9604
19952TIP3    H181347   4.958   4.052   2.872  0.2904  0.5467 -0.7438
19952TIP3    H281348   4.908   3.970   2.755 -4.4363 -0.9296  2.0290
19953TIP3   OH281349   1.548   4.259  16.843 -0.0988 -0.3405  0.0458
19953TIP3    H181350   1.558   4.300  16.929  1.6623  1.1649 -0.8232
19953TIP3    H281351   1.551   4.331  16.781 -0.1602 -1.5022 -1.3613
19954TIP3   OH281352   3.566   2.116   5.265 -0.0550  0.0219 -0.4539
19954TIP3    H181353   3.554   2.140   5.357  2.5896  0.3093 -0.1177
19954TIP3    H281354   3.604   2.195   5.225  1.0172 -0.8704 -1.2409
19955TIP3   OH281355   6.680   2.921  14.583 -0.3202 -0.3299  0.8526
19955TIP3    H181356   6.749   2.979  14.615  0.7593 -1.2986  0.3498
19955TIP3    H281357   6.643   2.967  14.508  0.2595 -0.1233  0.6921
19956TIP3   OH281358   3.212   2.263  11.928 -0.1267  0.1080  0.4516
19956TIP3    H181359   3.124   2.297  11.945 -0.2954 -0.2669  0.3493
19956TIP3    H281360   3.240   2.225  12.012 -0.1599  0.0170  0.4217
19957TIP3   OH281361   1.223   5.497   0.353  0.1945  0.4018 -0.6620
19957TIP3    H181362   1.147   5.517   0.298 -0.2139 -2.7462 -1.4617
19957TIP3    H281363   1.254   5.412   0.321  0.2575 -1.4258  3.6032
19958TIP3   OH281364   3.363   5.267  11.463  0.0243  0.0127  0.1125
19958TIP3    H181365   3.351   5.172  11.462  0.9429 -0.1512  1.2723
19958TIP3    H281366   3.401   5.287  11.378  0.4191 -0.7660  0.0900
19959TIP3   OH281367   1.658   1.415   4.520 -0.0347 -0.3257 -0.1983
19959TIP3    H181368   1.568   1.436   4.542 -0.2009  0.4573 -1.4924
19959TIP3    H281369   1.708   1.491   4.548 -0.0195 -0.0576 -0.9168
19960TIP3   OH281370   5.259   0.403   5.124 -0.3654 -0.7569  0.6798
19960TIP3    H181371   5.342   0.450   5.131 -0.1455 -1.0858  0.3782
19960TIP3    H281372   5.252   0.355   5.206  0.2249 -1.4835  0.3187
19961TIP3   OH281373   5.469   5.641  16.016 -0.4457 -0.1969 -0.1803
19961TIP3    H181374   5.544   5.695  16.042 -2.0732  1.9982  0.2350
19961TIP3    H281375   5.469   5.568  16.079  1.2921 -0.2523 -0.1890
19962TIP3   OH281376   1.636   4.917   4.268 -0.3161 -0.1330  0.6704
19962TIP3    H181377   1.565   4.978   4.292  0.0944  0.6462 -0.0505
19962TIP3    H281378   1.606   4.832   4.301 -0.1511  0.7235  3.2172
19963TIP3   OH281379   0.102   3.812  12.628 -0.3981 -0.3217 -0.3954
19963TIP3    H181380   0.020   3.770  12.602 -0.0465 -1.3527  0.1273
19963TIP3    H281381   0.102   3.895  12.580 -1.0410 -0.9716 -1.5727
19964TIP3   OH281382   4.116   6.791  17.044 -0.0269 -0.0824  0.2911
19964TIP3    H181383   4.199   6.748  17.026  1.7845  3.2156  0.0089
19964TIP3    H281384   4.137   6.859  17.108 -2.4170  1.2278 -0.1875
19965TIP3   OH281385   1.078   6.277   5.248  0.1522  0.1409  0.0806
19965TIP3    H181386   1.170   6.253   5.235 -0.2809 -0.8768 -1.2861
19965TIP3    H281387   1.035   6.251   5.167 -1.5954 -0.6923  1.2231
19966TIP3   OH281388   2.164   5.631  16.630 -0.6086  0.1578 -0.5470
19966TIP3    H181389   2.123   5.717  16.632 -2.0847 -0.5357  0.4364
19966TIP3    H281390   2.156   5.598  16.720 -0.8197 -1.3406 -1.0873
19967TIP3   OH281391   4.441   6.482   3.551  0.0533 -0.2915  0.0731
19967TIP3    H181392   4.354   6.506   3.581  0.7928  1.0235  1.2617
19967TIP3    H281393   4.475   6.560   3.506  0.0178 -1.3312 -1.8829
19968TIP3   OH281394   1.862   5.982  16.826 -0.2430  0.7376 -0.4943
19968TIP3    H181395   1.824   5.932  16.754  0.9009  2.4150 -2.3689
19968TIP3    H281396   1.795   6.047  16.848 -0.8086 -0.1167  0.3590
19969TIP3   OH281397   2.520   4.078   1.521  0.0579  0.0069 -0.4659
19969TIP3    H181398   2.515   4.040   1.609 -1.0410  1.1990  0.0211
19969TIP3    H281399   2.575   4.156   1.531  1.4009 -0.8045 -1.2304
19970TIP3   OH281400   2.361   6.774  14.556  0.1314  0.5992  0.3343
19970TIP3    H181401   2.294   6.761  14.623 -1.1383  0.6643 -0.8644
19970TIP3    H281402   2.430   6.823  14.600 -1.7660  2.8994  0.9928
19971TIP3   OH281403   2.384   4.070  16.336 -0.4021  0.2211  0.0250
19971TIP3    H181404   2.381   4.032  16.424 -0.0704  0.2539  0.0509
19971TIP3    H281405   2.472   4.106  16.329 -1.1660  2.3499  0.5715
19972TIP3   OH281406   2.412   2.574   4.164 -0.0115 -0.7112 -0.8973
19972TIP3    H181407   2.349   2.561   4.234 -0.3003  1.1238 -0.7699
19972TIP3    H281408   2.496   2.547   4.202 -0.1754  0.1997  0.1436
19973TIP3   OH281409   1.680   3.782  11.949 -0.0549 -0.2208 -0.3137
19973TIP3    H181410   1.684   3.698  11.903 -2.1304 -0.9893  0.7715
19973TIP3    H281411   1.659   3.846  11.881 -1.3597 -1.0648 -0.7439
19974TIP3   OH281412   0.783   4.993  12.521  0.0634  0.1881 -0.0380
19974TIP3    H181413   0.717   5.047  12.478  0.2839 -0.5793 -1.4012
19974TIP3    H281414   0.818   5.048  12.592 -1.5983  0.8194  0.3314
19975TIP3   OH281415   1.822   3.291  15.285 -0.1132  0.5463 -0.1266
19975TIP3    H181416   1.858   3.242  15.211  0.2573  0.4950  0.0855
19975TIP3    H281417   1.898   3.311  15.340 -0.7155 -2.8474  2.3253
19976TIP3   OH281418   4.086   5.985   3.076  0.1444 -0.3113  0.1331
19976TIP3    H181419   4.129   6.041   3.141 -0.9979 -1.2357  1.7523
19976TIP3    H281420   4.113   5.896   3.098 -0.7047 -0.6942 -0.3086
19977TIP3   OH281421   5.852   4.209   3.263  0.2927  0.8486 -0.8754
19977TIP3    H181422   5.823   4.186   3.174 -1.3124  1.2976 -0.4850
19977TIP3    H281423   5.871   4.303   3.258  2.6913  0.4256 -1.3498
19978TIP3   OH281424   2.441   4.831  12.184  0.4729 -0.3266 -0.4856
19978TIP3    H181425   2.522   4.780  12.186  0.7037  0.0494 -0.0742
19978TIP3    H281426   2.418   4.843  12.276  2.3190  3.3175 -0.3344
19979TIP3   OH281427   0.264   0.699  12.937 -0.5407  0.1788  0.3199
19979TIP3    H181428   0.314   0.743  13.006 -0.6953  0.1167  0.4724
19979TIP3    H281429   0.253   0.766  12.870 -1.5964  0.6692  0.9638
19980TIP3   OH281430   0.176   4.232   4.524 -0.2637 -0.0576  0.5906
19980TIP3    H181431   0.115   4.216   4.596  1.1397 -0.6148  1.6919
19980TIP3    H281432   0.165   4.324   4.503 -1.2350 -0.0706  0.9959
19981TIP3   OH281433   2.597   5.517   1.446  0.1364  0.0705 -0.2455
19981TIP3    H181434   2.638   5.574   1.511 -2.7351  0.8544  1.0423
19981TIP3    H281435   2.635   5.431   1.464  1.8773  0.8688  0.1879
19982TIP3   OH281436   2.590   2.562  11.448  0.5226  0.0797  1.0622
19982TIP3    H181437   2.618   2.631  11.388  1.1026 -0.2974  0.8881
19982TIP3    H281438   2.541   2.608  11.516 -0.2236  0.5054  0.2624
19983TIP3   OH281439   1.954   0.803   2.268 -0.4901 -0.4444  0.5793
19983TIP3    H181440   1.884   0.747   2.302 -0.2782 -0.7359  0.5469
19983TIP3    H281441   2.016   0.810   2.341 -1.0557  0.6921  0.9787
19984TIP3   OH281442   6.698   5.049  13.704  0.1211 -0.3650 -0.5440
19984TIP3    H181443   6.771   5.008  13.750  1.6410  1.7598 -0.9066
19984TIP3    H281444   6.621   4.998  13.731  1.2167 -0.5497  2.6697
19985TIP3   OH281445   0.894   1.892   3.719 -0.4695 -0.6555  0.1263
19985TIP3    H181446   0.904   1.809   3.766 -0.7793 -0.9624 -0.3573
19985TIP3    H281447   0.908   1.870   3.627  0.6295  0.0313  0.1041
19986TIP3   OH281448   5.000   0.052   0.014  0.2326 -0.0496 -0.7492
19986TIP3    H181449   5.050   0.131  -0.010  0.7396 -0.3570 -0.7243
19986TIP3    H281450   4.951   0.078   0.092  0.6256  0.1546 -0.5666
19987TIP3   OH281451   6.581   2.789  11.017 -0.4918  0.9526  0.5969
19987TIP3    H181452   6.665   2.831  11.034  0.1015 -0.8860  2.6091
19987TIP3    H281453   6.603   2.704  10.980 -1.4896  0.7756  0.3743
19988TIP3   OH281454   1.035   3.860  15.030 -0.1264  0.5190 -0.0867
19988TIP3    H181455   1.108   3.811  14.992  0.9610  1.1995  1.0578
19988TIP3    H281456   0.981   3.794  15.072  0.8700  0.1920  0.7090
19989TIP3   OH281457   3.711   0.594   2.678 -0.3902  0.2984  0.3877
19989TIP3    H181458   3.706   0.512   2.629  2.3949  0.0369  0.4069
19989TIP3    H281459   3.626   0.600   2.722 -1.3040 -1.6982 -0.9485
19990TIP3   OH281460   3.574   4.802   3.131  0.1088  0.3240 -0.2224
19990TIP3    H181461   3.525   4.725   3.159  1.6477  0.1238  2.2022
19990TIP3    H281462   3.658   4.768   3.100 -0.0638  0.8842 -1.3544
19991TIP3   OH281463   1.628   3.272   5.902 -0.3000  0.7947  0.2241
19991TIP3    H181464   1.589   3.340   5.957  1.7350  1.9815  0.3013
19991TIP3    H281465   1.562   3.255   5.834 -2.4861 -0.0349  2.4105
19992TIP3   OH281466   6.355   6.214  12.382 -0.3877 -0.4443  0.0437
19992TIP3    H181467   6.279   6.156  12.394 -1.4683  0.4822 -1.8492
19992TIP3    H281468   6.354   6.236  12.289  1.1247  1.0850  0.3380
19993TIP3   OH281469   0.931   2.147  12.958  0.5960 -0.0814 -0.0275
19993TIP3    H181470   0.935   2.234  12.997  1.2105 -1.0246  2.1770
19993TIP3    H281471   0.987   2.154  12.880  0.9548  1.3895  0.3208
19994TIP3   OH281472   4.528   0.063  11.999  0.8174  0.4053 -0.3070
19994TIP3    H181473   4.551   0.140  12.051  1.1612  0.3247 -0.3326
19994TIP3    H281474   4.604   0.050  11.942  0.8285 -0.0476 -0.1920
19995TIP3   OH281475   1.079   3.814   4.971  0.4382 -0.1744 -0.0270
19995TIP3    H181476   0.987   3.800   4.950  0.0549 -1.1958  2.0772
19995TIP3    H281477   1.125   3.801   4.888 -1.2157 -0.6320 -0.9151
19996TIP3   OH281478   2.673   1.453  12.745  0.3709  0.1305  0.1660
19996TIP3    H181479   2.758   1.492  12.763  1.8029 -2.3161 -0.7041
19996TIP3    H281480   2.655   1.398  12.821  0.5512 -0.8661 -0.4917
19997TIP3   OH281481   6.093   4.643  11.962  0.3356 -0.2065 -0.4771
19997TIP3    H181482   6.157   4.714  11.961 -0.1494  0.2329 -0.3843
19997TIP3    H281483   6.069   4.634  12.055 -1.9991  1.6801 -0.8164
19998TIP3   OH281484   3.277   4.270   4.629 -0.2645 -0.0935 -0.1423
19998TIP3    H181485   3.340   4.198   4.625 -1.8930 -1.5427 -3.4379
19998TIP3    H281486   3.323   4.344   4.589  0.5671  0.0231  0.9678
19999TIP3   OH281487   4.970   5.036  14.701  0.4424  0.9160  0.3140
19999TIP3    H181488   4.964   5.035  14.606 -0.4519 -0.3358  0.3618
19999TIP3    H281489   5.064   5.038  14.719  0.6298  0.7243 -0.6042
20000TIP3   OH281490   1.943   4.739   0.793  0.0571 -0.0935 -0.5405
20000TIP3    H181491   2.029   4.718   0.756  0.1220 -0.1953 -0.3293
20000TIP3    H281492   1.885   4.672   0.758 -0.3185  1.0096 -2.1633
20001TIP3   OH281493   1.420   0.740   6.126  0.0851  0.6728 -0.9226
20001TIP3    H181494   1.370   0.801   6.179 -1.4370 -0.8715 -0.4997
20001TIP3    H281495   1.394   0.653   6.157  0.9941 -0.2449 -2.5500
20002TIP3   OH281496   2.229   0.947  16.805  0.0334 -0.0788 -0.2306
20002TIP3    H181497   2.165   0.898  16.856 -0.5291  0.3215 -0.5467
20002TIP3    H281498   2.177   1.006  16.751  0.6992  2.4751  1.7076
20003TIP3   OH281499   5.762   6.022   4.841  0.2245  0.5390  0.0899
20003TIP3    H181500   5.791   6.029   4.932  0.1438  0.0005  0.1557
20003TIP3    H281501   5.680   5.973   4.845 -0.5110  1.7122 -0.1410
20004TIP3   OH281502   6.609   6.493  16.823 -0.2681  0.3195  0.5181
20004TIP3    H181503   6.628   6.472  16.732 -0.0360 -0.0326  0.6422
20004TIP3    H281504   6.656   6.575  16.840  0.9917 -0.4206  0.7565
20005TIP3   OH281505   0.612   6.147  14.719  0.2771  0.3461 -0.2001
20005TIP3    H181506   0.637   6.161  14.628  0.6364  0.3662 -0.1030
20005TIP3    H281507   0.696   6.134  14.764  0.0271 -1.0764 -0.1072
20006TIP3   OH281508   3.720   6.629   2.849 -0.4429 -0.2883 -0.4689
20006TIP3    H181509   3.669   6.709   2.840 -1.9693 -0.7724  2.4976
20006TIP3    H281510   3.735   6.599   2.760 -2.1719  1.8410 -1.5626
20007TIP3   OH281511   5.125   3.755  11.186  0.4118 -0.2180  0.5684
20007TIP3    H181512   5.156   3.782  11.273  1.4805  0.7357 -0.0760
20007TIP3    H281513   5.171   3.813  11.125  0.1724 -1.2964 -0.6853
20008TIP3   OH281514   1.760   2.743   5.122 -0.4601  0.2632  0.6551
20008TIP3    H181515   1.694   2.812   5.118 -1.0783 -0.3398  0.3055
20008TIP3    H281516   1.842   2.790   5.138 -0.6763  1.1982 -0.7704
20009TIP3   OH281517   1.389   0.765   0.920 -0.8976  0.3791  0.4867
20009TIP3    H181518   1.384   0.814   0.838 -0.3634  1.4736  1.0839
20009TIP3    H281519   1.312   0.793   0.970 -0.9090  0.1670  0.5878
20010TIP3   OH281520   0.572   5.008   1.474  0.6157  0.1368 -0.4987
20010TIP3    H181521   0.631   4.964   1.535  0.4430 -0.4980 -0.7862
20010TIP3    H281522   0.484   4.988   1.506  0.5386  0.7438 -0.3073
20011TIP3   OH281523   0.644   2.564   1.334 -0.2111  0.5645  0.2721
20011TIP3    H181524   0.645   2.660   1.340 -0.4584  0.6021 -0.2850
20011TIP3    H281525   0.615   2.546   1.245  1.0415 -0.0245 -0.0288
20012TIP3   OH281526   6.529   5.924  16.063  0.1651 -0.3572  0.1049
20012TIP3    H181527   6.623   5.929  16.050  0.1645 -1.5132 -0.4451
20012TIP3    H281528   6.518   5.882  16.148  0.1484 -0.5388  0.0140
20013TIP3   OH281529   1.824   6.359   6.487  0.6481 -0.4290 -0.6230
20013TIP3    H181530   1.878   6.282   6.467  2.1879 -0.3283  2.6131
20013TIP3    H281531   1.756   6.326   6.546 -1.2938  0.0050 -2.4700
20014TIP3   OH281532   0.851   0.620  11.437 -0.3168 -0.0612  0.4900
20014TIP3    H181533   0.888   0.681  11.372 -0.8819  1.0705  1.1848
20014TIP3    H281534   0.795   0.562  11.386 -0.8302  0.8741 -0.0507
20015TIP3   OH281535   4.180   2.570   4.355 -0.1670 -0.0267  0.2916
20015TIP3    H181536   4.091   2.605   4.352 -0.4367 -0.7871 -1.4085
20015TIP3    H281537   4.168   2.475   4.355  0.6269 -0.2081 -2.7721
20016TIP3   OH281538   1.396   6.238   3.535  0.5624 -0.5261  0.0165
20016TIP3    H181539   1.390   6.314   3.594 -0.6785 -2.0304  1.9837
20016TIP3    H281540   1.467   6.186   3.572 -0.3322 -1.5677  0.3085
20017TIP3   OH281541   2.610   2.939  14.949 -0.3113  0.4246  0.0756
20017TIP3    H181542   2.685   2.992  14.921 -0.3179  0.2801 -0.2170
20017TIP3    H281543   2.637   2.849  14.932 -0.8832  0.4171 -0.8337
20018TIP3   OH281544   4.688   1.766   1.669  0.1767 -0.9933 -0.0795
20018TIP3    H181545   4.696   1.694   1.731  0.6064  0.3504  1.4977
20018TIP3    H281546   4.744   1.741   1.595  0.4969 -2.1511  0.5352
20019TIP3   OH281547   0.940   2.532  15.452  0.1103 -1.0903 -0.1481
20019TIP3    H181548   0.880   2.459  15.466 -0.2647 -0.5216  1.3301
20019TIP3    H281549   0.892   2.592  15.395  0.3331 -1.8477 -1.1835
20020TIP3   OH281550   2.717   5.319  16.291  0.0056 -0.0073  0.4591
20020TIP3    H181551   2.809   5.328  16.266  0.1122  1.7478  1.2895
20020TIP3    H281552   2.678   5.270  16.219  1.3665  0.1818 -0.4666
20021TIP3   OH281553   1.699   6.826   0.633 -0.4004 -0.5191  0.1186
20021TIP3    H181554   1.689   6.908   0.680 -4.6366 -1.8857  2.0724
20021TIP3    H281555   1.667   6.844   0.545  2.5360  0.7351 -0.8192
20022TIP3   OH281556   5.028   5.200   2.561  0.2797 -0.1253 -0.2206
20022TIP3    H181557   5.089   5.269   2.584 -0.8064  1.2485 -1.2535
20022TIP3    H281558   4.951   5.246   2.526 -1.8595 -1.6728  2.0614
20023TIP3   OH281559   2.981   0.887   1.850 -0.3832  0.0106  0.3115
20023TIP3    H181560   2.941   0.952   1.907 -0.6798  0.0905  0.0128
20023TIP3    H281561   3.060   0.859   1.897  0.2553  1.2771  0.0278
20024TIP3   OH281562   1.253   4.514   0.739  1.0280  0.2339  0.3989
20024TIP3    H181563   1.183   4.552   0.792 -0.4509 -0.4389 -0.9687
20024TIP3    H281564   1.263   4.425   0.773  0.2975 -0.0917 -0.1874
20025TIP3   OH281565   4.585   3.011  13.439  0.1014 -0.4856 -0.5627
20025TIP3    H181566   4.629   3.095  13.452  0.1015 -0.7646  1.5982
20025TIP3    H281567   4.633   2.949  13.494 -1.2246 -1.4297 -0.4054
20026TIP3   OH281568   0.749   2.746  10.866  0.1592  0.0419  0.3879
20026TIP3    H181569   0.697   2.728  10.788  1.8504 -1.5037 -0.4564
20026TIP3    H281570   0.756   2.841  10.869 -0.6157  0.1560 -0.8752
20027TIP3   OH281571   1.120   4.345   1.956  0.3769 -0.3335 -0.6882
20027TIP3    H181572   1.036   4.299   1.944  0.6684 -0.9519 -0.3786
20027TIP3    H281573   1.168   4.328   1.876  0.6475 -0.9156 -0.4036
20028TIP3   OH281574   1.435   0.137  13.383 -0.1545  0.6010  0.1439
20028TIP3    H181575   1.345   0.107  13.395 -0.0474  0.8059  1.7731
20028TIP3    H281576   1.477   0.120  13.468  1.1723  1.0711 -0.3923
20029TIP3   OH281577   0.326   3.784  13.384  0.1678 -0.9708  0.1066
20029TIP3    H181578   0.238   3.746  13.389 -0.6784  0.6366 -1.5447
20029TIP3    H281579   0.313   3.876  13.406  0.7638  0.0849 -3.3936
20030TIP3   OH281580   0.147   4.837   3.869 -0.1458 -0.0393 -0.0497
20030TIP3    H181581   0.071   4.794   3.909 -0.5849 -0.1791 -0.9986
20030TIP3    H281582   0.188   4.769   3.815 -0.1510  0.4052 -0.6224
20031TIP3   OH281583   4.793   3.397   3.630 -0.4754  0.5176  0.0642
20031TIP3    H181584   4.714   3.356   3.596 -1.5397  1.5772  1.1340
20031TIP3    H281585   4.808   3.355   3.715  1.9281 -1.8335 -1.3516
20032TIP3   OH281586   1.585   5.570   6.332  0.2869 -0.1678  0.4996
20032TIP3    H181587   1.654   5.544   6.393  0.9607 -1.0676 -0.5831
20032TIP3    H281588   1.623   5.643   6.283  0.1302 -0.0802  0.5107
20033TIP3   OH281589   0.892   5.627   1.635  0.4686 -0.5637 -0.2037
20033TIP3    H181590   0.983   5.600   1.621  1.1131  1.5414 -0.3893
20033TIP3    H281591   0.860   5.648   1.547  0.2659  0.0738  0.0197
20034TIP3   OH281592   4.041   6.474  13.859  0.2205  0.2849 -0.0426
20034TIP3    H181593   4.108   6.453  13.925 -1.5243  0.3566  1.8453
20034TIP3    H281594   4.069   6.428  13.780  2.3931  0.1781  0.7251
20035TIP3   OH281595   0.422   6.740   5.214  0.0658  0.5914 -0.2994
20035TIP3    H181596   0.502   6.700   5.179 -1.5367 -0.8594 -2.5445
20035TIP3    H281597   0.412   6.700   5.300  2.3895  1.8002  0.6426
20036TIP3   OH281598   5.947   3.222   5.595 -0.2663 -0.6980 -0.6453
20036TIP3    H181599   5.957   3.222   5.500  0.9988 -1.7111 -0.5329
20036TIP3    H281600   5.964   3.132   5.621  2.1394  0.0778  0.7806
20037TIP3   OH281601   6.756   5.599   5.512 -0.2199  0.7013  0.6287
20037TIP3    H181602   6.813   5.630   5.442 -0.1741 -0.9372 -0.1082
20037TIP3    H281603   6.757   5.503   5.503 -1.0415  0.5099  2.2190
20038TIP3   OH281604   4.587   2.485  13.812 -0.0453  0.1540 -0.4384
20038TIP3    H181605   4.542   2.401  13.825 -0.7043  0.0946 -2.5768
20038TIP3    H281606   4.516   2.548  13.798  0.4637  0.9057  0.2840
20039TIP3   OH281607   3.642   0.396   5.694 -0.1951  0.0765 -0.1607
20039TIP3    H181608   3.627   0.432   5.781 -0.8501  0.7604 -0.5513
20039TIP3    H281609   3.606   0.461   5.634 -0.5548 -0.7960 -0.9162
20040TIP3   OH281610   5.219   4.963   0.924 -0.5737  0.1038 -0.6922
20040TIP3    H181611   5.241   5.055   0.939  0.3560 -0.4744  2.2585
20040TIP3    H281612   5.156   4.965   0.853 -3.2686  3.4203  1.4446
20041TIP3   OH281613   0.298   6.168   0.056 -0.2407  0.5298  0.3254
20041TIP3    H181614   0.391   6.183   0.070  0.2798 -0.5742 -1.6840
20041TIP3    H281615   0.257   6.252   0.077  1.1731  1.0038  1.3137
20042TIP3   OH281616   4.401   5.046   2.843  0.2159  0.5749 -0.4321
20042TIP3    H181617   4.379   5.073   2.753 -1.0927 -0.2480 -0.3841
20042TIP3    H281618   4.369   5.118   2.897  2.1025  1.6578 -0.6553
20043TIP3   OH281619   6.500   0.301  14.065 -0.1815 -0.4656 -0.0376
20043TIP3    H181620   6.411   0.308  14.030 -0.2245 -0.3049  0.1033
20043TIP3    H281621   6.488   0.282  14.158 -0.0798  0.6532  0.2188
20044TIP3   OH281622   5.101   4.373   4.485 -0.5051  0.8107  0.1175
20044TIP3    H181623   5.079   4.354   4.394 -1.8284  0.9584  0.3842
20044TIP3    H281624   5.189   4.338   4.496 -0.5750  0.2147 -1.0438
20045TIP3   OH281625   0.127   3.437   4.455  0.2246  0.1680 -0.0776
20045TIP3    H181626   0.079   3.427   4.373 -2.3608  1.6958  1.1159
20045TIP3    H281627   0.190   3.366   4.455  0.2409  0.0710 -3.3143
20046TIP3   OH281628   4.269   4.909  14.249  0.2400  0.1251  0.8979
20046TIP3    H181629   4.339   4.973  14.243  0.6111 -0.3863 -0.6057
20046TIP3    H281630   4.312   4.824  14.238 -0.7180 -0.1320 -1.6051
20047TIP3   OH281631   3.277   3.352   4.651  0.1259 -0.3325 -0.1869
20047TIP3    H181632   3.216   3.424   4.635  1.2571  0.7997  0.4095
20047TIP3    H281633   3.235   3.275   4.612 -1.6262  0.4161  0.1506
20048TIP3   OH281634   4.034   6.173  16.884 -0.2104 -0.3784  0.6705
20048TIP3    H181635   3.996   6.173  16.972  3.0894 -0.2021  2.2406
20048TIP3    H281636   4.069   6.261  16.873 -0.5179 -0.4149 -0.8423
20049TIP3   OH281637   0.235   5.820  10.664  0.2171  0.5593 -0.3205
20049TIP3    H181638   0.167   5.774  10.614 -0.4447 -2.0210  2.6221
20049TIP3    H281639   0.188   5.891  10.708  0.2444  1.1465 -1.2225
20050TIP3   OH281640   0.317   5.542   4.381  0.1631  0.4278 -0.5140
20050TIP3    H181641   0.268   5.619   4.351  0.1191  0.6416  0.1048
20050TIP3    H281642   0.322   5.551   4.476 -0.8245 -0.8999 -0.2959
20051TIP3   OH281643   4.540   2.493  15.175 -0.1641  0.0634  0.2313
20051TIP3    H181644   4.465   2.515  15.120 -0.1618  2.6258  1.0928
20051TIP3    H281645   4.616   2.517  15.121  0.0700 -1.9719 -0.4149
20052TIP3   OH281646   0.675   1.866  15.883 -0.0535 -0.6778  0.3034
20052TIP3    H181647   0.581   1.882  15.870  0.3187  0.6106 -1.1497
20052TIP3    H281648   0.680   1.819  15.965 -2.0573 -1.6844 -0.0848
20053TIP3   OH281649   5.227   1.747   4.096  0.2480 -0.1423 -0.3788
20053TIP3    H181650   5.165   1.677   4.076 -0.3973 -0.1561  1.5010
20053TIP3    H281651   5.304   1.725   4.043 -0.5271 -1.3556 -1.0728
20054TIP3   OH281652   1.632   4.866   2.677  0.2019 -0.1117 -0.4344
20054TIP3    H181653   1.564   4.933   2.687  0.8719  0.4211  0.7919
20054TIP3    H281654   1.701   4.893   2.739  1.0366 -1.2449 -0.8468
20055TIP3   OH281655   1.927   6.131   4.742 -0.3210 -0.5346 -0.2088
20055TIP3    H181656   1.906   6.204   4.800 -1.3914 -0.3772 -0.7695
20055TIP3    H281657   1.927   6.054   4.799 -0.9292 -0.3263  0.0830
20056TIP3   OH281658   6.532   4.937   2.344  0.2703 -0.3154  0.1034
20056TIP3    H181659   6.445   4.923   2.380 -0.5439  2.5996 -0.4867
20056TIP3    H281660   6.586   4.961   2.420  0.4193 -1.3949  0.3585
20057TIP3   OH281661   5.588   1.337  16.387  0.1274 -0.5259  0.3925
20057TIP3    H181662   5.680   1.327  16.363 -0.2330  0.1230 -1.3832
20057TIP3    H281663   5.587   1.328  16.482  1.8242 -1.9512  0.3111
20058TIP3   OH281664   2.065   5.162  13.224  0.8534  0.3942  0.0813
20058TIP3    H181665   2.007   5.116  13.163  1.8946  1.2635 -1.6403
20058TIP3    H281666   2.059   5.254  13.199 -0.2853  1.1239  2.6955
20059TIP3   OH281667   5.487   6.200   4.292  0.0005  0.7156  0.4860
20059TIP3    H181668   5.489   6.113   4.331  3.1626 -0.1008 -1.1865
20059TIP3    H281669   5.494   6.260   4.366  1.4505 -0.6001  1.4754
20060TIP3   OH281670   4.006   6.072   5.145 -0.3471  0.0245 -0.5587
20060TIP3    H181671   4.025   5.988   5.187  0.3362 -0.3866 -1.6433
20060TIP3    H281672   3.979   6.129   5.217 -0.5377 -1.0367  0.2347
20061TIP3   OH281673   5.402   0.624   4.823  0.1448  0.3069  0.1737
20061TIP3    H181674   5.396   0.663   4.735  1.2689  1.0717  0.4170
20061TIP3    H281675   5.314   0.590   4.839 -1.5399  4.2650  0.6043
20062TIP3   OH281676   3.607   1.438  16.727 -0.2778  0.3164 -0.7936
20062TIP3    H181677   3.632   1.353  16.763 -2.2530 -0.1570 -0.4242
20062TIP3    H281678   3.612   1.499  16.801  1.8478  0.7263 -1.2199
20063TIP3   OH281679   0.044   0.383   2.920 -0.2869 -0.1749  0.2796
20063TIP3    H181680   0.065   0.329   2.844 -1.0192  1.5614 -1.2609
20063TIP3    H281681   0.121   0.378   2.976  0.5242 -1.0632 -0.8648
20064TIP3   OH281682   5.062   1.975   5.386 -0.0243 -0.6045 -0.1049
20064TIP3    H181683   5.128   1.961   5.318 -0.1436 -0.0822 -0.3331
20064TIP3    H281684   5.030   1.887   5.407 -0.8217 -0.6969 -1.5658
20065TIP3   OH281685   6.520   4.192   5.730 -0.0385 -0.2724  0.3607
20065TIP3    H181686   6.508   4.277   5.688  2.5164  0.7636  1.4999
20065TIP3    H281687   6.528   4.212   5.823  3.2565 -1.3289  0.4350
20066TIP3   OH281688   3.527   1.904   0.940  0.3820 -0.0044  0.0923
20066TIP3    H181689   3.551   1.929   1.029  1.7461  0.8504 -0.4943
20066TIP3    H281690   3.444   1.857   0.951 -0.5452  1.8148  1.6105
20067TIP3   OH281691   0.922   0.149  16.980  0.0047  0.1699  0.2242
20067TIP3    H181692   0.867   0.112  16.911  0.9706 -0.0508 -0.4473
20067TIP3    H281693   0.951   0.233  16.945 -0.8163  0.8180  1.0512
20068TIP3   OH281694   5.579   1.412   2.476  0.2825  0.5751  0.6342
20068TIP3    H181695   5.535   1.350   2.416  1.1378 -1.0469  1.5992
20068TIP3    H281696   5.577   1.367   2.561  0.5909  2.0901  1.4695
20069TIP3   OH281697   4.605   3.458   5.694 -0.0560  0.1548  0.5637
20069TIP3    H181698   4.701   3.468   5.694 -0.0434  0.4238 -1.2109
20069TIP3    H281699   4.582   3.452   5.787  1.5426  1.4822  1.1220
20070TIP3   OH281700   2.119   2.608  16.529 -0.2075 -0.4275 -0.4295
20070TIP3    H181701   2.106   2.603  16.435  0.6227  1.0105 -0.6367
20070TIP3    H281702   2.098   2.698  16.553 -0.3277 -0.7431  0.7595
20071TIP3   OH281703   2.506   5.230  12.803  0.6975 -0.1319  1.2023
20071TIP3    H181704   2.505   5.248  12.897  1.5952  0.8876  1.0314
20071TIP3    H281705   2.480   5.312  12.762  1.0647 -0.3375  0.5371
20072TIP3   OH281706   1.158   2.044  13.138 -0.4329 -0.1404  0.4412
20072TIP3    H181707   1.156   2.139  13.137 -1.8534 -0.1363  1.3927
20072TIP3    H281708   1.198   2.020  13.054 -0.4407  1.2757  0.0096
20073TIP3   OH281709   2.023   1.085   2.140  0.2045  0.6049  0.3042
20073TIP3    H181710   1.952   1.117   2.084  0.6165 -0.3687 -0.8101
20073TIP3    H281711   1.979   1.034   2.207 -0.2589  1.3640  0.5968
20074TIP3   OH281712   0.853   5.825   5.574  0.3497 -0.5165  0.2895
20074TIP3    H181713   0.856   5.771   5.495 -0.3477  0.2861 -0.3153
20074TIP3    H281714   0.858   5.915   5.541  1.6814 -0.2081  1.2818
20075TIP3   OH281715   4.646   5.098  11.925 -0.5438 -0.1536  0.3059
20075TIP3    H181716   4.620   5.043  11.852 -1.8570 -1.9566  2.0416
20075TIP3    H281717   4.592   5.069  11.999 -1.0543  3.1987  1.4617
20076TIP3   OH281718   3.749   3.073   2.997  0.0739  0.1555 -0.5837
20076TIP3    H181719   3.831   3.118   3.017 -0.1614  1.1585 -1.7657
20076TIP3    H281720   3.727   3.026   3.078  2.8940 -1.9030 -0.8826
20077TIP3   OH281721   0.343   5.847  11.269  0.1224 -0.4378 -0.2732
20077TIP3    H181722   0.433   5.877  11.255 -0.2602  1.3429  0.8084
20077TIP3    H281723   0.349   5.787  11.343  0.7160 -2.2146 -1.6832
20078TIP3   OH281724   2.500   5.758  12.744  0.5568 -0.2460 -0.3949
20078TIP3    H181725   2.537   5.845  12.760  0.6481  0.1886 -2.6396
20078TIP3    H281726   2.575   5.704  12.721  0.4863 -0.9332  0.8856
20079TIP3   OH281727   4.941   4.432   2.702 -0.0002 -0.3051 -0.2012
20079TIP3    H181728   4.902   4.451   2.616 -1.6085 -0.5372  0.4529
20079TIP3    H281729   4.969   4.518   2.734 -3.7018  0.5981  1.0422
20080TIP3   OH281730   0.753   1.356   1.858  0.3480 -0.3955 -0.4264
20080TIP3    H181731   0.807   1.420   1.811 -1.0891  0.9221 -0.3388
20080TIP3    H281732   0.677   1.405   1.888 -0.0724 -1.8202  0.9788
20081TIP3   OH281733   2.872   3.825  14.649  0.3725  0.2929 -0.1725
20081TIP3    H181734   2.903   3.842  14.738  0.2013 -0.1628 -0.0254
20081TIP3    H281735   2.840   3.735  14.651 -1.0249  0.7649 -0.3018
20082TIP3   OH281736   6.379   3.465  11.243  0.4450  0.0140 -0.0169
20082TIP3    H181737   6.323   3.456  11.320  0.7872 -3.9334 -0.0212
20082TIP3    H281738   6.328   3.424  11.172  2.4707 -2.0589 -0.3993
20083TIP3   OH281739   5.913   6.301  15.042 -0.1780 -0.3526  0.1360
20083TIP3    H181740   5.993   6.344  15.073  0.8033 -1.2146 -1.0889
20083TIP3    H281741   5.881   6.253  15.118 -0.9782  1.9889  1.3698
20084TIP3   OH281742   2.230   0.654   2.225  0.1043  0.4016  0.1204
20084TIP3    H181743   2.231   0.637   2.131 -0.0598  0.6876  0.0664
20084TIP3    H281744   2.228   0.749   2.233  0.7358  0.3951  0.4244
20085TIP3   OH281745   1.201   3.268  16.653 -0.0702  0.0415  0.3543
20085TIP3    H181746   1.186   3.205  16.724  0.5025  0.8073  1.1737
20085TIP3    H281747   1.228   3.213  16.579  0.3475 -0.6935  1.0293
20086TIP3   OH281748   6.731   1.518   6.101  0.2206 -0.2273 -0.1413
20086TIP3    H181749   6.794   1.447   6.111  0.3050 -0.4621 -1.9571
20086TIP3    H281750   6.785   1.596   6.085  0.1229 -0.5297 -2.2826
20087TIP3   OH281751   0.049   0.572   5.022  0.0208 -0.7341 -0.5167
20087TIP3    H181752   0.087   0.607   4.941 -0.4384 -2.9064 -1.7201
20087TIP3    H281753   0.125   0.556   5.078  0.5390 -1.1531 -1.3157
20088TIP3   OH281754   6.802   0.402   0.136  0.3207  0.2665 -0.0056
20088TIP3    H181755   6.776   0.332   0.196  0.8539 -0.2228 -0.3319
20088TIP3    H281756   6.897   0.409   0.146  0.4931 -0.1929 -1.1659
20089TIP3   OH281757   4.671   0.931  15.093 -0.3294 -0.3579  0.0191
20089TIP3    H181758   4.683   1.025  15.105 -1.0016  0.0420 -1.9746
20089TIP3    H281759   4.676   0.894  15.181 -0.4611  1.5914  0.8910
20090TIP3   OH281760   5.035   6.848   6.878  0.8051 -0.0904 -0.2952
20090TIP3    H181761   4.987   6.834   6.796  0.2487  0.0940 -0.0013
20090TIP3    H281762   5.084   6.929   6.864 -1.5376  1.5773  0.5734
20091TIP3   OH281763   2.862   2.037   6.000  0.0806  0.3684  0.1871
20091TIP3    H181764   2.768   2.035   6.014  0.0412  0.2115 -0.0874
20091TIP3    H281765   2.880   1.958   5.949 -0.0773  1.8885 -2.4325
20092TIP3   OH281766   5.982   4.426  12.452  0.1437  0.4214 -0.3459
20092TIP3    H181767   6.031   4.378  12.386  0.3194  0.2536 -0.0933
20092TIP3    H281768   5.911   4.367  12.478  1.5991 -0.6274  1.5441
20093TIP3   OH281769   0.941   6.592   2.573 -0.5207  0.0156  0.0158
20093TIP3    H181770   0.868   6.558   2.624 -2.0820  1.1537 -1.3678
20093TIP3    H281771   1.009   6.612   2.638 -1.7845 -0.1831  1.4444
20094TIP3   OH281772   5.029   4.124  16.108  0.2454 -0.3663  0.0936
20094TIP3    H181773   5.086   4.094  16.179  0.4054  0.2462  0.2280
20094TIP3    H281774   5.072   4.202  16.073 -0.5121  0.1214  0.2192
20095TIP3   OH281775   3.847   6.279  15.150  0.3197 -0.5551 -1.0173
20095TIP3    H181776   3.816   6.365  15.120  0.3791 -0.3682 -0.5693
20095TIP3    H281777   3.786   6.255  15.220 -0.6377 -1.6174 -2.1960
20096TIP3   OH281778   5.225   1.837  13.972 -0.1703  0.7119 -0.0656
20096TIP3    H181779   5.265   1.791  14.046 -0.6787 -2.2077 -1.4496
20096TIP3    H281780   5.158   1.892  14.012 -1.6290 -2.0719  1.6333
20097TIP3   OH281781   4.015   4.974  12.387  0.4989 -0.4521  0.1320
20097TIP3    H181782   4.084   5.024  12.430  1.2513  0.8178 -2.3725
20097TIP3    H281783   4.061   4.916  12.326 -0.5589 -0.2706 -0.8835
20098TIP3   OH281784   6.634   0.228  12.264  0.3461  0.1082 -0.6023
20098TIP3    H181785   6.722   0.260  12.249  0.6072  0.6699  1.6814
20098TIP3    H281786   6.580   0.307  12.273 -0.7874 -0.2050 -3.5024
20099TIP3   OH281787   2.983   0.012   2.511 -0.0226 -0.3310 -0.6025
20099TIP3    H181788   2.899   0.047   2.482  0.2791  0.2273 -0.8161
20099TIP3    H281789   2.964  -0.078   2.539 -0.5979 -0.3646 -1.0999
20100TIP3   OH281790   6.799   5.052   0.700  0.0153  0.6763 -0.1863
20100TIP3    H181791   6.859   5.039   0.773  0.0002  0.9261 -0.1273
20100TIP3    H281792   6.729   5.107   0.736 -1.4760 -1.4845  0.4072
20101TIP3   OH281793   4.860   5.617  12.162 -0.3649  0.0949  0.3453
20101TIP3    H181794   4.847   5.712  12.162 -0.0691  0.1376 -0.1229
20101TIP3    H281795   4.954   5.605  12.151 -0.3467 -0.2483  0.8605
20102TIP3   OH281796   2.654   5.842  14.068 -0.3687 -0.1488 -0.7241
20102TIP3    H181797   2.649   5.776  13.999  2.2016 -0.4014 -0.8007
20102TIP3    H281798   2.615   5.800  14.145  0.0785 -1.3045 -1.1075
20103TIP3   OH281799   4.052   0.273   1.005 -0.5545 -0.3522  0.2424
20103TIP3    H181800   4.012   0.257   1.090  0.6918  0.6491  1.0712
20103TIP3    H281801   4.135   0.226   1.009 -0.1432  0.3225 -0.1037
20104TIP3   OH281802   6.098   6.321   4.349  0.2809 -0.0052  0.6940
20104TIP3    H181803   6.006   6.296   4.343  0.3328  0.0628 -0.7278
20104TIP3    H281804   6.134   6.265   4.417 -0.7193 -0.3178  0.9773
20105TIP3   OH281805   3.973   0.384  11.045  0.3281  0.1276 -0.2440
20105TIP3    H181806   4.017   0.444  11.105  1.6831  0.3386 -1.3925
20105TIP3    H281807   3.951   0.438  10.969  1.5478 -0.7937 -1.2837
20106TIP3   OH281808   3.221   0.949  15.548  1.2316 -0.5481  0.2064
20106TIP3    H181809   3.304   0.959  15.501  0.3155 -0.9697 -1.5849
20106TIP3    H281810   3.191   0.861  15.525  0.0142 -0.1873  0.3604
20107TIP3   OH281811   5.007   1.292  16.575 -0.2881  0.0114  0.8815
20107TIP3    H181812   4.958   1.367  16.542  0.7543 -0.2391 -1.3806
20107TIP3    H281813   4.999   1.299  16.671 -0.3004  2.9235  0.7584
20108TIP3   OH281814   5.579   5.164   5.896  0.0678  0.4398  0.5050
20108TIP3    H181815   5.569   5.246   5.944  0.8483 -0.8394  3.0120
20108TIP3    H281816   5.672   5.142   5.903 -0.1924 -0.8636  0.2704
20109TIP3   OH281817   6.010   4.800  12.566  0.4181 -0.2462 -0.6065
20109TIP3    H181818   6.081   4.743  12.538  1.0462 -0.4416  1.2727
20109TIP3    H281819   6.038   4.835  12.650 -1.5467 -0.0335  0.0315
20110TIP3   OH281820   4.046   0.428  16.184  0.0082  0.1023  0.6023
20110TIP3    H181821   3.976   0.490  16.166  0.7826  0.6696 -0.6097
20110TIP3    H281822   4.093   0.465  16.260 -0.4048  0.2315  0.7945
20111TIP3   OH281823   1.983   1.869  14.595 -0.2633 -1.1995  0.2462
20111TIP3    H181824   2.004   1.961  14.612 -0.5925 -0.5550 -2.3592
20111TIP3    H281825   2.067   1.829  14.572 -0.6122 -0.3565 -3.0602
20112TIP3   OH281826   0.565   4.700   5.808  0.1720  0.3581 -0.5232
20112TIP3    H181827   0.629   4.647   5.760 -0.5779 -0.1004 -1.0528
20112TIP3    H281828   0.615   4.742   5.877  0.9804 -0.2551 -0.7177
20113TIP3   OH281829   0.029   2.272  15.874  0.5660 -0.2072  0.1186
20113TIP3    H181830  -0.012   2.353  15.906  1.1166  0.3097 -0.4756
20113TIP3    H281831   0.059   2.228  15.954 -1.1345 -0.6145  0.5858
20114TIP3   OH281832   2.442   1.647   5.796 -0.0126  0.4257 -0.1928
20114TIP3    H181833   2.482   1.691   5.720  0.6266 -0.1791 -0.2165
20114TIP3    H281834   2.360   1.694   5.810 -1.8179 -1.4462 -3.3130
20115TIP3   OH281835   1.599   2.244   1.561 -0.5917 -0.3646  0.5104
20115TIP3    H181836   1.667   2.211   1.619 -0.9753 -1.0691  0.5779
20115TIP3    H281837   1.610   2.194   1.480  0.1127  0.8058 -0.1285
20116TIP3   OH281838   5.965   1.740  10.173  0.8037 -0.2045  0.1009
20116TIP3    H181839   5.914   1.794  10.113 -1.4295 -1.5158  0.6678
20116TIP3    H281840   6.056   1.767  10.160  0.1006  1.4428 -1.8436
20117TIP3   OH281841   2.198   3.160   6.178  0.3034 -0.3640  0.0194
20117TIP3    H181842   2.129   3.223   6.198 -1.6242 -2.2132 -0.4132
20117TIP3    H281843   2.182   3.087   6.239  1.6846 -0.9960 -0.3299
20118TIP3   OH281844   4.547   0.241   4.903 -0.1263 -0.3331 -0.6131
20118TIP3    H181845   4.456   0.268   4.916 -0.2313 -1.5746  1.9903
20118TIP3    H281846   4.592   0.321   4.877 -1.4542  1.0193  0.9925
20119TIP3   OH281847   1.145   3.988   6.117  0.3240 -0.5289  0.2637
20119TIP3    H181848   1.170   4.024   6.032 -0.0151 -1.1540 -0.1059
20119TIP3    H281849   1.225   3.950   6.152  0.0479 -2.0468 -0.6760
20120TIP3   OH281850   2.983   2.474  13.300  0.3099  0.0881 -0.4212
20120TIP3    H181851   3.074   2.503  13.303  0.8744 -1.5763  1.6356
20120TIP3    H281852   2.962   2.468  13.207  2.5521 -0.2058 -0.9587
20121TIP3   OH281853   2.753   4.428   0.756  0.2623  0.1634 -0.1200
20121TIP3    H181854   2.802   4.395   0.832  0.4851  0.6388 -0.0543
20121TIP3    H281855   2.795   4.511   0.734 -0.8582  0.8604  0.2788
20122TIP3   OH281856   6.102   1.256   3.871  0.0392  0.1275  0.4750
20122TIP3    H181857   6.151   1.300   3.802  1.9210 -2.0891  0.2781
20122TIP3    H281858   6.156   1.268   3.949 -0.8079  0.4614  1.0259
20123TIP3   OH281859   4.385   3.383  13.901  0.0863 -0.0386  0.1993
20123TIP3    H181860   4.356   3.469  13.931 -0.9429  0.3323 -1.6903
20123TIP3    H281861   4.428   3.400  13.816 -0.4104 -1.3929 -0.3510
20124TIP3   OH281862   1.009   4.607   3.371  0.1058 -0.0849  0.2543
20124TIP3    H181863   0.916   4.604   3.394  0.2042 -0.4721  0.6027
20124TIP3    H281864   1.010   4.607   3.275 -0.3072  1.7098  0.2047
20125TIP3   OH281865   0.709   4.338   3.006 -0.1921  0.0774 -0.2538
20125TIP3    H181866   0.744   4.401   2.944  0.7278 -1.4238 -1.3278
20125TIP3    H281867   0.688   4.389   3.084  1.8063  1.4821 -0.5851
20126TIP3   OH281868   2.795   2.989   4.697 -0.2446 -0.4192 -0.4969
20126TIP3    H181869   2.763   3.073   4.731  0.4411 -0.1456 -0.5157
20126TIP3    H281870   2.736   2.924   4.735  1.0113 -0.2377  2.0188
20127TIP3   OH281871   5.757   1.980  12.579  0.3711 -0.3637  0.0303
20127TIP3    H181872   5.754   1.889  12.550  0.9375 -0.6854  0.9532
20127TIP3    H281873   5.845   2.009  12.558 -0.1027  0.3045 -1.1718
20128TIP3   OH281874   6.205   2.562  15.122  0.0194  0.2340  0.6091
20128TIP3    H181875   6.288   2.609  15.115  0.3819 -0.1392  2.0834
20128TIP3    H281876   6.198   2.539  15.215 -2.0590  0.8281  0.6487
20129TIP3   OH281877   6.077   0.793  16.384  0.0235  0.2800  0.3720
20129TIP3    H181878   6.077   0.867  16.444 -1.1185 -0.2093  1.0078
20129TIP3    H281879   6.133   0.728  16.426  1.7398  1.0510 -0.5930
20130TIP3   OH281880   6.496   1.312   1.112 -0.0337  0.0402 -0.2541
20130TIP3    H181881   6.509   1.332   1.204  0.4727  0.8027 -0.4842
20130TIP3    H281882   6.471   1.219   1.111  2.8998 -0.8736  0.4283
20131TIP3   OH281883   1.580   0.881  16.464 -0.1804 -0.0316  0.4641
20131TIP3    H181884   1.604   0.953  16.523  0.2451 -1.0755  1.6087
20131TIP3    H281885   1.547   0.813  16.522 -0.6814 -0.7377 -0.6155
20132TIP3   OH281886   0.999   1.363  15.667 -0.0302  0.1499  0.1462
20132TIP3    H181887   0.968   1.292  15.610  1.3290 -0.6130  0.3317
20132TIP3    H281888   1.013   1.321  15.752  0.7209  0.6568  0.2758
20133TIP3   OH281889   5.925   3.198  12.938 -0.4486 -0.6366  0.0322
20133TIP3    H181890   5.870   3.185  13.015 -0.3895  2.7213  0.8005
20133TIP3    H281891   6.014   3.189  12.970 -0.4442 -0.2794  0.1220
20134TIP3   OH281892   6.760   2.786   0.414  0.2010 -0.3256  0.1788
20134TIP3    H181893   6.704   2.841   0.359  2.0124  0.5921 -0.8407
20134TIP3    H281894   6.727   2.800   0.503 -1.4406 -0.1829 -0.4129
20135TIP3   OH281895   5.397   6.544  12.782 -0.0834 -0.2450 -0.2370
20135TIP3    H181896   5.351   6.466  12.814 -1.0498 -0.3890 -1.8470
20135TIP3    H281897   5.340   6.577  12.712 -0.0034  2.2619  0.7957
20136TIP3   OH281898   4.592   4.050   0.954  0.7284  0.4240  0.0280
20136TIP3    H181899   4.683   4.072   0.934  0.3378  3.0959  0.7470
20136TIP3    H281900   4.582   4.072   1.047 -0.4452 -0.6432  0.1791
20137TIP3   OH281901   5.985   6.768  16.499  0.5673  0.2680 -0.1198
20137TIP3    H181902   5.908   6.819  16.525 -0.1040  0.0780 -1.6024
20137TIP3    H281903   5.960   6.729  16.415  1.8669 -0.7547 -0.0619
20138TIP3   OH281904   3.538   6.506  12.036 -0.0159 -0.3630 -0.0566
20138TIP3    H181905   3.610   6.443  12.026 -0.1573 -0.3402 -1.4097
20138TIP3    H281906   3.459   6.451  12.037  0.0026 -0.4302  1.9178
20139TIP3   OH281907   0.871   6.197  10.682  0.3459 -0.5639 -0.1451
20139TIP3    H181908   0.925   6.167  10.755  0.1609  1.5939  0.9548
20139TIP3    H281909   0.820   6.270  10.718 -0.7995 -0.3473 -2.0652
20140TIP3   OH281910   4.139   0.432   3.389  0.7282 -0.0143  0.4548
20140TIP3    H181911   4.221   0.399   3.352  0.8835  0.6817  0.1602
20140TIP3    H281912   4.101   0.485   3.318  0.3187  0.1443  0.7944
20141TIP3   OH281913   1.485   6.288  13.735 -0.1020  0.1745 -0.2842
20141TIP3    H181914   1.512   6.226  13.667 -0.8737 -2.9565  2.0459
20141TIP3    H281915   1.564   6.301  13.788 -0.2759  0.0924 -0.0021
20142TIP3   OH281916   2.538   0.102  12.056  0.0768 -0.8382  0.0241
20142TIP3    H181917   2.511   0.180  12.105 -0.3970 -0.6693 -0.4929
20142TIP3    H281918   2.633   0.109  12.048 -0.0417  0.0966 -0.6993
20143TIP3   OH281919   6.706   3.601  15.229 -0.2645  0.0836  0.0099
20143TIP3    H181920   6.672   3.526  15.278 -0.8852  1.1240  1.2203
20143TIP3    H281921   6.669   3.677  15.272  1.9014  1.2074  0.0561
20144TIP3   OH281922   4.506   0.375  11.629 -0.2706  0.5201  0.6042
20144TIP3    H181923   4.486   0.388  11.536  3.5371  0.6202 -0.3379
20144TIP3    H281924   4.578   0.434  11.647 -0.5579  0.1213  3.5452
20145TIP3   OH281925   5.746   2.507   5.095 -0.0917  0.4476  0.2532
20145TIP3    H181926   5.789   2.572   5.151 -2.7067  2.8644 -0.2732
20145TIP3    H281927   5.700   2.450   5.156 -0.9175  1.5435  0.6907
20146TIP3   OH281928   6.176   0.861  12.677 -0.0909  0.2541  0.7937
20146TIP3    H181929   6.109   0.807  12.719 -0.9871 -1.4374 -2.5167
20146TIP3    H281930   6.257   0.813  12.690 -0.4174 -0.4354  0.3250
20147TIP3   OH281931   4.969   5.837   0.356 -0.2750 -0.0762  0.0371
20147TIP3    H181932   4.895   5.889   0.326  1.5989  1.6104 -2.1145
20147TIP3    H281933   4.969   5.760   0.300 -0.2892  0.0493 -0.1382
20148TIP3   OH281934   3.585   4.142   2.100 -0.0732 -0.1616  0.6690
20148TIP3    H181935   3.675   4.148   2.131 -0.0187  3.4765  0.2543
20148TIP3    H281936   3.592   4.115   2.009  0.6413  0.3213  0.5759
20149TIP3   OH281937   2.861   4.872  13.391 -0.3724  0.1446  0.2391
20149TIP3    H181938   2.903   4.818  13.458  1.1990  1.8513  0.6990
20149TIP3    H281939   2.794   4.815  13.353 -1.4100 -0.8607  3.3120
20150TIP3   OH281940   0.875   1.516   1.273  0.2318 -0.4218 -0.3572
20150TIP3    H181941   0.926   1.532   1.194 -0.5943  0.5243 -0.7246
20150TIP3    H281942   0.784   1.517   1.243 -0.1596  1.1660  0.7639
20151TIP3   OH281943   6.574   2.439  15.585 -0.4116 -0.1890 -0.0935
20151TIP3    H181944   6.657   2.392  15.573 -1.1039 -2.1435  1.9968
20151TIP3    H281945   6.507   2.372  15.571 -1.6855  1.3185 -1.5936
20152TIP3   OH281946   0.449   2.627   2.483 -0.8219  0.0555 -0.0491
20152TIP3    H181947   0.468   2.640   2.390 -2.2772  1.0739 -0.2313
20152TIP3    H281948   0.381   2.560   2.485 -1.1981  0.4410  0.2426
20153TIP3   OH281949   1.637   4.754  11.351 -0.4763 -0.4065  0.3074
20153TIP3    H181950   1.602   4.734  11.264  0.8350  0.6632 -0.5111
20153TIP3    H281951   1.594   4.692  11.410 -0.8648 -1.6302 -1.2085
20154TIP3   OH281952   6.331   1.885  15.211 -0.0870  0.7420  0.4417
20154TIP3    H181953   6.415   1.902  15.169 -0.7979  0.4517 -1.1973
20154TIP3    H281954   6.350   1.884  15.305  2.0270 -0.8798  0.0814
20155TIP3   OH281955   5.362   5.488   0.455 -0.2633 -0.1093 -0.1921
20155TIP3    H181956   5.390   5.545   0.527 -1.5984 -0.4363  0.6250
20155TIP3    H281957   5.433   5.425   0.445 -0.4054 -0.5692  1.4114
20156TIP3   OH281958   0.100   1.080   0.510  0.6730  0.1013  0.2123
20156TIP3    H181959   0.051   1.145   0.561 -0.1965 -1.8607  2.0342
20156TIP3    H281960   0.186   1.077   0.551  1.6730  1.9564 -1.5918
20157TIP3   OH281961   0.924   3.115  12.211  0.1059  0.5673 -0.5621
20157TIP3    H181962   0.868   3.127  12.287  1.6242  0.3933  0.6288
20157TIP3    H281963   0.871   3.065  12.149 -1.3641  1.2351  0.1155
20158TIP3   OH281964   1.136   0.373   2.337  0.0798  0.7977 -0.1531
20158TIP3    H181965   1.090   0.457   2.335 -0.6471  0.4102 -0.0522
20158TIP3    H281966   1.106   0.332   2.418  0.1609  0.2839 -0.3826
20159TIP3   OH281967   2.625   1.619  15.765 -0.2952  0.1205  0.2600
20159TIP3    H181968   2.680   1.607  15.688 -0.4499  1.6013 -0.1093
20159TIP3    H281969   2.669   1.686  15.816  0.4870 -1.7350  2.1601
20160TIP3   OH281970   0.667   4.993   4.104 -0.0574 -0.0201  0.8603
20160TIP3    H181971   0.606   5.061   4.133 -0.3287  1.1261 -2.0846
20160TIP3    H281972   0.641   4.974   4.014  2.2075 -1.5549  0.4400
20161TIP3   OH281973   1.757   2.929  16.457  0.0118 -0.2157  0.3491
20161TIP3    H181974   1.690   2.876  16.501 -0.9562  0.3545 -0.4103
20161TIP3    H281975   1.765   2.890  16.370 -1.5521  1.5396 -0.6342
20162TIP3   OH281976   2.881   3.825   1.906  0.6128  0.9728 -0.0067
20162TIP3    H181977   2.968   3.799   1.876  0.0930 -0.5083 -0.3451
20162TIP3    H281978   2.875   3.918   1.885  2.3044  1.2455  0.5442
20163TIP3   OH281979   1.731   3.079   0.997  0.1694 -0.4190  0.2653
20163TIP3    H181980   1.688   3.143   0.939  0.8279 -0.4978 -0.3293
20163TIP3    H281981   1.817   3.117   1.013 -0.9304  1.0481  3.5903
20164TIP3   OH281982   3.208   4.383  14.768  0.2333  0.3208 -0.2450
20164TIP3    H181983   3.192   4.472  14.799 -1.8594 -0.0196 -0.2150
20164TIP3    H281984   3.223   4.332  14.848 -1.2348  0.1768 -0.0388
20165TIP3   OH281985   6.547   1.453  14.909  0.4062  0.0757  0.1003
20165TIP3    H181986   6.606   1.509  14.858 -0.0362  1.2994  0.8749
20165TIP3    H281987   6.503   1.399  14.844  0.9668  0.5240 -0.6746
20166TIP3   OH281988   1.463   4.757  16.695 -0.0905 -0.4051 -0.0191
20166TIP3    H181989   1.536   4.725  16.747  1.7678 -0.1133 -2.2514
20166TIP3    H281990   1.482   4.726  16.606 -3.1553 -1.0081 -0.5533
20167TIP3   OH281991   3.138   0.784  12.220  0.3300  0.1725  0.5639
20167TIP3    H181992   3.061   0.728  12.228  1.0492 -1.0601 -0.7943
20167TIP3    H281993   3.206   0.739  12.270  0.3162  1.0409  1.3983
20168TIP3   OH281994   2.104   6.015  14.795 -0.2993 -0.0829 -0.1023
20168TIP3    H181995   2.171   6.016  14.728 -1.8622  3.7861 -1.9323
20168TIP3    H281996   2.022   6.026  14.747 -1.7356  0.3390  2.2723
20169TIP3   OH281997   0.382   0.011   4.810 -0.0160 -0.1035  0.3071
20169TIP3    H181998   0.331   0.075   4.860 -0.3266 -0.0366 -0.0980
20169TIP3    H281999   0.352   0.021   4.720  1.5060  0.7437 -0.1562
20170TIP3   OH282000   5.920   1.869  12.184 -0.4224 -0.0643  1.0063
20170TIP3    H182001   5.980   1.797  12.164  0.9542  1.2827  0.0415
20170TIP3    H282002   5.975   1.936  12.224 -1.2549  1.2207  0.0981
20171TIP3   OH282003   2.651   0.487   3.236  0.0335 -0.6036  0.1662
20171TIP3    H182004   2.611   0.473   3.322  0.1247 -3.1105 -0.1436
20171TIP3    H282005   2.731   0.434   3.238  0.0565 -0.6656 -1.4663
20172TIP3   OH282006   0.772   2.802   2.309 -0.2350  0.0444 -0.3339
20172TIP3    H182007   0.726   2.859   2.369 -1.3014 -0.7813 -0.3445
20172TIP3    H282008   0.704   2.746   2.271  0.5799 -0.2789 -1.3846
20173TIP3   OH282009   2.261   6.717  12.308  0.7485 -0.3961 -0.0589
20173TIP3    H182010   2.177   6.685  12.275 -0.0776  2.1260 -0.6624
20173TIP3    H282011   2.251   6.718  12.403  1.1247 -2.5894  0.0444
20174TIP3   OH282012   6.163   1.347  12.317  0.7149 -0.3375  0.3969
20174TIP3    H182013   6.109   1.421  12.289 -1.0253 -1.6043  0.2603
20174TIP3    H282014   6.242   1.354  12.263 -0.6152 -0.1326 -1.6376
20175TIP3   OH282015   5.868   4.298  14.486 -0.2183  0.5538  0.2058
20175TIP3    H182016   5.928   4.293  14.412  1.1420  0.7466  1.2499
20175TIP3    H282017   5.886   4.383  14.526 -0.3050  0.0907  1.2605
20176TIP3   OH282018   2.990   2.096  14.493  0.0520 -0.4101 -0.1696
20176TIP3    H182019   2.968   2.089  14.400 -2.6059 -0.0066  0.3612
20176TIP3    H282020   3.023   2.185  14.503  0.2218 -0.4089 -0.6809
20177TIP3   OH282021   2.813   1.811  12.177 -0.1404  0.1868 -0.0546
20177TIP3    H182022   2.813   1.898  12.217  0.4533  0.6637 -1.0658
20177TIP3    H282023   2.828   1.751  12.250 -1.5023  0.8491  0.7999
20178TIP3   OH282024   5.584   2.854   0.414  0.3727  0.0347 -0.3777
20178TIP3    H182025   5.637   2.875   0.337  0.8714 -0.2500 -0.1225
20178TIP3    H282026   5.525   2.785   0.385 -0.1234  0.6208 -0.7679
20179TIP3   OH282027   1.847   3.220  10.755 -0.5176  0.3855 -0.2101
20179TIP3    H182028   1.925   3.244  10.705 -0.5126  0.7946 -0.0094
20179TIP3    H282029   1.802   3.157  10.700 -1.6406  2.4162 -1.7329
20180TIP3   OH282030   5.528   6.025  15.180  0.0030 -0.2337 -0.9255
20180TIP3    H182031   5.472   6.094  15.143  0.3941  0.5358 -0.1015
20180TIP3    H282032   5.502   5.946  15.133 -1.4573  0.1960 -0.8844
20181TIP3   OH282033   6.196   2.301  11.309  0.2219  0.0535 -0.0245
20181TIP3    H182034   6.155   2.247  11.242 -0.7218 -1.6456  1.8282
20181TIP3    H282035   6.129   2.365  11.334 -0.7558 -1.5499  1.6962
20182TIP3   OH282036   0.302   5.224  16.248 -0.5324 -0.4489  0.4923
20182TIP3    H182037   0.357   5.148  16.232  0.1863 -0.1571  1.4682
20182TIP3    H282038   0.363   5.298  16.250 -0.8958 -0.1489  1.8208
20183TIP3   OH282039   3.535   2.830  15.178 -0.0855 -0.2779  0.7006
20183TIP3    H182040   3.623   2.839  15.143  0.2157 -2.3177  0.7927
20183TIP3    H282041   3.483   2.896  15.132  0.9975 -0.6342 -1.0940
20184TIP3   OH282042   4.560   2.327  14.878 -0.6057 -0.3179 -0.2464
20184TIP3    H182043   4.586   2.235  14.886  0.5946  0.0200 -0.0165
20184TIP3    H282044   4.600   2.357  14.796  2.1698  0.9289  1.4118
20185TIP3   OH282045   5.398   3.162  16.504  0.2006 -0.3029  0.2414
20185TIP3    H182046   5.488   3.190  16.522  0.0748  0.5723 -0.4239
20185TIP3    H282047   5.349   3.187  16.583  0.6298 -1.2736  0.8325
20186TIP3   OH282048   0.324   6.710  12.267 -0.0225  0.3202 -0.4531
20186TIP3    H182049   0.298   6.643  12.204 -0.2731 -0.0434  0.0303
20186TIP3    H282050   0.371   6.663  12.335 -1.5278  0.3733  0.6748
20187TIP3   OH282051   5.400   2.589   2.106  0.1009 -0.1707  0.4261
20187TIP3    H182052   5.366   2.499   2.108  0.6566 -0.5019 -1.9385
20187TIP3    H282053   5.494   2.579   2.121  0.1869 -0.0039  0.0023
20188TIP3   OH282054   0.301   1.535   1.615 -0.6017  0.3345 -0.2207
20188TIP3    H182055   0.281   1.542   1.522 -1.6554 -1.0283 -0.1278
20188TIP3    H282056   0.328   1.624   1.641 -1.0700  0.9096 -1.6303
20189TIP3   OH282057   4.560   2.761   3.680 -0.0586  0.1525 -0.1289
20189TIP3    H182058   4.573   2.835   3.739  0.8339  0.9820 -1.3036
20189TIP3    H282059   4.476   2.723   3.706  0.6502  0.0179  2.1215
20190TIP3   OH282060   6.686   1.756  11.243  0.4915  0.1296  1.0832
20190TIP3    H182061   6.643   1.827  11.195  0.5256 -0.3244  0.3646
20190TIP3    H282062   6.767   1.741  11.195  1.0966  0.4538  1.9734
20191TIP3   OH282063   6.176   1.391  17.010 -0.2559 -0.1239  0.7794
20191TIP3    H182064   6.241   1.324  17.032  0.1489  0.0609  0.1609
20191TIP3    H282065   6.117   1.348  16.949  0.6439  0.3846 -0.5027
20192TIP3   OH282066   0.034   5.023  16.118  0.0572  0.3714  0.3104
20192TIP3    H182067  -0.030   5.029  16.048 -0.3015  0.2853  0.6246
20192TIP3    H282068   0.117   5.047  16.078  0.0404 -0.6648 -0.3929
20193TIP3   OH282069   0.784   3.969  15.026 -0.2383 -0.7723  0.0519
20193TIP3    H182070   0.771   4.049  14.975  0.1814 -0.7886 -0.0881
20193TIP3    H282071   0.879   3.963  15.038 -0.3055 -0.9680  0.5205
20194TIP3   OH282072   3.418   3.668   5.497  0.2095  0.4038  0.4389
20194TIP3    H182073   3.387   3.595   5.551  0.2042  0.7926  0.9600
20194TIP3    H282074   3.502   3.693   5.535  1.2693 -0.7175 -1.0353
20195TIP3   OH282075   4.495   2.549  15.424  0.0022  0.3828  0.1520
20195TIP3    H182076   4.520   2.519  15.337 -0.1431 -0.5543  0.4273
20195TIP3    H282077   4.401   2.568  15.417  0.2892  1.7385 -0.2791
20196TIP3   OH282078   4.842   6.686  11.346  0.6297  0.3595  0.3770
20196TIP3    H182079   4.905   6.658  11.412  1.0123 -1.9802 -0.8986
20196TIP3    H282080   4.895   6.734  11.281  0.7688  0.0737  0.2782
20197TIP3   OH282081   4.253   5.382   0.021 -0.0263 -0.0913 -0.2159
20197TIP3    H182082   4.279   5.317  -0.045 -0.5877 -0.2174 -0.3196
20197TIP3    H282083   4.273   5.466  -0.020 -0.8702 -0.1490 -0.7822
20198TIP3   OH282084   0.395   4.880   2.917 -0.2017 -0.4763 -0.0101
20198TIP3    H182085   0.318   4.914   2.963 -0.0038 -1.1318  0.8315
20198TIP3    H282086   0.388   4.917   2.829 -2.2773 -1.6704 -0.4218
20199TIP3   OH282087   3.332   0.414  15.828 -0.3842 -0.3820  0.7360
20199TIP3    H182088   3.373   0.499  15.815  0.0078 -0.7369 -0.5632
20199TIP3    H282089   3.243   0.434  15.856 -0.1149  0.4393  1.0202
20200TIP3   OH282090   2.381   0.545  13.479 -0.7060  0.1798 -0.1438
20200TIP3    H182091   2.403   0.602  13.406 -0.8437 -1.1345 -1.2542
20200TIP3    H282092   2.401   0.457  13.447  0.4702 -0.3435  1.8549
20201TIP3   OH282093   4.541   3.715  15.548 -0.7603  0.2334 -0.0472
20201TIP3    H182094   4.447   3.708  15.532 -0.4971 -2.6333 -0.9212
20201TIP3    H282095   4.566   3.630  15.584  1.4566  1.0562  0.5374
20202TIP3   OH282096   3.945   5.209  12.912 -0.3469  0.3095 -0.0647
20202TIP3    H182097   3.933   5.225  13.005  1.3286  1.4487  0.0146
20202TIP3    H282098   4.028   5.160  12.906 -0.4387  0.2364 -0.9493
20203TIP3   OH282099   5.508   4.423  15.923  0.4004  0.2949  0.0608
20203TIP3    H182100   5.584   4.391  15.971 -0.4941  0.6878  1.8086
20203TIP3    H282101   5.433   4.401  15.978 -0.6786  0.7548 -1.1726
20204TIP3   OH282102   5.720   5.081  12.128  0.3477 -0.7103  0.8044
20204TIP3    H182103   5.735   4.987  12.123  1.6178 -0.4772 -0.1497
20204TIP3    H282104   5.737   5.113  12.039 -0.6072  0.3496  0.9848
20205TIP3   OH282105   5.074   1.017   3.630  0.1097 -0.5408  0.0040
20205TIP3    H182106   5.055   0.926   3.608 -1.1256 -0.5231  0.8444
20205TIP3    H282107   5.058   1.066   3.549 -0.1842 -0.9623 -0.1924
20206TIP3   OH282108   6.630   5.140  13.437 -0.2067  0.2985  0.0536
20206TIP3    H182109   6.704   5.141  13.497 -0.3381 -0.0603  0.2245
20206TIP3    H282110   6.559   5.097  13.485 -0.0515 -0.7886 -0.6458
20207TIP3   OH282111   5.137   1.596   1.374  0.2218  0.2683 -0.1015
20207TIP3    H182112   5.180   1.646   1.443  1.5222 -0.5714 -0.2788
20207TIP3    H282113   5.203   1.533   1.345 -1.4103 -1.6684  0.2238
20208TIP3   OH282114   3.234   5.827   5.314 -0.0941 -0.2998 -0.0685
20208TIP3    H182115   3.322   5.820   5.276  0.0512 -1.2379  0.4211
20208TIP3    H282116   3.176   5.788   5.249 -0.2163  0.7108 -0.5846
20209TIP3   OH282117   3.409   2.025  11.108 -0.2070  0.5959 -0.4217
20209TIP3    H182118   3.501   2.018  11.082  0.3308  1.1911  1.2367
20209TIP3    H282119   3.365   2.057  11.029  0.6783 -1.3293 -1.7886
20210TIP3   OH282120   2.373   4.565  12.929  0.6049 -0.0297 -0.2264
20210TIP3    H182121   2.375   4.513  12.848  0.9571  0.1928 -0.3653
20210TIP3    H282122   2.465   4.587  12.946  0.5568 -0.2694  0.3639
20211TIP3   OH282123   4.454   1.109   4.126  0.0498  0.0028 -0.3531
20211TIP3    H182124   4.488   1.139   4.042 -0.2832 -0.9729 -0.8545
20211TIP3    H282125   4.421   1.021   4.108  2.1605 -1.2150  1.3257
20212TIP3   OH282126   0.233   4.920   4.771 -0.4295 -0.3682  0.1906
20212TIP3    H182127   0.308   4.911   4.829  0.6837  0.0156 -1.1388
20212TIP3    H282128   0.175   4.847   4.794  0.8794 -1.3439  0.4678
20213TIP3   OH282129   4.249   1.536   5.077  0.0716 -0.1630  0.0991
20213TIP3    H182130   4.170   1.560   5.125 -0.2857  3.8549 -2.1205
20213TIP3    H282131   4.318   1.536   5.144 -1.2220 -0.4679  1.5076
20214TIP3   OH282132   0.963   4.281  16.762 -0.9650 -0.0773  0.1312
20214TIP3    H182133   0.995   4.371  16.762 -2.0804  0.3557 -1.1094
20214TIP3    H282134   0.995   4.244  16.680 -1.4506 -0.4594  0.1114
20215TIP3   OH282135   3.017   1.224   0.768  0.5376  0.0852 -0.1809
20215TIP3    H182136   3.014   1.222   0.863 -1.6403 -1.0389 -0.2083
20215TIP3    H282137   2.978   1.141   0.741  0.3458  0.7313 -2.0385
20216TIP3   OH282138   0.887   6.075  14.015 -0.2400 -0.5284  0.6187
20216TIP3    H182139   0.822   6.134  14.053  1.0941  0.7560  1.0055
20216TIP3    H282140   0.917   6.120  13.936 -1.5135 -2.2328 -0.9119
20217TIP3   OH282141   6.256   3.497  13.360 -0.4265 -0.0624  0.1103
20217TIP3    H182142   6.215   3.550  13.292 -0.2822 -0.2228 -0.1023
20217TIP3    H282143   6.257   3.408  13.324 -1.2910 -0.3426  0.7314
20218TIP3   OH282144   6.233   5.763  12.283 -0.3781  0.5745 -0.2455
20218TIP3    H182145   6.215   5.704  12.356  0.6135  0.5838  0.0165
20218TIP3    H282146   6.327   5.757  12.270 -0.6029  0.0715 -1.9447
20219TIP3   OH282147   1.012   4.331  14.828 -0.1444 -0.4347 -0.3671
20219TIP3    H182148   1.000   4.410  14.881 -3.5966 -1.7232  1.0347
20219TIP3    H282149   1.091   4.290  14.863 -0.9311  0.0505  2.1402
20220TIP3   OH282150   0.777   0.400   2.474 -0.0387  0.8068  0.3571
20220TIP3    H182151   0.824   0.340   2.532  0.4786  0.4485 -0.4115
20220TIP3    H282152   0.776   0.355   2.389  0.5683  1.9925 -0.3009
20221TIP3   OH282153   3.884   1.812  14.726 -0.3979  0.3982 -0.5167
20221TIP3    H182154   3.805   1.759  14.736  0.0379 -0.1672  0.0566
20221TIP3    H282155   3.935   1.765  14.660  0.3178 -0.3391  0.5154
20222TIP3   OH282156   2.476   5.028   2.320  0.2854 -0.0194  0.1215
20222TIP3    H182157   2.428   5.036   2.238 -1.2150 -1.2025  0.8287
20222TIP3    H282158   2.451   5.106   2.370 -0.8226 -0.5495  0.4228
20223TIP3   OH282159   2.202   2.989  13.320  0.3909 -0.7890  0.5271
20223TIP3    H182160   2.263   2.915  13.314  1.9140  0.3882  0.7210
20223TIP3    H282161   2.173   2.988  13.412  1.5908 -0.2768  0.9290
20224TIP3   OH282162   3.105   5.789   6.088  0.0301 -0.6153  0.2687
20224TIP3    H182163   3.158   5.710   6.076 -0.9619 -1.1547 -0.8471
20224TIP3    H282164   3.058   5.799   6.005 -0.2948  0.8394  0.5903
20225TIP3   OH282165   2.698   4.420  12.399  0.6535 -0.6329 -0.2036
20225TIP3    H182166   2.736   4.442  12.484  0.1185 -0.1481 -0.0801
20225TIP3    H282167   2.704   4.325  12.394  0.2347 -0.7131  0.6014
20226TIP3   OH282168   3.126   6.585   1.271  0.4774 -0.2004  0.2723
20226TIP3    H182169   3.138   6.577   1.176  2.3443  1.3481  0.3092
20226TIP3    H282170   3.069   6.512   1.294  2.1769 -2.2846 -1.6572
20227TIP3   OH282171   3.376   1.051  12.843 -0.7744 -0.0232  0.1948
20227TIP3    H182172   3.460   1.007  12.825 -0.4071  0.1403  1.4419
20227TIP3    H282173   3.335   0.997  12.910 -1.2979  0.3660  0.1894
20228TIP3   OH282174   6.845   1.604  16.206  0.1542 -0.7330 -0.1924
20228TIP3    H182175   6.817   1.513  16.213  1.1890 -1.1435 -1.0529
20228TIP3    H282176   6.924   1.601  16.153  0.1152  0.6962 -0.3849
20229TIP3   OH282177   0.421   3.433   1.879  0.1518  0.5593  0.2853
20229TIP3    H182178   0.381   3.415   1.965  0.0797 -1.0535 -0.0597
20229TIP3    H282179   0.352   3.411   1.816  0.5791  0.6603 -0.2210
20230TIP3   OH282180   4.318   6.049   0.521  0.0659  0.1489  0.1499
20230TIP3    H182181   4.356   6.065   0.607 -0.7673  3.7102  0.0308
20230TIP3    H282182   4.342   6.126   0.470  0.3686 -1.7540 -2.8156
20231TIP3   OH282183   1.548   0.074   3.854  0.4284  0.0543 -0.6942
20231TIP3    H182184   1.470   0.019   3.843  1.5042 -1.5268 -0.6443
20231TIP3    H282185   1.609   0.020   3.904  0.5089  2.3200  1.9523
20232TIP3   OH282186   4.658   5.022  12.951 -0.0853  0.0767  0.4868
20232TIP3    H182187   4.617   5.068  13.025 -1.0291  2.4120 -1.3710
20232TIP3    H282188   4.749   5.052  12.952  0.0438 -0.3218  1.0084
20233TIP3   OH282189   6.199   4.833  17.044 -0.1831 -0.3308 -0.2735
20233TIP3    H182190   6.182   4.792  16.959 -2.0078 -2.1431  0.8601
20233TIP3    H282191   6.114   4.871  17.069  0.1339 -0.4746  1.0573
20234TIP3   OH282192   4.247   4.064   0.312  0.7917  0.2897 -0.0950
20234TIP3    H182193   4.299   3.989   0.342 -0.5362 -0.9988 -0.8825
20234TIP3    H282194   4.240   4.051   0.217 -0.3533  0.8297 -0.0946
20235TIP3   OH282195   1.634   2.875   0.039  0.1767 -0.5024 -0.5874
20235TIP3    H182196   1.570   2.869   0.110 -1.4138 -1.9274 -2.0676
20235TIP3    H282197   1.618   2.798  -0.015  1.8876  0.1124 -2.0699
20236TIP3   OH282198   6.784   4.255   4.698  0.3407 -0.1486 -0.0606
20236TIP3    H182199   6.756   4.346   4.705  2.1354  0.6451 -2.1220
20236TIP3    H282200   6.707   4.208   4.665 -0.2561  0.8156 -0.0809
20237TIP3   OH282201   0.952   5.057   3.812  0.2127 -0.0847 -0.3285
20237TIP3    H182202   0.980   5.119   3.879  2.0159  0.1870 -1.2641
20237TIP3    H282203   0.931   4.977   3.860  0.3241  0.4744  0.6626
20238TIP3   OH282204   2.348   4.740  12.442 -0.0601  0.7139 -0.3273
20238TIP3    H182205   2.260   4.770  12.463 -0.7774 -1.6117  0.1907
20238TIP3    H282206   2.339   4.647  12.425  2.2144  0.5339 -0.8862
20239TIP3   OH282207   4.432   2.997   3.592 -0.4155  0.3628 -0.0251
20239TIP3    H182208   4.399   2.907   3.592  1.5440 -0.4049  0.5383
20239TIP3    H282209   4.396   3.036   3.672  1.1502 -0.9424  1.4047
20240TIP3   OH282210   4.801   1.961  12.186 -0.0136 -0.4854 -0.0977
20240TIP3    H182211   4.849   1.985  12.106  1.5888 -2.2306  0.2822
20240TIP3    H282212   4.862   1.980  12.257 -1.3665  0.8800  0.7504
20241TIP3   OH282213   6.739   5.647  15.700 -0.2197  0.1495 -0.5053
20241TIP3    H182214   6.707   5.721  15.649  1.7399  0.6985 -1.0197
20241TIP3    H282215   6.744   5.681  15.790 -1.2943 -0.0431 -0.3531
20242TIP3   OH282216   2.640   6.855  13.954 -0.0110  0.0552 -0.5499
20242TIP3    H182217   2.707   6.789  13.938  0.0313  0.0780 -0.4636
20242TIP3    H282218   2.687   6.930  13.989 -0.3851 -0.8609  2.1564
20243TIP3   OH282219   0.556   3.654  16.718 -0.0447  0.6419  0.1875
20243TIP3    H182220   0.625   3.673  16.653 -2.2190  3.0616 -1.6172
20243TIP3    H282221   0.498   3.592  16.674 -0.2521  0.4026  0.7897
20244TIP3   OH282222   3.454   5.823  11.126  0.0818 -0.2147  0.0179
20244TIP3    H182223   3.371   5.820  11.077  0.4402  1.4388 -0.7654
20244TIP3    H282224   3.449   5.905  11.175  0.9025 -0.5319  0.6505
20245TIP3   OH282225   2.240   3.002  16.371  0.5911  0.3031 -0.0476
20245TIP3    H182226   2.156   3.048  16.365 -1.4107 -3.1107 -1.0261
20245TIP3    H282227   2.242   2.967  16.459  2.0998  2.0699  0.6911
20246TIP3   OH282228   6.566   3.645  16.741  0.5236  0.8734 -0.0835
20246TIP3    H182229   6.470   3.640  16.741  0.5449  0.1991  0.5072
20246TIP3    H282230   6.587   3.694  16.821  0.6734  1.0186 -0.2126
20247TIP3   OH282231   0.578   2.425   4.717 -0.3845  0.2131  0.2859
20247TIP3    H182232   0.666   2.408   4.750 -0.5630 -1.4363  0.0150
20247TIP3    H282233   0.542   2.490   4.777  2.2047  3.7925 -1.6235
20248TIP3   OH282234   0.746   6.722   0.174 -0.4959  0.3929  0.0326
20248TIP3    H182235   0.698   6.646   0.208  1.0543  0.3850  2.5156
20248TIP3    H282236   0.701   6.797   0.212 -0.9574  0.6366 -0.9732
20249TIP3   OH282237   3.578   3.760  12.514  0.0953 -0.9367  0.5468
20249TIP3    H182238   3.671   3.743  12.501  0.4309  0.3027  1.1631
20249TIP3    H282239   3.571   3.855  12.520 -1.1829 -1.0171  0.7548
20250TIP3   OH282240   3.633   6.105   4.734 -0.0727  0.5570 -0.5908
20250TIP3    H182241   3.632   6.010   4.747 -2.3688  0.6017 -0.1367
20250TIP3    H282242   3.671   6.140   4.815 -0.6487  0.0836 -0.1037
20251TIP3   OH282243   3.040   4.837  14.485  0.5471  0.3321 -0.0316
20251TIP3    H182244   2.999   4.923  14.480 -1.4527 -0.4707  1.2522
20251TIP3    H282245   2.979   4.779  14.439  0.7074 -0.7483  1.0656
20252TIP3   OH282246   3.320   2.108   4.550 -0.0113 -0.4511 -0.3598
20252TIP3    H182247   3.342   2.188   4.502 -1.1880  0.6009  0.7625
20252TIP3    H282248   3.403   2.062   4.560  0.4497 -0.1090 -2.3083
20253TIP3   OH282249   2.375   5.034  14.003 -0.3313 -0.6312 -0.0637
20253TIP3    H182250   2.372   5.081  14.086 -0.0595  0.4145 -0.6405
20253TIP3    H282251   2.344   4.946  14.025  0.0475 -0.4672  1.2078
20254TIP3   OH282252   0.506   3.049   4.049 -0.0904  0.0286 -0.4874
20254TIP3    H182253   0.452   2.981   4.009  0.2072 -1.4954  1.5505
20254TIP3    H282254   0.515   3.023   4.140  0.3670  2.6417  0.3050
20255LIG      O82255   5.041   5.281  16.739  0.0300  0.0923  0.2210
20255LIG      N82256   4.933   4.928  16.496 -0.0753 -0.8180  0.6217
20255LIG     C182257   4.823   5.379  16.702 -0.5453 -0.2820 -0.0782
20255LIG     C282258   4.903   5.249  16.712  0.3846  0.1945  0.1000
20255LIG     C382259   4.846   5.471  16.820  0.4108  0.1079  0.5378
20255LIG     C482260   4.848   5.461  16.569  0.7981 -0.6977 -0.1054
20255LIG     C582261   4.903   5.163  16.583 -0.5836 -0.2528  0.1980
20255LIG     C682262   4.766   5.608  16.818 -0.6459  0.5136  0.3456
20255LIG     C782263   4.762   5.592  16.566  0.1560 -0.9655 -0.0587
20255LIG     C882264   4.787   5.682  16.689 -0.0937 -0.3851  0.8965
20255LIG     C982265   4.967   5.022  16.600 -0.2654 -1.0297 -0.6329
20255LIG    C1082266   4.830   5.167  16.828  0.5529 -0.3372  0.1007
20255LIG    C1182267   5.042   4.838  16.461 -0.1047  0.3018  0.0709
20255LIG    C1282268   4.806   4.862  16.512  0.5440 -0.2328  0.7297
20255LIG    C1382269   5.065   4.742  16.577 -0.3636 -0.2925  0.4981
20255LIG    C1482270   4.812   4.753  16.620 -0.1146  0.9284  0.0735
20255LIG    C1582271   4.933   4.659  16.615  0.4510 -0.1162  0.2111
20255LIG    C1682272   4.696   5.123  16.809 -0.0698 -0.1668  0.1501
20255LIG    C1782273   4.907   5.126  16.943  0.4294  0.3413  0.2591
20255LIG    C1882274   4.639   5.047  16.916  0.7812 -0.9266  0.1056
20255LIG    C1982275   4.834   5.091  17.060  0.0157  0.4075  0.3646
20255LIG    C2082276   4.700   5.049  17.041 -0.3903 -0.1613  0.4983
20255LIG     H182277   4.716   5.351  16.690 -0.3998 -0.3151 -1.4399
20255LIG     H282278   4.953   5.495  16.835  0.4686 -0.0631  0.3888
20255LIG     H382279   4.795   5.412  16.899 -0.7829 -1.3352 -1.2544
20255LIG     H482280   4.816   5.405  16.479  0.4236 -1.4410  0.4674
20255LIG     H582281   4.958   5.479  16.570  0.9627 -1.3477 -2.2868
20255LIG     H682282   4.957   5.216  16.502 -0.0051 -2.8036 -1.2038
20255LIG     H782283   4.796   5.149  16.557 -1.0299  0.0121  1.7810
20255LIG     H882284   4.792   5.674  16.903 -2.0886  0.4375  0.8889
20255LIG     H982285   4.657   5.584  16.823 -0.3078 -1.2119  0.1081
20255LIG    H1082286   4.658   5.554  16.567  0.1664 -1.0295 -0.6609
20255LIG    H1182287   4.786   5.639  16.468  2.1126  0.8047  1.1593
20255LIG    H1282288   4.894   5.712  16.684  0.6060 -2.7765 -1.3267
20255LIG    H1382289   4.710   5.762  16.687 -0.7874 -1.0504  0.2839
20255LIG    H1482290   5.074   5.050  16.597 -0.8241  1.2285 -1.5308
20255LIG    H1582291   4.951   4.986  16.703  1.0423 -2.1703 -0.8020
20255LIG    H1682292   5.133   4.896  16.434  1.8840 -1.2402  2.9773
20255LIG    H1782293   5.023   4.777  16.370  0.3253 -0.4199  0.4544
20255LIG    H1882294   4.778   4.812  16.417  0.5373  1.8392 -0.4244
20255LIG    H1982295   4.733   4.943  16.533 -0.5980 -0.9505 -0.3522
20255LIG    H2082296   5.030   5.340  16.814 -0.5163  0.2215  0.0388
20255LIG    H2182297   5.101   4.802  16.664  1.0134 -1.0740  0.4873
20255LIG    H2282298   5.144   4.669  16.547  0.7676  1.3062 -0.5814
20255LIG    H2382299   4.719   4.693  16.617  0.0594  0.6640 -0.1292
20255LIG    H2482300   4.811   4.802  16.719  4.1225  0.4736  0.5191
20255LIG    H2582301   4.944   4.596  16.706  1.1225  0.4121  0.5077
20255LIG    H2682302   4.920   4.589  16.530 -0.6339  1.0267 -0.5878
20255LIG    H2782303   4.640   5.139  16.718 -0.1338  0.0475  0.2238
20255LIG    H2882304   5.014   5.128  16.955  0.4155  0.6603  0.3439
20255LIG    H2982305   4.537   5.012  16.903  0.4229  0.4398 -0.9681
20255LIG    H3082306   4.879   5.079  17.158 -0.5793 -1.3261  0.4625
20255LIG    H3182307   4.654   5.008  17.130 -0.6689  2.2293  1.5456
   6.85862   6.85862  17.12568
